Title
81287
    1CHL1    C3    1   1.981   1.055  10.146  0.3975 -0.7687  0.3502
    1CHL1    H3    2   1.883   1.082  10.100  0.5340  0.2949  0.6632
    1CHL1    O3    3   1.959   1.061  10.285  0.5384 -0.6180 -0.2904
    1CHL1   H3'    4   1.920   0.976  10.308 -2.0386 -0.0126 -2.2190
    1CHL1    C4    5   2.012   0.906  10.111 -0.2353 -0.8031  0.4721
    1CHL1   H4A    6   2.109   0.881  10.158 -0.3902 -1.4207  0.4678
    1CHL1   H4B    7   1.932   0.841  10.153 -1.6443 -0.4800 -1.6410
    1CHL1    C5    8   2.035   0.896   9.954 -0.2882  0.2285 -0.0613
    1CHL1    C6    9   1.958   0.813   9.878  0.3423 -0.1582 -0.1936
    1CHL1    H6   10   1.899   0.733   9.925 -0.7789 -0.2983 -1.7637
    1CHL1    C7   11   1.971   0.804   9.730 -0.3516  0.1710 -0.1936
    1CHL1   H7A   12   1.982   0.699   9.695 -4.3269 -0.3207 -0.1913
    1CHL1   H7B   13   1.880   0.837   9.675 -1.5765 -2.9045 -0.1218
    1CHL1    C8   14   2.103   0.864   9.672  0.6888  0.3170 -0.2874
    1CHL1    H8   15   2.193   0.805   9.702  1.1162  1.0503 -0.1156
    1CHL1   C14   16   2.086   0.879   9.521  0.8986  0.3392 -0.5344
    1CHL1   H14   17   2.005   0.954   9.511  0.6836 -0.0256 -1.6198
    1CHL1   C15   18   2.047   0.754   9.444 -0.0569  0.8911  0.1899
    1CHL1  H15A   19   2.128   0.683   9.472  0.0223  1.1490  0.6282
    1CHL1  H15B   20   1.944   0.713   9.455  0.2849  0.1346  0.6907
    1CHL1   C16   21   2.072   0.797   9.296  0.4847  0.1142 -0.1068
    1CHL1  H16A   22   2.125   0.721   9.235  0.7653  2.2356 -2.5442
    1CHL1  H16B   23   1.978   0.818   9.241  0.1287  0.4328  0.6068
    1CHL1   C17   24   2.147   0.930   9.298  0.0456 -0.0563  0.3630
    1CHL1   H17   25   2.072   1.010   9.284 -0.2561 -0.2113  1.0899
    1CHL1   C13   26   2.198   0.943   9.443  0.6311 -0.8612  0.3569
    1CHL1   C18   27   2.334   0.873   9.463  0.0553  1.2594  0.1845
    1CHL1  H18A   28   2.329   0.768   9.427  1.3416  1.3464 -0.2590
    1CHL1  H18B   29   2.414   0.928   9.410  0.8883 -0.5342 -0.4712
    1CHL1  H18C   30   2.360   0.868   9.571 -0.1051  0.7308  0.1999
    1CHL1   C12   31   2.193   1.088   9.502 -0.3582 -0.5001  1.2110
    1CHL1  H12A   32   2.267   1.145   9.442 -0.5750 -0.4104  1.0277
    1CHL1  H12B   33   2.092   1.131   9.481  0.7708  0.6308 -2.2375
    1CHL1   C11   34   2.213   1.096   9.653  0.5964  0.4138  0.3936
    1CHL1  H11A   35   2.320   1.074   9.672  0.4951 -2.5868 -2.0486
    1CHL1  H11B   36   2.192   1.202   9.680 -1.6877  0.5493 -1.7006
    1CHL1    C9   37   2.118   1.001   9.735 -0.2642  0.3282 -0.5214
    1CHL1    H9   38   2.024   1.056   9.711 -0.9052 -0.4458  0.2085
    1CHL1   C10   39   2.133   1.002   9.891  0.6602  0.2991 -0.2540
    1CHL1   C19   40   2.280   0.957   9.926  0.1043  0.2026 -0.2031
    1CHL1  H19A   41   2.356   1.025   9.882 -0.4920  0.1954 -1.2584
    1CHL1  H19B   42   2.292   0.946  10.036  0.2969  1.5902 -0.0778
    1CHL1  H19C   43   2.301   0.855   9.887 -0.1373  0.5058 -1.1190
    1CHL1    C1   44   2.098   1.142   9.942  0.8007 -0.9595 -0.7234
    1CHL1   H1A   45   2.185   1.202   9.908  0.6558 -0.2594  0.1205
    1CHL1   H1B   46   2.001   1.170   9.895 -0.4407 -2.7783  0.6998
    1CHL1    C2   47   2.081   1.151  10.100  0.0279 -1.3294  0.7141
    1CHL1   H2A   48   2.058   1.257  10.123 -0.1376 -1.0027 -0.9007
    1CHL1   H2B   49   2.182   1.126  10.137  0.0705 -1.6489  0.3876
    1CHL1   C20   50   2.247   0.943   9.182  0.0162 -0.5152  0.5515
    1CHL1   H20   51   2.336   0.878   9.193  0.8241  0.2515 -1.2158
    1CHL1   C21   52   2.297   1.088   9.189  0.0082 -0.0410 -0.6435
    1CHL1  H21A   53   2.363   1.096   9.278 -0.6488  0.7316 -0.2282
    1CHL1  H21B   54   2.218   1.165   9.191 -0.3211 -0.4041  1.1307
    1CHL1  H21C   55   2.364   1.098   9.101  0.0385 -1.1592 -0.7664
    1CHL1   C22   56   2.195   0.911   9.033  0.9083  0.0476 -0.9433
    1CHL1  H22A   57   2.282   0.908   8.964 -0.2418 -0.7932 -2.4000
    1CHL1  H22B   58   2.146   0.811   9.025  0.1076  0.4237 -0.8125
    1CHL1   C23   59   2.103   1.017   8.972  0.1841  0.6157  0.0799
    1CHL1  H23A   60   2.026   1.052   9.043  0.1023  3.2498 -1.2664
    1CHL1  H23B   61   2.168   1.106   8.956 -0.5487  0.7905 -2.2006
    1CHL1   C24   62   2.037   0.969   8.839  0.5131 -0.4751 -0.6211
    1CHL1  H24A   63   1.975   0.881   8.868 -0.0101 -0.4531 -1.6489
    1CHL1  H24B   64   1.969   1.054   8.818 -0.4166  0.0412  3.9255
    1CHL1   C25   65   2.128   0.922   8.726 -0.1498 -0.0579  0.3968
    1CHL1   H25   66   2.189   0.832   8.750 -2.0868 -1.6031 -0.3124
    1CHL1   C26   67   2.047   0.880   8.601  0.9588 -0.7794  0.3809
    1CHL1  H26A   68   2.002   0.972   8.557 -0.9410 -1.4542  0.8823
    1CHL1  H26B   69   2.117   0.819   8.540  1.4019 -1.4461  1.5411
    1CHL1  H26C   70   1.966   0.811   8.633 -0.3186  1.1518  1.4501
    1CHL1   C27   71   2.229   1.030   8.697  0.0597  0.5773  1.1506
    1CHL1  H27A   72   2.180   1.126   8.671 -0.7643  0.0439  0.7228
    1CHL1  H27B   73   2.300   1.044   8.782  0.5960  1.3911  0.5809
    1CHL1  H27C   74   2.295   1.004   8.612 -1.9286  0.4209 -0.3833
    2CHL1    C3   75   3.243   5.405  10.275 -0.1204 -0.6094  0.0777
    2CHL1    H3   76   3.216   5.504  10.317  0.3904 -0.9524  1.2385
    2CHL1    O3   77   3.249   5.324  10.394 -0.3834 -0.0088  0.2681
    2CHL1   H3'   78   3.249   5.232  10.367 -0.6011  0.3709 -1.0599
    2CHL1    C4   79   3.129   5.362  10.188  0.2769  0.5036  0.0254
    2CHL1   H4A   80   3.144   5.254  10.170 -0.3660  0.3220  0.5591
    2CHL1   H4B   81   3.045   5.376  10.259 -0.2865 -1.6394 -0.2025
    2CHL1    C5   82   3.114   5.428  10.056 -0.1855  0.1406  0.4878
    2CHL1    C6   83   3.007   5.494  10.025  0.1931 -0.1623  0.6040
    2CHL1    H6   84   2.921   5.479  10.092 -1.0633 -0.2675 -1.0171
    2CHL1    C7   85   2.988   5.565   9.894  0.6377  0.5697  0.6101
    2CHL1   H7A   86   2.897   5.528   9.842  1.7158 -1.0333 -0.1608
    2CHL1   H7B   87   2.982   5.674   9.916  2.0341  0.5801  0.9683
    2CHL1    C8   88   3.097   5.537   9.787 -0.7437  0.0477 -0.1376
    2CHL1    H8   89   3.062   5.445   9.735  0.3051 -0.0844 -0.6118
    2CHL1   C14   90   3.102   5.654   9.697 -0.4428  0.1554  0.5862
    2CHL1   H14   91   3.131   5.741   9.760  0.4730  1.6344 -1.8209
    2CHL1   C15   92   2.973   5.699   9.626  0.0962 -0.3331  0.2087
    2CHL1  H15A   93   2.908   5.615   9.592 -1.6716  0.5632  1.3176
    2CHL1  H15B   94   2.907   5.757   9.693 -0.7517  0.3212 -1.1709
    2CHL1   C16   95   3.015   5.778   9.504 -0.1401  0.2937  0.5410
    2CHL1  H16A   96   2.969   5.744   9.409 -1.9455  2.6977  0.5000
    2CHL1  H16B   97   2.991   5.886   9.518  1.3432  1.0170 -2.0969
    2CHL1   C17   98   3.176   5.770   9.499 -0.3240 -0.0171 -0.5627
    2CHL1   H17   99   3.211   5.860   9.554  0.4140  0.2261 -1.4328
    2CHL1   C13  100   3.205   5.643   9.585 -0.0947  0.1467  0.0914
    2CHL1   C18  101   3.178   5.516   9.498 -0.0437  0.8246  0.0079
    2CHL1  H18A  102   3.075   5.518   9.457 -0.4612 -0.0444  0.9965
    2CHL1  H18B  103   3.258   5.496   9.422  0.3434  2.3966 -0.0102
    2CHL1  H18C  104   3.185   5.425   9.562 -0.2247  0.8418  0.0507
    2CHL1   C12  105   3.343   5.628   9.650 -0.0811 -0.1129  0.2652
    2CHL1  H12A  106   3.422   5.620   9.572 -0.0556  2.2101  0.0438
    2CHL1  H12B  107   3.376   5.724   9.696 -0.5360 -0.0910  0.5499
    2CHL1   C11  108   3.342   5.512   9.746  0.1628  0.0675 -0.2806
    2CHL1  H11A  109   3.331   5.414   9.695  1.2868 -1.9427  3.2097
    2CHL1  H11B  110   3.444   5.516   9.791 -0.1292  2.2471  0.2544
    2CHL1    C9  111   3.234   5.527   9.853  0.0782 -0.0894  0.4385
    2CHL1    H9  112   3.256   5.627   9.897  0.2991  0.3235 -0.6058
    2CHL1   C10  113   3.247   5.432   9.973  0.3864  0.0335 -0.7039
    2CHL1   C19  114   3.264   5.289   9.915 -0.0220  1.0469  0.4157
    2CHL1  H19A  115   3.271   5.220  10.001  0.0256 -0.4221 -0.7583
    2CHL1  H19B  116   3.178   5.263   9.850  1.5610  0.1917 -1.3754
    2CHL1  H19C  117   3.357   5.288   9.855  0.3895  0.9089  1.0527
    2CHL1    C1  118   3.359   5.477  10.063 -0.0239 -0.2641  0.5355
    2CHL1   H1A  119   3.452   5.462  10.003 -1.5315 -1.8210 -1.4525
    2CHL1   H1B  120   3.346   5.586  10.081 -1.1740 -0.3629  0.2976
    2CHL1    C2  121   3.375   5.398  10.195  0.4926  0.3462 -0.4459
    2CHL1   H2A  122   3.461   5.452  10.239 -0.3670  0.8121  0.6633
    2CHL1   H2B  123   3.407   5.293  10.178  0.2328 -0.0667  1.5222
    2CHL1   C20  124   3.247   5.780   9.367 -0.0432 -0.8591 -0.6380
    2CHL1   H20  125   3.243   5.691   9.301  0.6963 -0.7307 -0.8675
    2CHL1   C21  126   3.399   5.810   9.386  0.5304  0.1288 -0.3054
    2CHL1  H21A  127   3.441   5.866   9.299  0.0370  0.6261 -0.2267
    2CHL1  H21B  128   3.460   5.718   9.387 -0.0240 -0.2376  0.0622
    2CHL1  H21C  129   3.418   5.875   9.474  1.1859 -1.5238  0.7989
    2CHL1   C22  130   3.185   5.886   9.267  0.2505  0.4902  0.0274
    2CHL1  H22A  131   3.075   5.881   9.270  0.3086 -0.1904  1.2034
    2CHL1  H22B  132   3.211   5.989   9.298  0.2476  0.1824  1.0595
    2CHL1   C23  133   3.228   5.873   9.115  0.4443 -0.5149  0.5126
    2CHL1  H23A  134   3.339   5.885   9.110  0.3912 -0.8244 -1.8118
    2CHL1  H23B  135   3.201   5.770   9.083  2.0475 -1.4246  1.9933
    2CHL1   C24  136   3.167   5.974   9.014  0.2774 -0.4288  0.8024
    2CHL1  H24A  137   3.059   5.984   9.041 -0.3729 -2.2135 -1.0515
    2CHL1  H24B  138   3.228   6.067   9.014  0.1881 -0.3719  0.1139
    2CHL1   C25  139   3.180   5.927   8.863 -0.1670  0.4187  0.3387
    2CHL1   H25  140   3.127   5.831   8.845  2.1436 -0.6331 -1.1521
    2CHL1   C26  141   3.105   6.016   8.761 -0.0006 -0.3699  0.0765
    2CHL1  H26A  142   3.108   6.126   8.775 -3.4689 -0.0561 -1.1178
    2CHL1  H26B  143   3.162   6.000   8.667  0.8532 -3.1335  1.0074
    2CHL1  H26C  144   3.007   5.973   8.731 -0.3653 -0.0754  0.8588
    2CHL1   C27  145   3.327   5.898   8.824 -0.3249 -0.4133 -0.4667
    2CHL1  H27A  146   3.389   5.989   8.835 -1.0404  0.4131 -2.9958
    2CHL1  H27B  147   3.377   5.818   8.882 -0.8703 -0.6409 -0.3070
    2CHL1  H27C  148   3.342   5.868   8.718  1.0947  1.0675 -0.7043
    3CHL1    C3  149   3.759   5.730  10.249  0.0364  0.2497  0.4834
    3CHL1    H3  150   3.816   5.812  10.299 -0.2239  0.1279  0.9828
    3CHL1    O3  151   3.692   5.661  10.350  0.5710 -0.3668  0.2866
    3CHL1   H3'  152   3.621   5.717  10.384 -1.0289 -0.9731 -1.9216
    3CHL1    C4  153   3.665   5.790  10.146  0.4892 -0.1834  0.0066
    3CHL1   H4A  154   3.585   5.713  10.134 -1.5054  1.5439  1.7823
    3CHL1   H4B  155   3.619   5.874  10.202 -1.2560 -0.3515 -1.1116
    3CHL1    C5  156   3.732   5.843  10.018  0.0238 -0.6706  0.5946
    3CHL1    C6  157   3.734   5.976   9.982  0.1294  0.0213  0.0772
    3CHL1    H6  158   3.672   6.049  10.035  0.1929  0.8314 -0.9615
    3CHL1    C7  159   3.806   6.040   9.857  0.4495  0.2208  0.1056
    3CHL1   H7A  160   3.750   6.121   9.804  0.8256 -0.3470 -1.1979
    3CHL1   H7B  161   3.907   6.082   9.876  0.1383  1.0286  0.0078
    3CHL1    C8  162   3.825   5.926   9.753 -0.4839  0.7135  0.2359
    3CHL1    H8  163   3.721   5.903   9.721 -0.8853  0.8372  1.4267
    3CHL1   C14  164   3.917   5.978   9.650  0.2005  0.2769  0.3820
    3CHL1   H14  165   4.018   5.989   9.695  1.8320 -0.4502 -2.9046
    3CHL1   C15  166   3.885   6.115   9.580 -0.4545 -0.0952  0.3115
    3CHL1  H15A  167   3.777   6.142   9.575  0.4269  3.4640 -0.7649
    3CHL1  H15B  168   3.928   6.199   9.638 -0.9274 -0.6265  1.4580
    3CHL1   C16  169   3.960   6.104   9.441  0.5088 -0.4249 -0.0935
    3CHL1  H16A  170   3.879   6.104   9.364 -0.5072  0.2147  0.9505
    3CHL1  H16B  171   4.028   6.189   9.421 -2.0429  1.2296 -2.1069
    3CHL1   C17  172   4.029   5.968   9.441  0.9373  0.1901 -0.1744
    3CHL1   H17  173   4.120   5.989   9.502 -0.6897  2.1328  1.6232
    3CHL1   C13  174   3.945   5.883   9.539 -0.5112 -0.0991  1.0125
    3CHL1   C18  175   3.813   5.847   9.469 -0.2137 -0.3183  0.0471
    3CHL1  H18A  176   3.765   5.935   9.421 -0.7434 -1.2235 -1.1051
    3CHL1  H18B  177   3.822   5.771   9.388 -0.2071  0.4145 -0.6533
    3CHL1  H18C  178   3.732   5.809   9.533  0.2132  0.4425  1.0503
    3CHL1   C12  179   4.013   5.763   9.598 -0.0283 -1.0495 -0.4311
    3CHL1  H12A  180   4.041   5.699   9.512  0.6211  1.8875 -2.4988
    3CHL1  H12B  181   4.112   5.792   9.641 -0.6402  0.2603  0.1376
    3CHL1   C11  182   3.927   5.703   9.704 -0.3076  0.3981  0.2958
    3CHL1  H11A  183   3.835   5.671   9.650 -0.8707  2.1621  0.1469
    3CHL1  H11B  184   3.960   5.608   9.749 -4.5080 -1.2797  0.0925
    3CHL1    C9  185   3.890   5.802   9.819  0.1313  0.1548  0.5033
    3CHL1    H9  186   3.991   5.835   9.852  0.1162  0.1561  0.5495
    3CHL1   C10  187   3.816   5.746   9.940  0.2901  0.1827 -0.1648
    3CHL1   C19  188   3.714   5.638   9.895 -0.5405  0.1937  0.5815
    3CHL1  H19A  189   3.647   5.682   9.817 -0.6472  0.0101  0.5709
    3CHL1  H19B  190   3.764   5.545   9.860  0.7069  1.2104 -0.3832
    3CHL1  H19C  191   3.664   5.587   9.979 -1.6635 -3.0424 -1.9329
    3CHL1    C1  192   3.913   5.691  10.050 -0.0088 -0.2434 -0.8517
    3CHL1   H1A  193   3.964   5.609   9.995 -2.5809 -1.5655 -1.3437
    3CHL1   H1B  194   3.988   5.763  10.092  0.7306 -2.9334  2.6980
    3CHL1    C2  195   3.857   5.632  10.180  0.0516  0.5066  0.4145
    3CHL1   H2A  196   3.937   5.592  10.246  1.4704  0.5501 -1.2409
    3CHL1   H2B  197   3.793   5.548  10.146  0.2691  0.5384 -0.0822
    3CHL1   C20  198   4.061   5.901   9.310  0.3253  0.1642  0.6477
    3CHL1   H20  199   4.033   5.794   9.312 -0.5038  0.4026  2.1763
    3CHL1   C21  200   4.220   5.923   9.295  0.0150 -0.3207 -0.3217
    3CHL1  H21A  201   4.253   5.879   9.198  0.9646 -1.0439  0.3199
    3CHL1  H21B  202   4.274   5.889   9.386  0.9874  1.1184 -0.3246
    3CHL1  H21C  203   4.248   6.030   9.284 -0.6861  0.1089  1.9264
    3CHL1   C22  204   3.986   5.957   9.187 -0.0031  0.4964  0.6299
    3CHL1  H22A  205   3.879   5.944   9.210  0.3600 -2.0278  0.9978
    3CHL1  H22B  206   4.013   6.063   9.164  0.0701  0.7288  1.7265
    3CHL1   C23  207   4.008   5.866   9.061  0.9271 -0.1494 -0.4951
    3CHL1  H23A  208   4.114   5.881   9.031  1.2079 -0.8887  0.1220
    3CHL1  H23B  209   3.990   5.758   9.075 -1.3414  0.0891 -1.4886
    3CHL1   C24  210   3.908   5.909   8.954 -0.4479 -0.1688 -0.6248
    3CHL1  H24A  211   3.814   5.943   9.002  0.1496  2.1835 -1.0493
    3CHL1  H24B  212   3.960   5.991   8.901  0.6606 -0.6628 -0.3102
    3CHL1   C25  213   3.876   5.797   8.859 -0.0570 -0.0429  1.0425
    3CHL1   H25  214   3.954   5.718   8.865  1.6790  1.5524 -0.1278
    3CHL1   C26  215   3.738   5.744   8.890  0.4109  0.0881  0.0515
    3CHL1  H26A  216   3.741   5.716   8.998  0.4104  0.4531  0.1459
    3CHL1  H26B  217   3.655   5.817   8.873 -1.8436 -1.9650  1.8438
    3CHL1  H26C  218   3.721   5.662   8.817  0.0498  1.4621 -1.4339
    3CHL1   C27  219   3.887   5.841   8.713  0.7403  0.2149 -0.2233
    3CHL1  H27A  220   3.990   5.863   8.679  0.7656  1.0397  0.3814
    3CHL1  H27B  221   3.841   5.762   8.649 -0.1371 -0.0584  0.7237
    3CHL1  H27C  222   3.824   5.931   8.700 -1.3561 -1.1944 -0.0930
    4CHL1    C3  223   2.958   0.425  10.543  0.4620  0.5401  0.1263
    4CHL1    H3  224   3.062   0.387  10.537  0.2014 -0.4490  1.4589
    4CHL1    O3  225   2.919   0.394  10.675 -0.1770  0.0321  0.0826
    4CHL1   H3'  226   2.927   0.299  10.687  1.5591  0.1137 -0.3532
    4CHL1    C4  227   2.930   0.575  10.514  0.5258  0.4904 -0.5416
    4CHL1   H4A  228   2.822   0.599  10.531  0.5945  1.2684 -1.2125
    4CHL1   H4B  229   2.989   0.625  10.593 -1.0422  0.6287  0.5839
    4CHL1    C5  230   2.964   0.592  10.372 -0.7299  0.4516 -0.8335
    4CHL1    C6  231   3.062   0.672  10.344 -1.5149 -0.4905  0.4121
    4CHL1    H6  232   3.110   0.734  10.421  0.3096 -0.9071 -0.3631
    4CHL1    C7  233   3.114   0.704  10.203  0.1841 -0.1647 -0.6811
    4CHL1   H7A  234   3.149   0.809  10.194  1.5618 -0.5332  0.2381
    4CHL1   H7B  235   3.208   0.644  10.198  0.7926  0.8031 -0.9415
    4CHL1    C8  236   3.013   0.662  10.095  0.2663  0.6271 -0.3413
    4CHL1    H8  237   2.923   0.726  10.087 -0.0665  0.0951 -0.8915
    4CHL1   C14  238   3.086   0.664   9.961 -0.1533  0.1146  0.3162
    4CHL1   H14  239   3.180   0.607   9.974  0.3242  0.5752 -1.1009
    4CHL1   C15  240   3.140   0.789   9.898 -0.1285  0.0450 -0.9900
    4CHL1  H15A  241   3.067   0.869   9.924  0.6513  0.1923  0.8190
    4CHL1  H15B  242   3.238   0.813   9.945  0.5874 -2.8440 -0.9121
    4CHL1   C16  243   3.145   0.768   9.746  0.4132 -0.6104  0.0392
    4CHL1  H16A  244   3.062   0.823   9.698  1.5187  1.1321  0.1012
    4CHL1  H16B  245   3.234   0.791   9.684  0.3970 -1.1669 -0.1997
    4CHL1   C17  246   3.097   0.622   9.722 -0.2946  0.0170 -0.3999
    4CHL1   H17  247   3.181   0.559   9.756  1.2233  1.8651 -0.6681
    4CHL1   C13  248   3.003   0.595   9.844 -0.1794 -0.1425  0.4104
    4CHL1   C18  249   2.863   0.669   9.834 -0.0581 -0.7085  0.5276
    4CHL1  H18A  250   2.874   0.778   9.813 -1.5728 -0.0997  2.7193
    4CHL1  H18B  251   2.792   0.628   9.759 -0.1124  1.3042 -0.5619
    4CHL1  H18C  252   2.820   0.656   9.935 -0.3897  0.9840  0.6139
    4CHL1   C12  253   2.991   0.447   9.879 -0.4124 -0.2701 -0.1480
    4CHL1  H12A  254   2.961   0.376   9.800  0.0913 -2.3322  1.4607
    4CHL1  H12B  255   3.097   0.421   9.898 -0.2445  0.8969  0.5964
    4CHL1   C11  256   2.919   0.433  10.014  0.4928 -0.6436 -0.1629
    4CHL1  H11A  257   2.813   0.456   9.991  0.2959 -1.8545 -0.4943
    4CHL1  H11B  258   2.919   0.326  10.046 -1.4893 -0.3772  0.7860
    4CHL1    C9  259   2.975   0.512  10.126 -0.2023  0.6851  0.6143
    4CHL1    H9  260   3.075   0.464  10.140 -0.0602  0.7004 -0.2954
    4CHL1   C10  261   2.897   0.496  10.259 -0.3394  0.3144 -0.0253
    4CHL1   C19  262   2.753   0.556  10.228  0.0728  0.3563  0.7435
    4CHL1  H19A  263   2.762   0.660  10.191 -0.3817 -0.3300 -1.3879
    4CHL1  H19B  264   2.692   0.487  10.164 -0.3252  0.7033  0.7525
    4CHL1  H19C  265   2.691   0.563  10.320 -1.3186 -0.3763 -0.1175
    4CHL1    C1  266   2.887   0.353  10.311  0.2574 -1.3533 -0.4557
    4CHL1   H1A  267   2.802   0.307  10.255 -0.2367 -1.4793  0.3896
    4CHL1   H1B  268   2.978   0.297  10.281  0.1073 -0.8800 -1.8279
    4CHL1    C2  269   2.863   0.339  10.465  0.4968  0.8492 -0.6709
    4CHL1   H2A  270   2.874   0.231  10.489  1.0991  1.2546  1.0032
    4CHL1   H2B  271   2.754   0.361  10.469  0.4534  0.4155  1.2632
    4CHL1   C20  272   3.064   0.572   9.582  0.0642 -0.2762  0.0953
    4CHL1   H20  273   3.015   0.472   9.588 -0.7340  0.1648  1.0964
    4CHL1   C21  274   3.196   0.552   9.506 -0.1790 -0.2590  0.2280
    4CHL1  H21A  275   3.262   0.489   9.570 -0.2267  1.4013  1.9504
    4CHL1  H21B  276   3.246   0.651   9.499 -0.9333  0.0464 -0.9416
    4CHL1  H21C  277   3.179   0.505   9.407  0.4397 -0.2550  0.1201
    4CHL1   C22  278   2.968   0.666   9.503  0.3278  0.1440  0.0827
    4CHL1  H22A  279   2.882   0.687   9.571  1.6573 -2.1483  2.5453
    4CHL1  H22B  280   3.015   0.762   9.473  2.3851 -0.6814  0.6343
    4CHL1   C23  281   2.910   0.599   9.381  0.3177  0.0569 -0.1735
    4CHL1  H23A  282   2.991   0.566   9.313  1.6421  1.7953  0.5035
    4CHL1  H23B  283   2.847   0.514   9.413  1.1977  0.6016  3.1766
    4CHL1   C24  284   2.801   0.687   9.308  0.0349 -0.0068  0.2120
    4CHL1  H24A  285   2.737   0.720   9.392  1.2871  0.4954  0.9880
    4CHL1  H24B  286   2.851   0.772   9.256 -0.8290  0.8504  0.7653
    4CHL1   C25  287   2.720   0.618   9.199 -0.2459 -0.4194  0.3371
    4CHL1   H25  288   2.653   0.697   9.157  2.2522  1.3126 -0.4980
    4CHL1   C26  289   2.809   0.587   9.081 -1.0201  0.4745  0.6047
    4CHL1  H26A  290   2.884   0.514   9.117  0.2802  0.2974 -2.3836
    4CHL1  H26B  291   2.746   0.542   9.001 -0.5196  1.6776 -0.4827
    4CHL1  H26C  292   2.865   0.675   9.044  0.4308 -0.9814 -0.7065
    4CHL1   C27  293   2.635   0.501   9.258 -0.5092  0.5914  0.1654
    4CHL1  H27A  294   2.557   0.475   9.184  1.8191 -0.9346 -1.8371
    4CHL1  H27B  295   2.700   0.413   9.277 -0.0811  0.5086 -1.5665
    4CHL1  H27C  296   2.586   0.533   9.352  0.8645 -0.2742  1.2007
    5CHL1    C3  297   4.049   5.146  10.199  0.7232  0.5601 -0.4176
    5CHL1    H3  298   3.939   5.157  10.191  0.7531  1.0072 -0.1938
    5CHL1    O3  299   4.074   5.102  10.335  0.2736 -0.0315  0.4884
    5CHL1   H3'  300   4.138   5.167  10.364  1.4031 -0.2215 -1.5054
    5CHL1    C4  301   4.098   5.033  10.105 -0.2908  0.0044 -0.6499
    5CHL1   H4A  302   4.202   5.015  10.139  0.0117  0.0706 -1.5074
    5CHL1   H4B  303   4.055   4.932  10.123 -1.6581  0.6408 -0.2808
    5CHL1    C5  304   4.100   5.069   9.955  0.1771  0.3693  0.3454
    5CHL1    C6  305   4.046   4.980   9.863  0.3144 -0.2142  0.3782
    5CHL1    H6  306   3.997   4.889   9.900  1.7718 -0.4993  1.6679
    5CHL1    C7  307   4.050   5.006   9.714 -0.2479 -0.3621  0.1116
    5CHL1   H7A  308   4.092   4.915   9.665  0.0662 -0.8941  1.3509
    5CHL1   H7B  309   3.950   5.017   9.666 -0.4654  0.2430  0.6975
    5CHL1    C8  310   4.134   5.135   9.674 -0.4630  0.1871 -0.4447
    5CHL1    H8  311   4.237   5.094   9.676 -0.2058  0.8516  1.1520
    5CHL1   C14  312   4.089   5.179   9.535  0.0318 -0.1517 -0.0553
    5CHL1   H14  313   3.985   5.216   9.550 -0.2104 -0.5533 -0.7177
    5CHL1   C15  314   4.072   5.073   9.423  0.3150 -0.1844  0.2772
    5CHL1  H15A  315   4.156   5.000   9.421  0.2073 -0.3012 -0.0434
    5CHL1  H15B  316   3.979   5.017   9.444 -0.6016  1.0342 -0.4786
    5CHL1   C16  317   4.048   5.164   9.300  1.0300  0.1510  0.4466
    5CHL1  H16A  318   4.115   5.133   9.217  0.5388  3.1288 -1.1168
    5CHL1  H16B  319   3.942   5.170   9.267  0.6926 -0.3390  1.4280
    5CHL1   C17  320   4.093   5.313   9.350  0.0416  0.8008 -0.1868
    5CHL1   H17  321   4.001   5.364   9.386 -1.7218 -1.4405 -1.3668
    5CHL1   C13  322   4.171   5.295   9.475  0.4523 -0.0291 -0.4255
    5CHL1   C18  323   4.319   5.237   9.443 -0.3153  0.1513 -0.8226
    5CHL1  H18A  324   4.327   5.166   9.357  1.7731  0.1416 -0.6419
    5CHL1  H18B  325   4.375   5.329   9.414  2.6206 -0.8729  1.3561
    5CHL1  H18C  326   4.375   5.205   9.533 -2.3448  0.6251  0.6242
    5CHL1   C12  327   4.162   5.407   9.588  0.3476 -0.5052  0.4202
    5CHL1  H12A  328   4.215   5.496   9.549 -1.2469  0.9035  1.4208
    5CHL1  H12B  329   4.056   5.436   9.603 -0.2128 -2.7018  0.9623
    5CHL1   C11  330   4.211   5.367   9.735  0.6205  0.7973  0.4580
    5CHL1  H11A  331   4.322   5.358   9.729  0.4983  0.8701 -2.3471
    5CHL1  H11B  332   4.183   5.442   9.812 -1.2373 -1.0534  1.6198
    5CHL1    C9  333   4.124   5.251   9.778 -0.4682  0.3259 -0.2350
    5CHL1    H9  334   4.020   5.290   9.775 -0.1800  1.0541 -1.1642
    5CHL1   C10  335   4.153   5.207   9.925 -0.5395  0.4345  0.3715
    5CHL1   C19  336   4.309   5.185   9.946 -0.0963  0.0425 -0.4498
    5CHL1  H19A  337   4.368   5.275   9.973  0.4335 -1.2831  3.1634
    5CHL1  H19B  338   4.333   5.118  10.032  0.3600  0.9916  0.1735
    5CHL1  H19C  339   4.363   5.152   9.854 -2.0205  1.0749 -1.9726
    5CHL1    C1  340   4.107   5.312  10.024  0.0505  0.0616 -0.0122
    5CHL1   H1A  341   4.169   5.403  10.015 -0.7122  0.4186 -1.8887
    5CHL1   H1B  342   4.000   5.336  10.003 -0.3416  0.9038  2.7106
    5CHL1    C2  343   4.115   5.276  10.170 -0.4728  0.1361 -0.0851
    5CHL1   H2A  344   4.084   5.355  10.242 -1.1855 -1.4188  1.3319
    5CHL1   H2B  345   4.226   5.273  10.171 -0.5257 -1.4988  1.2978
    5CHL1   C20  346   4.153   5.402   9.238 -0.4904  1.0158  0.4511
    5CHL1   H20  347   4.245   5.346   9.209 -1.8388 -1.1811  0.3148
    5CHL1   C21  348   4.170   5.545   9.293 -0.9285  0.2385  0.1046
    5CHL1  H21A  349   4.203   5.618   9.215  3.7300 -0.4193  1.3400
    5CHL1  H21B  350   4.261   5.551   9.356 -0.2122  0.4772 -0.9382
    5CHL1  H21C  351   4.078   5.577   9.346 -1.1172 -0.4528  0.1953
    5CHL1   C22  352   4.047   5.418   9.120  0.4788 -0.5628  0.2716
    5CHL1  H22A  353   4.005   5.318   9.098 -0.4241  0.0692 -0.9564
    5CHL1  H22B  354   3.965   5.483   9.157  1.0561  0.2662  0.1185
    5CHL1   C23  355   4.107   5.486   8.995  0.0211  0.3747 -0.1127
    5CHL1  H23A  356   4.021   5.490   8.925 -0.9543  0.2434  1.0720
    5CHL1  H23B  357   4.131   5.590   9.025 -0.2731  0.7393 -1.1288
    5CHL1   C24  358   4.226   5.407   8.933  0.7532  0.1305 -0.5979
    5CHL1  H24A  359   4.312   5.412   9.003  2.8387  0.9997 -3.1572
    5CHL1  H24B  360   4.201   5.298   8.925  1.3119 -0.0404 -0.0167
    5CHL1   C25  361   4.276   5.441   8.800 -0.4407  0.8018  0.2844
    5CHL1   H25  362   4.305   5.547   8.811 -1.3862  1.0308  0.6425
    5CHL1   C26  363   4.413   5.377   8.766  0.1816 -0.2985 -0.6940
    5CHL1  H26A  364   4.408   5.272   8.731  4.1124 -1.1792  1.0638
    5CHL1  H26B  365   4.459   5.426   8.678 -1.1171 -1.0785 -1.8198
    5CHL1  H26C  366   4.483   5.393   8.851 -1.5141  0.8865  0.5164
    5CHL1   C27  367   4.172   5.429   8.677  0.1176  0.0506 -0.1613
    5CHL1  H27A  368   4.090   5.500   8.701 -0.2413  0.0305 -1.3131
    5CHL1  H27B  369   4.220   5.468   8.585  0.5371 -0.6717 -0.2502
    5CHL1  H27C  370   4.141   5.323   8.668 -3.3026  1.1760 -2.1250
    6CHL1    C3  371   1.788   2.643  10.271 -0.1276 -0.4343 -0.3082
    6CHL1    H3  372   1.884   2.697  10.254 -1.6903  2.1280 -1.2873
    6CHL1    O3  373   1.768   2.615  10.405  0.0580 -0.0302 -0.5550
    6CHL1   H3'  374   1.714   2.535  10.406 -1.7317  1.1296 -0.7240
    6CHL1    C4  375   1.666   2.728  10.228  0.0481  0.7973  0.2938
    6CHL1   H4A  376   1.567   2.688  10.259  0.7086 -1.5039 -0.4079
    6CHL1   H4B  377   1.674   2.822  10.287 -1.2583  1.5093 -0.6552
    6CHL1    C5  378   1.668   2.749  10.074  0.6274 -0.5508  0.0560
    6CHL1    C6  379   1.655   2.872  10.031 -0.3533  0.4881 -0.6353
    6CHL1    H6  380   1.641   2.951  10.106  0.6727 -0.9129  1.0600
    6CHL1    C7  381   1.645   2.907   9.885 -0.5842  0.1088 -0.1797
    6CHL1   H7A  382   1.573   2.986   9.858 -0.2697  0.3061 -0.4503
    6CHL1   H7B  383   1.741   2.951   9.849  1.4152 -1.4706  2.9632
    6CHL1    C8  384   1.613   2.784   9.796 -0.1183 -0.2458 -0.0147
    6CHL1    H8  385   1.505   2.769   9.820 -0.8699 -0.5622 -3.3946
    6CHL1   C14  386   1.641   2.819   9.656 -0.1622 -0.2408  1.0102
    6CHL1   H14  387   1.750   2.837   9.653 -0.1476 -0.5254 -1.3631
    6CHL1   C15  388   1.578   2.946   9.597  0.3626  0.1672  0.4011
    6CHL1  H15A  389   1.474   2.963   9.631 -0.1330 -0.4095 -0.7850
    6CHL1  H15B  390   1.634   3.037   9.626 -1.5627  1.0034  1.5963
    6CHL1   C16  391   1.590   2.924   9.447 -0.1032 -0.2177  0.5898
    6CHL1  H16A  392   1.483   2.930   9.417  0.1821  0.5780 -0.2836
    6CHL1  H16B  393   1.667   2.992   9.404  0.8946 -1.4721  0.3479
    6CHL1   C17  394   1.648   2.780   9.424  1.0964 -0.8166  0.8841
    6CHL1   H17  395   1.758   2.793   9.417  0.8736  1.1902  0.8654
    6CHL1   C13  396   1.614   2.708   9.560 -0.0546 -0.3438 -0.0143
    6CHL1   C18  397   1.466   2.671   9.562  0.0470  1.1223 -0.2335
    6CHL1  H18A  398   1.450   2.578   9.505 -2.2456 -0.0289  2.1673
    6CHL1  H18B  399   1.432   2.636   9.662  0.5195 -0.9473 -0.7730
    6CHL1  H18C  400   1.389   2.747   9.537 -1.9944 -1.2889 -1.4389
    6CHL1   C12  401   1.702   2.591   9.596  0.4103 -1.0693  0.3932
    6CHL1  H12A  402   1.683   2.505   9.528 -0.5662  0.0182 -0.7170
    6CHL1  H12B  403   1.806   2.618   9.565 -0.1984 -1.1398 -1.8157
    6CHL1   C11  404   1.694   2.550   9.741  0.3773 -0.2391 -0.5717
    6CHL1  H11A  405   1.599   2.491   9.740  0.6561 -0.6884 -0.8741
    6CHL1  H11B  406   1.783   2.487   9.762  1.1655  0.3716 -2.0137
    6CHL1    C9  407   1.698   2.668   9.842  0.3422  0.1529  0.0492
    6CHL1    H9  408   1.801   2.709   9.837  0.3646  0.1102  0.1603
    6CHL1   C10  409   1.681   2.625   9.988  0.5974 -0.1646 -0.2472
    6CHL1   C19  410   1.548   2.543  10.011 -0.4452  0.5266  0.7548
    6CHL1  H19A  411   1.552   2.450   9.950  1.2453 -0.0150  1.6544
    6CHL1  H19B  412   1.527   2.524  10.118  2.3764 -0.7305  1.1257
    6CHL1  H19C  413   1.459   2.594   9.969  0.5690  0.1554 -1.9651
    6CHL1    C1  414   1.798   2.537  10.040  0.0428 -0.0219 -0.1422
    6CHL1   H1A  415   1.788   2.436   9.995 -0.1945  0.3183 -0.8734
    6CHL1   H1B  416   1.892   2.583  10.003 -0.6481  0.1001 -1.7838
    6CHL1    C2  417   1.803   2.513  10.190  0.1780 -0.1026  0.2941
    6CHL1   H2A  418   1.900   2.461  10.206  0.3098  0.2180  0.5312
    6CHL1   H2B  419   1.720   2.446  10.223  1.2600 -0.4795  2.2823
    6CHL1   C20  420   1.605   2.716   9.294 -0.1079 -0.1777  0.2959
    6CHL1   H20  421   1.497   2.689   9.294 -0.3657  0.8399 -0.2064
    6CHL1   C21  422   1.675   2.589   9.269 -0.1282 -1.0027  0.8447
    6CHL1  H21A  423   1.784   2.581   9.293 -0.1566  1.9050  2.1948
    6CHL1  H21B  424   1.657   2.547   9.168 -0.7548 -1.2229  1.0475
    6CHL1  H21C  425   1.627   2.518   9.339 -1.6713  0.7854  1.6540
    6CHL1   C22  426   1.638   2.817   9.184  0.3427 -0.2497 -0.0693
    6CHL1  H22A  427   1.615   2.773   9.085 -1.4494 -0.7206  0.5474
    6CHL1  H22B  428   1.564   2.898   9.199 -1.1650 -1.4762 -0.8023
    6CHL1   C23  429   1.780   2.862   9.160 -0.8743 -0.3194  0.1547
    6CHL1  H23A  430   1.808   2.942   9.232 -0.7855 -0.8814  0.7615
    6CHL1  H23B  431   1.841   2.771   9.184  0.3102 -0.0736 -1.8537
    6CHL1   C24  432   1.801   2.919   9.024 -0.3494  0.4269  1.2688
    6CHL1  H24A  433   1.785   2.842   8.946 -1.1768  0.2709  1.5842
    6CHL1  H24B  434   1.716   2.988   9.005 -0.8810 -0.0498  1.8737
    6CHL1   C25  435   1.942   2.979   8.993  0.2287  0.0023 -0.1359
    6CHL1   H25  436   1.962   3.068   9.056  0.0391 -0.2320  0.2529
    6CHL1   C26  437   2.051   2.881   9.021  0.0100 -0.2094 -0.4898
    6CHL1  H26A  438   2.064   2.863   9.130 -0.1335 -1.6636 -0.6959
    6CHL1  H26B  439   2.030   2.780   8.979  0.0049  0.4097 -1.9999
    6CHL1  H26C  440   2.144   2.922   8.978  0.4307  0.6128  1.1653
    6CHL1   C27  441   1.965   3.022   8.852 -0.2284 -0.2201 -0.1637
    6CHL1  H27A  442   2.064   3.069   8.835 -0.6560 -0.0778 -2.5133
    6CHL1  H27B  443   1.962   2.943   8.774  0.7000  0.0775 -0.5117
    6CHL1  H27C  444   1.894   3.100   8.817  1.1738  0.4192 -1.6548
    7CHL1    C3  445   5.406   5.982  10.510  0.0247 -0.0783 -0.5141
    7CHL1    H3  446   5.507   5.936  10.518  0.7778  1.9038  1.8352
    7CHL1    O3  447   5.354   6.010  10.644 -0.1258  0.5541  0.4327
    7CHL1   H3'  448   5.263   6.033  10.626  0.3867  0.9818 -1.7553
    7CHL1    C4  449   5.411   6.115  10.430  0.4276  0.2111  0.6854
    7CHL1   H4A  450   5.307   6.154  10.426  1.1707  2.0514 -2.3512
    7CHL1   H4B  451   5.476   6.188  10.482  1.0512  1.5585 -1.9077
    7CHL1    C5  452   5.455   6.099  10.284 -0.3191  0.4293 -0.2934
    7CHL1    C6  453   5.560   6.164  10.230  0.5018 -0.8686 -0.0052
    7CHL1    H6  454   5.617   6.224  10.303  1.5377 -2.3859  0.4677
    7CHL1    C7  455   5.597   6.158  10.086 -0.3648 -0.6955  0.2311
    7CHL1   H7A  456   5.617   6.262  10.051  0.5066 -0.8473  0.2744
    7CHL1   H7B  457   5.680   6.087  10.068 -2.3383 -3.0640  0.2916
    7CHL1    C8  458   5.484   6.088  10.002 -0.3627  0.2788 -0.1425
    7CHL1    H8  459   5.408   6.168   9.988 -1.1250 -0.7084 -1.7259
    7CHL1   C14  460   5.551   6.047   9.873  0.0534  0.0556  0.3432
    7CHL1   H14  461   5.610   5.956   9.898  1.3767  0.2027 -2.1563
    7CHL1   C15  462   5.638   6.152   9.793 -0.8103  0.0432  0.2430
    7CHL1  H15A  463   5.610   6.259   9.804  1.3633  0.4488  2.0570
    7CHL1  H15B  464   5.746   6.138   9.813 -1.0134 -1.8983  0.1531
    7CHL1   C16  465   5.604   6.118   9.642  0.1681  0.3457 -0.0779
    7CHL1  H16A  466   5.557   6.211   9.602  1.0192  0.6336 -0.4260
    7CHL1  H16B  467   5.697   6.118   9.581  2.0761  0.4438  2.7573
    7CHL1   C17  468   5.516   5.991   9.644 -0.7604 -0.5728 -0.0861
    7CHL1   H17  469   5.583   5.904   9.657 -1.6832 -0.8900  2.8678
    7CHL1   C13  470   5.440   6.002   9.775  0.4334  0.4311 -0.8127
    7CHL1   C18  471   5.321   6.102   9.757 -0.5387 -0.2694 -0.3110
    7CHL1  H18A  472   5.260   6.091   9.664 -0.3357 -1.1594 -0.3454
    7CHL1  H18B  473   5.238   6.094   9.831  0.6569 -0.7688  0.9999
    7CHL1  H18C  474   5.353   6.208   9.757 -0.5829 -0.2467  2.0327
    7CHL1   C12  475   5.391   5.865   9.830 -0.0862  0.3272  0.5671
    7CHL1  H12A  476   5.308   5.828   9.767 -2.5871  1.6630  2.9848
    7CHL1  H12B  477   5.473   5.790   9.826 -0.4126 -0.0350  0.7201
    7CHL1   C11  478   5.337   5.874   9.976  0.8538  0.7104  0.2557
    7CHL1  H11A  479   5.231   5.909   9.971  1.1255  1.2597 -2.4241
    7CHL1  H11B  480   5.346   5.774  10.024 -0.7028 -0.4598 -1.7912
    7CHL1    C9  481   5.423   5.963  10.068  0.0505 -0.1588  0.4828
    7CHL1    H9  482   5.508   5.896  10.093 -0.5881 -1.0827  0.2165
    7CHL1   C10  483   5.364   5.997  10.204  0.4853  0.0774  0.5692
    7CHL1   C19  484   5.230   6.072  10.177 -0.7681  0.5213 -0.8187
    7CHL1  H19A  485   5.178   6.099  10.271 -0.5088 -2.2817  0.1789
    7CHL1  H19B  486   5.248   6.161  10.112  1.1611 -0.1959 -1.2945
    7CHL1  H19C  487   5.162   5.995  10.135 -0.8750 -0.5454  1.2728
    7CHL1    C1  488   5.353   5.863  10.284 -0.3407  0.0912 -0.4258
    7CHL1   H1A  489   5.270   5.801  10.243 -0.9213 -0.2383  1.2363
    7CHL1   H1B  490   5.450   5.810  10.285 -0.1202  0.4136 -2.3983
    7CHL1    C2  491   5.310   5.884  10.432  0.2892  0.1067  0.4602
    7CHL1   H2A  492   5.307   5.784  10.482  0.4915 -0.4674 -0.6714
    7CHL1   H2B  493   5.208   5.927  10.430  0.8779  1.4501 -2.1205
    7CHL1   C20  494   5.444   5.964   9.512 -0.3113  0.2643 -0.7268
    7CHL1   H20  495   5.353   6.027   9.505  1.1125  2.6740  1.2774
    7CHL1   C21  496   5.407   5.818   9.511 -0.0714 -0.2010  0.6657
    7CHL1  H21A  497   5.361   5.790   9.414  2.3988  0.6379 -0.7954
    7CHL1  H21B  498   5.326   5.796   9.584  1.3178  0.1530  2.3434
    7CHL1  H21C  499   5.495   5.754   9.536 -0.1338 -0.7961 -0.5813
    7CHL1   C22  500   5.534   5.992   9.389 -0.1904 -0.3254 -0.4425
    7CHL1  H22A  501   5.572   6.097   9.386 -0.0127 -0.2643  2.7394
    7CHL1  H22B  502   5.617   5.918   9.385  0.8616  0.7432  1.0943
    7CHL1   C23  503   5.456   5.985   9.255 -0.3402 -0.3983 -0.0261
    7CHL1  H23A  504   5.412   5.884   9.243 -0.0076 -0.4829 -0.5495
    7CHL1  H23B  505   5.367   6.052   9.252  0.2310  0.4113  0.7505
    7CHL1   C24  506   5.540   6.010   9.124 -0.4840  0.6377 -0.1713
    7CHL1  H24A  507   5.597   6.105   9.131 -2.4975  1.8899 -0.3393
    7CHL1  H24B  508   5.621   5.934   9.118  0.4386  1.3658  2.3318
    7CHL1   C25  509   5.472   6.004   8.992  0.8637 -0.1480 -0.3366
    7CHL1   H25  510   5.441   5.898   8.984 -1.3577  0.4624 -0.3916
    7CHL1   C26  511   5.347   6.090   8.979 -0.0955  0.4495 -0.0567
    7CHL1  H26A  512   5.280   6.082   9.067 -0.7600  0.5997 -0.5467
    7CHL1  H26B  513   5.367   6.199   8.972 -0.2484  0.2884 -3.5026
    7CHL1  H26C  514   5.302   6.062   8.881 -2.6240 -0.2299  1.2489
    7CHL1   C27  515   5.567   6.023   8.880 -0.2232 -0.4320  0.1283
    7CHL1  H27A  516   5.650   5.950   8.891 -2.3114 -3.0036 -0.6542
    7CHL1  H27B  517   5.524   6.002   8.779 -1.4873  1.2602  0.3036
    7CHL1  H27C  518   5.616   6.123   8.876  2.0183 -1.5471 -1.7036
    8CHL1    C3  519   5.239   0.832  10.275  0.4149  0.3409  0.0694
    8CHL1    H3  520   5.268   0.935  10.303 -0.5977  0.1717  1.8033
    8CHL1    O3  521   5.191   0.772  10.395 -0.7202 -0.8839  0.1304
    8CHL1   H3'  522   5.111   0.813  10.428  0.0351 -1.1345  2.3833
    8CHL1    C4  523   5.132   0.829  10.166 -0.2558 -0.2701  0.3910
    8CHL1   H4A  524   5.099   0.723  10.164 -2.0968  0.2893 -0.2557
    8CHL1   H4B  525   5.042   0.883  10.203 -0.2320  0.3215 -0.4152
    8CHL1    C5  526   5.160   0.885  10.025  0.8363  0.6805  0.3623
    8CHL1    C6  527   5.085   0.979   9.963 -0.5053  0.2268 -0.2664
    8CHL1    H6  528   5.002   1.024  10.020 -0.0721  3.4273 -2.0679
    8CHL1    C7  529   5.106   1.012   9.818  0.1694  0.1538  0.3180
    8CHL1   H7A  530   5.014   0.993   9.759 -0.4826  3.2756  0.2265
    8CHL1   H7B  531   5.118   1.122   9.804  0.8324  0.2083  1.2369
    8CHL1    C8  532   5.215   0.930   9.752  0.4341  0.1833 -0.1197
    8CHL1    H8  533   5.174   0.835   9.711 -1.1615  0.1675  1.4686
    8CHL1   C14  534   5.273   0.997   9.631  0.2705 -0.0500 -0.5983
    8CHL1   H14  535   5.322   1.087   9.674 -1.9876  0.2170  1.5494
    8CHL1   C15  536   5.173   1.038   9.527 -0.2772  0.3066  0.5929
    8CHL1  H15A  537   5.105   0.951   9.522  1.7839 -1.2617 -0.8507
    8CHL1  H15B  538   5.115   1.131   9.547 -0.7409  0.9488 -3.2507
    8CHL1   C16  539   5.261   1.059   9.399  0.3912 -0.5386  0.4154
    8CHL1  H16A  540   5.217   1.002   9.315  0.4833 -1.1413  0.7698
    8CHL1  H16B  541   5.256   1.166   9.371  0.9201 -1.2101 -2.3322
    8CHL1   C17  542   5.404   1.019   9.433  0.6673  0.1725  0.9977
    8CHL1   H17  543   5.459   1.107   9.473  0.4918  1.0432 -0.6397
    8CHL1   C13  544   5.389   0.927   9.557  0.8477  0.3179  1.1303
    8CHL1   C18  545   5.341   0.787   9.518 -0.5663  0.1074 -0.4610
    8CHL1  H18A  546   5.326   0.719   9.605  1.6840  0.7584  0.4833
    8CHL1  H18B  547   5.247   0.802   9.461 -0.3852 -1.4897 -1.1869
    8CHL1  H18C  548   5.413   0.741   9.447 -0.2432 -0.3555  0.1663
    8CHL1   C12  549   5.506   0.922   9.651  0.4663  0.0332  0.3488
    8CHL1  H12A  550   5.585   0.854   9.613 -0.5420 -0.9067 -0.0698
    8CHL1  H12B  551   5.551   1.024   9.661 -1.1538  0.8076 -0.1791
    8CHL1   C11  552   5.460   0.857   9.790 -0.1639 -0.4682  0.3774
    8CHL1  H11A  553   5.452   0.748   9.770  0.0045 -0.5037  0.5085
    8CHL1  H11B  554   5.547   0.873   9.857  1.2843  0.0365 -1.5597
    8CHL1    C9  555   5.327   0.910   9.854 -0.2984 -0.6148  0.3396
    8CHL1    H9  556   5.365   1.005   9.897  1.9495 -1.2843 -0.0957
    8CHL1   C10  557   5.289   0.822   9.976 -0.3717 -0.7047 -0.0703
    8CHL1   C19  558   5.254   0.676   9.933 -0.0139  0.6053 -1.2154
    8CHL1  H19A  559   5.349   0.624   9.908  0.6299  0.7816  0.7272
    8CHL1  H19B  560   5.192   0.614  10.001  0.0345  0.7132 -1.0694
    8CHL1  H19C  561   5.185   0.683   9.846 -2.7733 -1.0997  0.7406
    8CHL1    C1  562   5.403   0.817  10.092  0.5324  0.0089  0.2404
    8CHL1   H1A  563   5.492   0.769  10.047 -0.6399 -1.7793 -0.2189
    8CHL1   H1B  564   5.425   0.925  10.105  2.5812 -0.5054  1.1646
    8CHL1    C2  565   5.364   0.762  10.226 -0.4357  0.4484  0.4893
    8CHL1   H2A  566   5.446   0.771  10.300 -0.5884 -0.2764  0.7491
    8CHL1   H2B  567   5.334   0.656  10.208  0.5408  0.3016 -0.3161
    8CHL1   C20  568   5.482   0.972   9.307  0.0350  0.2050 -0.3953
    8CHL1   H20  569   5.444   0.875   9.268  3.3169 -1.3909  0.1607
    8CHL1   C21  570   5.631   0.950   9.351  0.2584  0.6676 -0.3536
    8CHL1  H21A  571   5.647   0.844   9.379 -1.2625  0.4498 -0.2870
    8CHL1  H21B  572   5.662   1.015   9.436 -0.4162  2.1893 -1.2544
    8CHL1  H21C  573   5.694   0.981   9.265 -0.4590  0.1804 -1.0568
    8CHL1   C22  574   5.464   1.077   9.190 -0.0514 -0.2543 -0.2739
    8CHL1  H22A  575   5.357   1.084   9.159  0.1424 -0.9222 -1.1225
    8CHL1  H22B  576   5.508   1.177   9.213 -0.4285 -0.2554  0.4667
    8CHL1   C23  577   5.537   1.031   9.058  0.1103 -0.0723 -0.6856
    8CHL1  H23A  578   5.645   1.019   9.080 -0.1115  1.6905  1.5557
    8CHL1  H23B  579   5.511   0.929   9.023 -1.0766  0.0985 -0.2997
    8CHL1   C24  580   5.510   1.135   8.945  0.5000  0.0173  0.5643
    8CHL1  H24A  581   5.400   1.134   8.928  0.8227 -1.3298 -1.5678
    8CHL1  H24B  582   5.545   1.235   8.978 -0.8387  1.0967 -1.2346
    8CHL1   C25  583   5.576   1.103   8.802 -0.6272 -0.0268 -0.1918
    8CHL1   H25  584   5.533   1.006   8.768 -0.2142 -0.2523 -0.0735
    8CHL1   C26  585   5.543   1.213   8.696  0.3650  0.0239 -0.6266
    8CHL1  H26A  586   5.598   1.305   8.725  0.8094 -0.7769  1.1294
    8CHL1  H26B  587   5.566   1.168   8.597  0.6503  1.3386 -1.1652
    8CHL1  H26C  588   5.434   1.235   8.692 -0.1626 -1.6527  2.7620
    8CHL1   C27  589   5.729   1.086   8.823  0.4882 -0.1682  0.2949
    8CHL1  H27A  590   5.766   1.163   8.894  0.3355  1.2992 -1.1735
    8CHL1  H27B  591   5.755   0.986   8.865  0.8991  0.0368  0.5403
    8CHL1  H27C  592   5.790   1.093   8.730 -0.0524 -0.6229 -0.0966
    9CHL1    C3  593   1.229   3.989  10.097  0.5087  0.4052  1.3633
    9CHL1    H3  594   1.325   4.044  10.100 -0.3500  2.2139 -1.5779
    9CHL1    O3  595   1.161   3.990  10.223 -0.0596 -0.1424  0.0964
    9CHL1   H3'  596   1.085   4.045  10.203 -1.1244 -2.0358 -1.2829
    9CHL1    C4  597   1.135   4.056   9.994 -0.3871 -0.7480  0.1405
    9CHL1   H4A  598   1.031   4.022  10.015 -1.0414  1.8673  1.3326
    9CHL1   H4B  599   1.140   4.164  10.021  1.5978 -0.9146  0.5079
    9CHL1    C5  600   1.181   4.037   9.855  0.1473  0.3650  0.2289
    9CHL1    C6  601   1.205   4.141   9.770 -0.1997  0.5350  0.0243
    9CHL1    H6  602   1.213   4.241   9.815 -0.6127 -0.7949  3.2508
    9CHL1    C7  603   1.237   4.122   9.626  0.3979  0.2405 -0.3722
    9CHL1   H7A  604   1.187   4.201   9.567  0.2396 -0.6448 -1.4298
    9CHL1   H7B  605   1.344   4.139   9.600  0.6296 -1.1321 -0.3809
    9CHL1    C8  606   1.199   3.984   9.569  0.1562  0.6948  0.3115
    9CHL1    H8  607   1.089   3.979   9.550  0.3882 -0.1453 -0.8637
    9CHL1   C14  608   1.259   3.964   9.434 -0.1338 -0.5685  0.4872
    9CHL1   H14  609   1.366   3.970   9.463 -0.7912 -1.5854  3.2310
    9CHL1   C15  610   1.234   4.068   9.328 -0.2286  0.1197  0.5543
    9CHL1  H15A  611   1.124   4.084   9.323  0.0122  1.1329 -2.6854
    9CHL1  H15B  612   1.285   4.159   9.364  0.8639 -0.0732 -0.4872
    9CHL1   C16  613   1.278   4.006   9.197  0.0717  0.2849  0.2985
    9CHL1  H16A  614   1.192   4.000   9.126  1.6360 -0.9575 -1.5514
    9CHL1  H16B  615   1.345   4.083   9.154  0.3313 -0.7210 -1.1349
    9CHL1   C17  616   1.330   3.858   9.236 -0.9669 -0.8356 -0.0814
    9CHL1   H17  617   1.440   3.859   9.248 -0.7713 -0.9446 -1.7180
    9CHL1   C13  618   1.253   3.824   9.371 -0.6103  0.3262 -1.0601
    9CHL1   C18  619   1.111   3.781   9.335  0.5254 -0.0995 -0.0343
    9CHL1  H18A  620   1.114   3.687   9.275  0.9931  0.6766 -1.2358
    9CHL1  H18B  621   1.052   3.764   9.428  2.2476 -1.9822  0.7436
    9CHL1  H18C  622   1.063   3.853   9.265  0.2283  0.6594  0.9366
    9CHL1   C12  623   1.318   3.719   9.463 -0.1559  0.4462 -0.5339
    9CHL1  H12A  624   1.321   3.616   9.422 -0.8909 -0.6170  1.9822
    9CHL1  H12B  625   1.423   3.754   9.470 -0.8218  2.2751  0.6559
    9CHL1   C11  626   1.253   3.724   9.602 -0.7863  0.8012 -0.2822
    9CHL1  H11A  627   1.149   3.688   9.616 -0.6142 -0.5030 -2.1599
    9CHL1  H11B  628   1.309   3.653   9.666 -1.6759  1.1214  0.8804
    9CHL1    C9  629   1.253   3.871   9.664  0.2050 -0.0447  0.4681
    9CHL1    H9  630   1.361   3.892   9.674  0.2259 -0.7557  1.8906
    9CHL1   C10  631   1.197   3.885   9.810  0.3087 -0.1079 -0.3306
    9CHL1   C19  632   1.054   3.828   9.816 -0.0553  0.2508  0.2668
    9CHL1  H19A  633   1.043   3.717   9.812 -1.0574  0.3977 -3.6730
    9CHL1  H19B  634   1.008   3.834   9.917  0.9947  2.7905  0.6277
    9CHL1  H19C  635   0.989   3.878   9.742 -0.3247  1.6194  1.4130
    9CHL1    C1  636   1.296   3.813   9.911 -0.5755 -0.3443 -0.2026
    9CHL1   H1A  637   1.290   3.704   9.892 -1.2552 -0.1981 -0.8737
    9CHL1   H1B  638   1.400   3.848   9.892 -0.6458 -0.4614 -0.8097
    9CHL1    C2  639   1.262   3.840  10.060  0.7364  0.0611 -0.3724
    9CHL1   H2A  640   1.346   3.800  10.121  0.4440  0.1925  0.1199
    9CHL1   H2B  641   1.167   3.788  10.083 -0.3753  1.4741 -1.6050
    9CHL1   C20  642   1.331   3.759   9.110 -0.1250  0.1161 -0.1953
    9CHL1   H20  643   1.222   3.750   9.090  0.1212 -0.6012 -1.2418
    9CHL1   C21  644   1.390   3.624   9.154  0.2863  0.7903  0.4077
    9CHL1  H21A  645   1.320   3.570   9.221 -2.1011  2.3288 -0.7912
    9CHL1  H21B  646   1.482   3.636   9.216  2.3129 -0.3700 -2.2795
    9CHL1  H21C  647   1.400   3.556   9.067 -1.6054  0.8441  0.1329
    9CHL1   C22  648   1.409   3.816   8.981  0.6544  0.8122 -0.3385
    9CHL1  H22A  649   1.373   3.917   8.950  0.0055  0.5300 -0.5097
    9CHL1  H22B  650   1.512   3.837   9.018  1.4552 -3.4633  0.0989
    9CHL1   C23  651   1.398   3.718   8.864 -0.3231 -0.5751  0.3558
    9CHL1  H23A  652   1.466   3.633   8.887 -2.0836 -2.0774  0.1507
    9CHL1  H23B  653   1.291   3.693   8.852 -0.6622  0.9004  0.1719
    9CHL1   C24  654   1.433   3.787   8.735  0.3799 -0.8743 -0.1708
    9CHL1  H24A  655   1.358   3.868   8.728  0.7963 -0.4115  0.6646
    9CHL1  H24B  656   1.538   3.822   8.738  0.5638 -1.2864 -1.5292
    9CHL1   C25  657   1.404   3.705   8.608 -0.8273  0.0363  0.6466
    9CHL1   H25  658   1.298   3.671   8.614 -0.4043 -1.2674  0.9099
    9CHL1   C26  659   1.425   3.782   8.480  0.1762 -0.0313  0.8404
    9CHL1  H26A  660   1.521   3.838   8.481  0.2955 -0.2548  2.3334
    9CHL1  H26B  661   1.410   3.724   8.386  0.9364  1.0218  0.0449
    9CHL1  H26C  662   1.357   3.870   8.478 -0.6148 -0.6080 -3.3574
    9CHL1   C27  663   1.493   3.575   8.594  0.8187 -1.0608 -0.6164
    9CHL1  H27A  664   1.592   3.617   8.621 -0.0563 -0.4279  1.6859
    9CHL1  H27B  665   1.465   3.508   8.677 -1.9008 -1.2833 -1.6653
    9CHL1  H27C  666   1.482   3.535   8.491  2.1658  0.9260 -1.5629
   10CHL1    C3  667   0.682   0.890  10.078 -0.4419  0.0606 -0.4243
   10CHL1    H3  668   0.704   0.783  10.060  1.0037  0.6281 -2.1862
   10CHL1    O3  669   0.723   0.932  10.203  0.1184 -0.0001 -0.1864
   10CHL1   H3'  670   0.675   0.871  10.261 -1.1620 -0.0888 -1.3187
   10CHL1    C4  671   0.748   0.980   9.972  0.3640  0.1481 -0.8755
   10CHL1   H4A  672   0.732   1.089   9.988  3.2333  0.9611 -3.0994
   10CHL1   H4B  673   0.859   0.977   9.972  0.5481  3.9392  0.0605
   10CHL1    C5  674   0.705   0.945   9.837 -0.4071  0.1338  0.5596
   10CHL1    C6  675   0.798   0.909   9.747 -0.4292  0.1165 -0.4387
   10CHL1    H6  676   0.905   0.909   9.772 -0.3737  0.8276 -0.6469
   10CHL1    C7  677   0.763   0.876   9.608 -0.4840 -0.3785  0.4523
   10CHL1   H7A  678   0.834   0.932   9.544  1.4109 -1.3184  1.6760
   10CHL1   H7B  679   0.770   0.766   9.595  1.1561  0.0008 -2.2621
   10CHL1    C8  680   0.624   0.919   9.570  0.5284  0.3149  0.3976
   10CHL1    H8  681   0.623   1.030   9.565  1.2754  0.4033  1.8154
   10CHL1   C14  682   0.591   0.866   9.437 -0.0193 -0.5546  0.7382
   10CHL1   H14  683   0.578   0.756   9.443 -0.7081 -0.5992 -1.2286
   10CHL1   C15  684   0.699   0.881   9.325 -0.0381  0.1837  0.4945
   10CHL1  H15A  685   0.741   0.984   9.324  0.4843 -0.0349 -0.3694
   10CHL1  H15B  686   0.774   0.801   9.339 -1.1142 -1.1495 -1.2247
   10CHL1   C16  687   0.610   0.852   9.207 -0.0883  0.3029 -0.8029
   10CHL1  H16A  688   0.642   0.926   9.130  1.5626  0.3862 -0.0657
   10CHL1  H16B  689   0.639   0.750   9.175 -1.2753 -0.1170 -0.5434
   10CHL1   C17  690   0.456   0.850   9.239 -0.6446 -0.4200  0.6024
   10CHL1   H17  691   0.426   0.745   9.257 -0.1108 -0.8784 -1.1113
   10CHL1   C13  692   0.450   0.917   9.380 -0.0336  0.5820 -0.0302
   10CHL1   C18  693   0.458   1.070   9.358 -0.1657  0.0575 -0.8182
   10CHL1  H18A  694   0.364   1.115   9.321 -0.9450 -0.9970 -0.1496
   10CHL1  H18B  695   0.486   1.121   9.453  1.9324  0.0303 -1.3845
   10CHL1  H18C  696   0.546   1.087   9.292  1.1615 -0.4071  0.7849
   10CHL1   C12  697   0.340   0.869   9.485  0.2200 -0.6265 -0.4032
   10CHL1  H12A  698   0.239   0.901   9.451  0.9016  2.1058  0.0073
   10CHL1  H12B  699   0.330   0.759   9.485 -1.5074 -0.4823 -0.4211
   10CHL1   C11  700   0.368   0.928   9.626  0.1193 -0.4857  0.6360
   10CHL1  H11A  701   0.355   1.037   9.610 -0.1217  0.1306  4.5879
   10CHL1  H11B  702   0.300   0.876   9.696 -0.3404  0.7188  1.0869
   10CHL1    C9  703   0.512   0.891   9.670  0.5020  0.3380 -0.4526
   10CHL1    H9  704   0.512   0.781   9.685  2.7715  0.3212 -0.3887
   10CHL1   C10  705   0.553   0.953   9.813  0.0991  0.2592  0.0355
   10CHL1   C19  706   0.520   1.106   9.825 -0.1931 -1.2033 -0.4311
   10CHL1  H19A  707   0.572   1.166   9.749  0.2042 -0.4901  0.3945
   10CHL1  H19B  708   0.413   1.136   9.821  0.1350  0.0838  0.2469
   10CHL1  H19C  709   0.544   1.142   9.928 -2.4658  0.0541 -0.3063
   10CHL1    C1  710   0.474   0.873   9.926 -0.9107 -0.2131 -0.2139
   10CHL1   H1A  711   0.366   0.897   9.923 -0.6437  1.0040 -0.2151
   10CHL1   H1B  712   0.468   0.763   9.910 -3.3253  0.0816 -1.5513
   10CHL1    C2  713   0.527   0.909  10.063  0.6341 -0.0410 -0.2992
   10CHL1   H2A  714   0.490   0.849  10.148 -0.8935 -0.2791 -1.1155
   10CHL1   H2B  715   0.509   1.017  10.086 -0.5633  0.3384 -2.8551
   10CHL1   C20  716   0.372   0.899   9.121  0.6201 -0.0096  0.0432
   10CHL1   H20  717   0.419   0.997   9.098  1.4377 -0.6203 -0.9539
   10CHL1   C21  718   0.222   0.918   9.169  0.1419  0.3175  0.0600
   10CHL1  H21A  719   0.156   0.946   9.085  2.3131  2.8278 -0.8964
   10CHL1  H21B  720   0.216   0.998   9.247 -1.4791  1.2365 -0.9815
   10CHL1  H21C  721   0.183   0.824   9.212  3.0364 -1.1305 -0.3339
   10CHL1   C22  722   0.367   0.803   9.003 -0.5656 -0.7508 -0.1793
   10CHL1  H22A  723   0.469   0.765   8.979 -0.5580 -0.2397 -0.9976
   10CHL1  H22B  724   0.319   0.712   9.045 -0.2102 -0.6656  0.4182
   10CHL1   C23  725   0.301   0.859   8.878 -0.7353 -0.2070 -0.8222
   10CHL1  H23A  726   0.198   0.889   8.904 -0.6750  0.4449 -1.3338
   10CHL1  H23B  727   0.360   0.951   8.863 -3.0782  1.9071  2.3092
   10CHL1   C24  728   0.315   0.764   8.758 -0.2727  0.3010 -0.2830
   10CHL1  H24A  729   0.424   0.757   8.737 -0.0526 -0.8025  1.1082
   10CHL1  H24B  730   0.275   0.664   8.786  1.5499 -0.0693  1.1322
   10CHL1   C25  731   0.242   0.810   8.627  0.7161 -0.4163  0.0999
   10CHL1   H25  732   0.142   0.853   8.651  1.9382  1.8684  1.3535
   10CHL1   C26  733   0.317   0.924   8.553 -0.8383 -0.0444  0.1876
   10CHL1  H26A  734   0.302   1.020   8.607 -0.3011  1.2316 -1.9027
   10CHL1  H26B  735   0.427   0.907   8.550 -0.5748  1.7264 -0.3004
   10CHL1  H26C  736   0.264   0.939   8.457  0.3425 -1.7089 -0.7554
   10CHL1   C27  737   0.232   0.694   8.529 -0.0667  0.2573  0.4870
   10CHL1  H27A  738   0.335   0.662   8.503 -0.3219 -1.1318  1.1505
   10CHL1  H27B  739   0.171   0.610   8.567  2.0246 -1.8273 -0.6906
   10CHL1  H27C  740   0.183   0.727   8.435 -1.4072 -1.7153  0.4644
   11CHL1    C3  741   3.179   4.332  10.129 -0.1156  0.0771  0.5927
   11CHL1    H3  742   3.188   4.440  10.152  1.7147 -0.2662  1.5598
   11CHL1    O3  743   3.134   4.266  10.243  0.2524 -0.2209  0.4852
   11CHL1   H3'  744   3.209   4.227  10.288  1.6903  1.4072 -0.4360
   11CHL1    C4  745   3.074   4.316  10.015  0.4732  0.1985 -0.5005
   11CHL1   H4A  746   3.044   4.210  10.008 -0.2263  0.4387 -1.2729
   11CHL1   H4B  747   2.985   4.367  10.059  0.7019  0.6331 -0.5413
   11CHL1    C5  748   3.112   4.374   9.881  1.0607 -0.6982  0.4174
   11CHL1    C6  749   3.042   4.463   9.813 -0.2070 -0.4032  0.9019
   11CHL1    H6  750   2.951   4.503   9.861  0.0755  1.7125 -0.2888
   11CHL1    C7  751   3.077   4.527   9.681  0.2413 -0.4133 -0.4311
   11CHL1   H7A  752   2.992   4.525   9.611 -0.7442 -0.7395  0.7462
   11CHL1   H7B  753   3.104   4.634   9.696 -2.9722  0.8024 -2.9686
   11CHL1    C8  754   3.191   4.445   9.611 -0.0878 -0.4427  1.4115
   11CHL1    H8  755   3.143   4.353   9.574  1.8145 -1.1428  0.6034
   11CHL1   C14  756   3.248   4.528   9.498 -0.8820 -0.8539  0.0347
   11CHL1   H14  757   3.302   4.616   9.539 -2.6265 -0.0455  0.6052
   11CHL1   C15  758   3.150   4.593   9.399 -0.0437  0.1636  0.0393
   11CHL1  H15A  759   3.076   4.522   9.356  1.2948 -1.9915  1.1822
   11CHL1  H15B  760   3.099   4.676   9.452 -1.4714 -0.0071 -1.0389
   11CHL1   C16  761   3.242   4.633   9.287  0.4696  0.6140 -0.1845
   11CHL1  H16A  762   3.178   4.620   9.197 -1.8172 -1.9280  1.7361
   11CHL1  H16B  763   3.262   4.742   9.298  0.5437  0.4872  1.0013
   11CHL1   C17  764   3.381   4.562   9.299  0.7847 -0.1594 -0.4187
   11CHL1   H17  765   3.449   4.640   9.338 -1.2876  2.6311 -2.1859
   11CHL1   C13  766   3.356   4.457   9.415  0.1695  0.0019 -0.3153
   11CHL1   C18  767   3.312   4.323   9.354 -0.6942  0.0298  0.2203
   11CHL1  H18A  768   3.226   4.325   9.283 -2.0242  1.2215  1.8225
   11CHL1  H18B  769   3.393   4.260   9.312  0.1867  2.3232 -1.6340
   11CHL1  H18C  770   3.271   4.260   9.436 -2.1373  0.2714 -0.2948
   11CHL1   C12  771   3.477   4.430   9.510 -0.3781  0.3477  0.5115
   11CHL1  H12A  772   3.550   4.363   9.460 -1.3046 -0.7151  0.5747
   11CHL1  H12B  773   3.519   4.528   9.543 -1.8030  0.8807  0.7606
   11CHL1   C11  774   3.433   4.349   9.636 -0.3577  0.2783 -0.1925
   11CHL1  H11A  775   3.416   4.244   9.603 -0.5057  1.1351 -3.0459
   11CHL1  H11B  776   3.522   4.335   9.701 -1.5934  2.0097  1.9375
   11CHL1    C9  777   3.308   4.411   9.708 -0.3737 -0.1027  0.2395
   11CHL1    H9  778   3.342   4.512   9.741 -0.8123 -0.5863  2.2346
   11CHL1   C10  779   3.258   4.330   9.837  0.0946 -0.5853  0.1610
   11CHL1   C19  780   3.254   4.183   9.790  0.7819  0.7636  0.5381
   11CHL1  H19A  781   3.201   4.189   9.692  2.9695  1.0795 -0.6511
   11CHL1  H19B  782   3.351   4.131   9.779  0.7842  0.6829  0.9531
   11CHL1  H19C  783   3.189   4.121   9.856 -1.2832 -0.4443 -2.5154
   11CHL1    C1  784   3.360   4.348   9.956 -0.3892  0.1688  0.2094
   11CHL1   H1A  785   3.466   4.321   9.937 -0.4918  0.6050 -1.0326
   11CHL1   H1B  786   3.359   4.458   9.970 -0.4922  0.0340  1.2362
   11CHL1    C2  787   3.317   4.282  10.098 -0.1073  0.0714  0.2443
   11CHL1   H2A  788   3.393   4.313  10.174 -1.2816  1.4198  0.9015
   11CHL1   H2B  789   3.319   4.172  10.083 -1.1520 -0.0957  1.2493
   11CHL1   C20  790   3.434   4.518   9.162 -0.3669  0.4298 -0.2401
   11CHL1   H20  791   3.369   4.433   9.133  2.4324 -1.7020 -0.4796
   11CHL1   C21  792   3.574   4.475   9.169 -0.0765  0.7853 -0.5124
   11CHL1  H21A  793   3.593   4.413   9.259 -1.2992  3.8976  2.0025
   11CHL1  H21B  794   3.641   4.561   9.191  1.6903 -0.9310  0.9275
   11CHL1  H21C  795   3.600   4.412   9.081  0.0161 -0.8714  0.6745
   11CHL1   C22  796   3.410   4.623   9.052  0.0541 -0.0995  0.2065
   11CHL1  H22A  797   3.303   4.644   9.034 -0.0207 -1.5663 -1.1169
   11CHL1  H22B  798   3.444   4.715   9.104 -1.0917 -0.5332  1.7621
   11CHL1   C23  799   3.467   4.590   8.913 -0.4863  0.1345 -0.1502
   11CHL1  H23A  800   3.578   4.593   8.924 -0.4216 -1.6783 -0.1476
   11CHL1  H23B  801   3.429   4.488   8.894 -0.6769  0.5738 -2.1777
   11CHL1   C24  802   3.435   4.700   8.812 -0.0608 -0.9006  0.0019
   11CHL1  H24A  803   3.327   4.702   8.787  0.3152 -0.3297 -1.7019
   11CHL1  H24B  804   3.455   4.798   8.859 -0.1901 -1.5749  1.4768
   11CHL1   C25  805   3.505   4.692   8.679  0.5542  0.7759 -0.3940
   11CHL1   H25  806   3.606   4.652   8.705  0.0476 -1.5649 -1.8527
   11CHL1   C26  807   3.428   4.589   8.591 -0.0272 -0.3350 -0.2961
   11CHL1  H26A  808   3.480   4.572   8.495 -0.7752 -0.7478 -0.6303
   11CHL1  H26B  809   3.411   4.490   8.640 -1.0501 -0.3476 -0.6654
   11CHL1  H26C  810   3.333   4.638   8.563 -0.6293 -1.3370 -0.0439
   11CHL1   C27  811   3.517   4.828   8.610  0.0304  0.0845 -0.4509
   11CHL1  H27A  812   3.414   4.862   8.585  0.3195  0.2550 -1.4404
   11CHL1  H27B  813   3.571   4.894   8.682  1.9237 -1.7304 -0.1560
   11CHL1  H27C  814   3.585   4.817   8.522  1.0157 -0.5055  0.3688
   12CHL1    C3  815   5.894   0.508  10.319 -0.1533 -0.9701  0.6529
   12CHL1    H3  816   5.928   0.610  10.290 -0.5439 -0.8205  0.7108
   12CHL1    O3  817   5.902   0.496  10.458 -0.1400 -0.4961 -0.3633
   12CHL1   H3'  818   5.868   0.409  10.482  1.6404 -1.0913  0.1146
   12CHL1    C4  819   5.755   0.476  10.275  0.0278  0.6674 -0.3462
   12CHL1   H4A  820   5.729   0.377  10.319 -0.5083 -0.2811 -2.6953
   12CHL1   H4B  821   5.666   0.527  10.317 -1.6845 -0.6081 -2.3238
   12CHL1    C5  822   5.752   0.475  10.123 -0.2263 -0.5038  0.1329
   12CHL1    C6  823   5.675   0.559  10.059  0.5347 -0.8088  0.3971
   12CHL1    H6  824   5.598   0.620  10.108  1.7287  1.9211 -0.9750
   12CHL1    C7  825   5.644   0.545   9.913 -0.2532 -0.7010  0.2701
   12CHL1   H7A  826   5.537   0.522   9.894  0.1993  0.1765 -3.9753
   12CHL1   H7B  827   5.668   0.644   9.869  2.4308 -0.7649  1.4648
   12CHL1    C8  828   5.716   0.419   9.844 -0.1095  0.5486  0.5808
   12CHL1    H8  829   5.654   0.332   9.872 -2.8395  1.3495 -2.5725
   12CHL1   C14  830   5.711   0.426   9.697  0.1285 -0.0619  0.8665
   12CHL1   H14  831   5.745   0.529   9.671 -0.4624 -0.0791  0.0301
   12CHL1   C15  832   5.568   0.438   9.636 -0.1439  0.2443 -0.4357
   12CHL1  H15A  833   5.510   0.353   9.678 -1.1098  1.4353  0.6877
   12CHL1  H15B  834   5.519   0.536   9.656 -0.1757 -0.1305  1.4992
   12CHL1   C16  835   5.605   0.425   9.487  0.0283 -0.3113  0.1027
   12CHL1  H16A  836   5.538   0.350   9.440  0.1862 -0.2039 -0.2990
   12CHL1  H16B  837   5.597   0.518   9.427 -1.0243 -0.6384 -0.2880
   12CHL1   C17  838   5.749   0.367   9.480  0.9045  0.0946  0.3303
   12CHL1   H17  839   5.817   0.453   9.462  1.5252 -0.3951  0.3305
   12CHL1   C13  840   5.792   0.316   9.623  0.6401 -0.0445  0.9136
   12CHL1   C18  841   5.725   0.181   9.647  0.9496  0.6217 -0.0910
   12CHL1  H18A  842   5.628   0.166   9.594 -0.2362 -0.7086  2.3771
   12CHL1  H18B  843   5.776   0.085   9.623 -2.8701 -1.5859  0.2119
   12CHL1  H18C  844   5.708   0.166   9.756 -0.1829 -0.8669 -0.4473
   12CHL1   C12  845   5.940   0.329   9.664 -0.0214  0.3460  0.6153
   12CHL1  H12A  846   6.001   0.251   9.614 -3.3911 -0.7470 -2.0077
   12CHL1  H12B  847   5.980   0.427   9.630  1.3182 -0.6105 -0.5792
   12CHL1   C11  848   5.953   0.314   9.814  0.5585 -0.4363  0.2454
   12CHL1  H11A  849   5.948   0.209   9.850  3.7356 -0.1964  1.5272
   12CHL1  H11B  850   6.054   0.348   9.846  2.0426  0.9353 -5.3231
   12CHL1    C9  851   5.849   0.400   9.897 -0.0719  0.0813  0.2614
   12CHL1    H9  852   5.894   0.501   9.889 -0.7837  0.3168 -0.9351
   12CHL1   C10  853   5.854   0.382  10.056  0.0274 -0.3670  0.8714
   12CHL1   C19  854   5.813   0.237  10.083 -0.4900  0.0350 -0.3392
   12CHL1  H19A  855   5.874   0.164  10.024 -0.8543 -1.0798  0.6425
   12CHL1  H19B  856   5.818   0.218  10.192  3.5626 -0.0674 -0.4341
   12CHL1  H19C  857   5.720   0.204  10.033 -0.5397  0.0821 -0.2765
   12CHL1    C1  858   5.998   0.412  10.110 -0.2212 -0.0500 -0.1868
   12CHL1   H1A  859   6.058   0.323  10.080 -0.7457  0.3574 -2.5301
   12CHL1   H1B  860   6.042   0.508  10.077  0.6988 -0.7632 -1.0840
   12CHL1    C2  861   6.002   0.411  10.260 -0.2148 -0.0103 -0.5967
   12CHL1   H2A  862   6.101   0.445  10.297 -0.9124  1.0834  0.2560
   12CHL1   H2B  863   5.993   0.308  10.302 -1.7224  0.4225  0.1657
   12CHL1   C20  864   5.773   0.271   9.365  0.1867  0.2209 -0.2196
   12CHL1   H20  865   5.736   0.172   9.401  1.6460 -0.7205 -1.2392
   12CHL1   C21  866   5.922   0.259   9.324  0.3927  0.5724 -0.0491
   12CHL1  H21A  867   5.978   0.198   9.398 -3.0259 -0.4126  1.8109
   12CHL1  H21B  868   5.967   0.358   9.300 -1.2923  1.0756 -1.1997
   12CHL1  H21C  869   5.920   0.210   9.224 -1.1326 -1.9103  1.1692
   12CHL1   C22  870   5.691   0.301   9.239 -0.0060 -0.0482  0.0124
   12CHL1  H22A  871   5.721   0.226   9.163  1.8170  2.1752 -1.5648
   12CHL1  H22B  872   5.582   0.301   9.255 -0.1953  0.0696 -1.2326
   12CHL1   C23  873   5.728   0.432   9.165 -0.1027 -0.0117 -0.3447
   12CHL1  H23A  874   5.705   0.516   9.234  2.5816  0.5036 -0.0112
   12CHL1  H23B  875   5.839   0.431   9.152  0.2375 -0.4545  2.2690
   12CHL1   C24  876   5.661   0.441   9.032  0.1627  0.2030  0.5844
   12CHL1  H24A  877   5.676   0.348   8.973 -2.4436 -0.9050  1.5998
   12CHL1  H24B  878   5.552   0.429   9.045  0.3042 -2.8827 -0.5147
   12CHL1   C25  879   5.708   0.557   8.947 -0.0606  0.3064 -0.1577
   12CHL1   H25  880   5.625   0.567   8.873 -0.2160  3.2495  0.3708
   12CHL1   C26  881   5.704   0.691   9.016  0.2608  0.0412  0.3792
   12CHL1  H26A  882   5.607   0.693   9.069  0.6848  0.1764  1.1595
   12CHL1  H26B  883   5.788   0.682   9.089 -0.8619 -0.1931  1.6468
   12CHL1  H26C  884   5.730   0.785   8.963 -0.4849 -0.0020 -0.0650
   12CHL1   C27  885   5.843   0.535   8.876  0.0912  0.1582 -0.0168
   12CHL1  H27A  886   5.924   0.533   8.952 -1.0667 -1.1004  1.1993
   12CHL1  H27B  887   5.840   0.434   8.831 -2.1204  0.3664 -0.3601
   12CHL1  H27C  888   5.847   0.619   8.802  0.2232  0.7192  0.6204
   13CHL1    C3  889   4.824   1.739   9.828 -1.2873  0.2687  0.0685
   13CHL1    H3  890   4.733   1.771   9.774 -0.5022  0.9164 -0.9039
   13CHL1    O3  891   4.775   1.673   9.944  0.5065 -0.8813  0.0599
   13CHL1   H3'  892   4.840   1.672  10.014 -0.2540  1.0619  0.8204
   13CHL1    C4  893   4.886   1.642   9.718 -0.0679 -0.1970 -0.8301
   13CHL1   H4A  894   4.971   1.585   9.762 -1.5201 -1.7483  0.0293
   13CHL1   H4B  895   4.801   1.576   9.691 -0.9761 -0.1322  1.6798
   13CHL1    C5  896   4.929   1.714   9.594 -0.0044 -0.0940 -0.3355
   13CHL1    C6  897   4.883   1.673   9.476  0.0399 -0.2840  0.9293
   13CHL1    H6  898   4.824   1.580   9.472  0.3541 -0.4599  0.1238
   13CHL1    C7  899   4.915   1.737   9.341 -0.1438 -0.1203 -0.2264
   13CHL1   H7A  900   4.934   1.658   9.265 -1.6244 -1.9965  1.3104
   13CHL1   H7B  901   4.826   1.798   9.316  0.0682  0.7562  1.1508
   13CHL1    C8  902   5.035   1.830   9.360 -0.2380 -0.3276  1.4967
   13CHL1    H8  903   5.132   1.776   9.370  0.2389  0.4789  1.2878
   13CHL1   C14  904   5.039   1.924   9.237  0.2551  0.1056 -0.0184
   13CHL1   H14  905   4.947   1.985   9.234 -0.0223 -0.2322  1.4262
   13CHL1   C15  906   5.034   1.858   9.099  0.4580 -0.0940 -0.9927
   13CHL1  H15A  907   5.098   1.769   9.080  1.7457  0.9457 -1.6062
   13CHL1  H15B  908   4.934   1.816   9.072 -0.5066  1.3237  0.2873
   13CHL1   C16  909   5.073   1.976   9.009  0.0807 -0.5062  0.1317
   13CHL1  H16A  910   5.150   1.943   8.936 -1.8305 -0.7775 -1.8375
   13CHL1  H16B  911   4.989   2.002   8.941 -1.3764 -2.1377  1.2603
   13CHL1   C17  912   5.125   2.090   9.101 -0.2534 -0.8821  0.1317
   13CHL1   H17  913   5.036   2.156   9.099  1.2496  1.1592 -1.7608
   13CHL1   C13  914   5.143   2.030   9.235 -0.6162 -0.3928  0.3082
   13CHL1   C18  915   5.281   1.961   9.237 -0.4664  0.0284 -0.4861
   13CHL1  H18A  916   5.302   1.912   9.140 -2.1478 -2.5469  0.4177
   13CHL1  H18B  917   5.350   2.048   9.248 -0.5253 -0.0381  0.4732
   13CHL1  H18C  918   5.296   1.888   9.319 -1.5844  0.8097  0.4295
   13CHL1   C12  919   5.131   2.128   9.346  0.3822  0.2272 -0.7205
   13CHL1  H12A  920   5.211   2.202   9.366  0.7167 -0.4265  0.4198
   13CHL1  H12B  921   5.036   2.185   9.337 -0.3964 -1.1746 -1.6781
   13CHL1   C11  922   5.121   2.048   9.479 -0.3883  0.4166  0.8425
   13CHL1  H11A  923   5.222   2.023   9.516 -0.1455  0.1775  0.0254
   13CHL1  H11B  924   5.079   2.119   9.553 -1.2715 -1.7470  2.4856
   13CHL1    C9  925   5.014   1.922   9.481  0.3770  0.1011 -0.6861
   13CHL1    H9  926   4.918   1.976   9.465  0.2817  0.1054 -0.1171
   13CHL1   C10  927   5.012   1.840   9.611  0.3430  0.1488  0.5085
   13CHL1   C19  928   5.154   1.799   9.654 -0.5229 -0.4338 -0.4446
   13CHL1  H19A  929   5.151   1.743   9.750  0.4941  0.0223 -0.1380
   13CHL1  H19B  930   5.226   1.750   9.584 -0.7143 -1.6510  0.1952
   13CHL1  H19C  931   5.208   1.894   9.676 -1.0262  0.1153 -1.5734
   13CHL1    C1  932   4.942   1.929   9.725 -0.0406  1.2795 -0.2922
   13CHL1   H1A  933   4.991   2.026   9.747  1.7840  0.3362 -0.0880
   13CHL1   H1B  934   4.839   1.942   9.685 -0.0598 -1.2432 -1.1663
   13CHL1    C2  935   4.914   1.860   9.862 -0.1751 -0.0313  0.2362
   13CHL1   H2A  936   4.861   1.936   9.923 -0.1005  0.2360 -0.0250
   13CHL1   H2B  937   5.015   1.845   9.905  2.1186  0.5785 -4.5526
   13CHL1   C20  938   5.233   2.171   9.031 -0.6988  0.5421 -0.1193
   13CHL1   H20  939   5.322   2.110   9.009 -1.5130 -0.6908 -0.0424
   13CHL1   C21  940   5.269   2.286   9.116  0.0790  0.3994  0.4427
   13CHL1  H21A  941   5.178   2.332   9.160 -0.0739  1.7027 -1.2000
   13CHL1  H21B  942   5.337   2.361   9.071  1.1607 -0.3934  0.7244
   13CHL1  H21C  943   5.328   2.249   9.203  0.2485 -0.2135  0.0708
   13CHL1   C22  944   5.178   2.211   8.888 -0.5613 -0.3608  0.1707
   13CHL1  H22A  945   5.175   2.122   8.822 -2.1000 -0.0198 -0.2589
   13CHL1  H22B  946   5.071   2.240   8.895 -0.2487  1.1030 -0.8122
   13CHL1   C23  947   5.259   2.318   8.809 -0.6471  0.3919 -0.7151
   13CHL1  H23A  948   5.208   2.344   8.714 -1.0496  0.3716 -0.5060
   13CHL1  H23B  949   5.267   2.415   8.862  1.3148  0.2812 -0.7494
   13CHL1   C24  950   5.399   2.268   8.775 -0.3694  0.3711  0.3013
   13CHL1  H24A  951   5.466   2.265   8.863 -0.4292 -1.4353  0.3043
   13CHL1  H24B  952   5.395   2.162   8.741  0.6791  0.3523  0.2195
   13CHL1   C25  953   5.464   2.348   8.661  0.8802 -0.2274 -0.3460
   13CHL1   H25  954   5.413   2.324   8.565  0.8027 -0.8169 -0.1605
   13CHL1   C26  955   5.459   2.494   8.682 -0.4742  0.4699 -0.1187
   13CHL1  H26A  956   5.513   2.558   8.609  1.2304 -0.2131  0.5146
   13CHL1  H26B  957   5.353   2.528   8.684 -1.2510 -1.6024 -3.1923
   13CHL1  H26C  958   5.509   2.515   8.779  2.4219  1.3614 -1.7394
   13CHL1   C27  959   5.611   2.307   8.640  0.3961 -0.6052  0.6847
   13CHL1  H27A  960   5.669   2.368   8.567 -0.1085 -0.7015  0.2001
   13CHL1  H27B  961   5.670   2.315   8.734  2.1520  0.3990 -0.4735
   13CHL1  H27C  962   5.615   2.201   8.606 -2.4011 -0.9974  1.4689
   14CHL1    C3  963   4.859   5.040  10.573 -0.0557 -0.6625  0.5322
   14CHL1    H3  964   4.841   4.937  10.537  1.8483 -1.3124  1.3432
   14CHL1    O3  965   4.883   5.047  10.713  0.4800  0.1515 -0.3107
   14CHL1   H3'  966   4.865   5.137  10.741  0.8864  1.1400 -3.0574
   14CHL1    C4  967   4.984   5.097  10.511 -0.3301  0.2471 -0.1077
   14CHL1   H4A  968   5.016   5.190  10.563  2.4042  0.2664 -1.7191
   14CHL1   H4B  969   5.068   5.027  10.529  0.5088  0.9654 -1.1141
   14CHL1    C5  970   4.966   5.114  10.360 -0.2064 -0.2987  0.2148
   14CHL1    C6  971   5.049   5.058  10.272 -0.3359  0.2270 -0.5454
   14CHL1    H6  972   5.134   4.998  10.308 -0.1073  1.8246  1.6770
   14CHL1    C7  973   5.044   5.074  10.120  0.6835 -0.1729  0.6118
   14CHL1   H7A  974   5.139   5.105  10.072  0.2604  0.4584  0.1674
   14CHL1   H7B  975   5.015   4.977  10.074  1.1206  1.0407 -2.3548
   14CHL1    C8  976   4.940   5.187  10.081 -0.1157  0.0006 -0.0605
   14CHL1    H8  977   4.986   5.288  10.089  0.0246  0.2005 -3.0997
   14CHL1   C14  978   4.915   5.165   9.931 -0.0958  0.0657  0.4586
   14CHL1   H14  979   4.878   5.060   9.931  0.2064 -0.0585  2.4762
   14CHL1   C15  980   5.035   5.171   9.836 -0.5336 -0.1131  0.7211
   14CHL1  H15A  981   5.096   5.264   9.838 -0.6602  0.0168 -0.8345
   14CHL1  H15B  982   5.105   5.086   9.847  2.8247  2.3267 -0.7727
   14CHL1   C16  983   4.967   5.175   9.697  0.0706 -0.3563 -0.6492
   14CHL1  H16A  984   5.015   5.255   9.637 -0.1586  1.6237  1.7434
   14CHL1  H16B  985   4.972   5.087   9.628  0.1312 -1.4494  0.7323
   14CHL1   C17  986   4.815   5.203   9.725 -0.0350 -0.7682  0.1200
   14CHL1   H17  987   4.767   5.103   9.731  1.5571 -1.4992  1.1352
   14CHL1   C13  988   4.806   5.253   9.867 -0.5517 -0.1528 -0.0847
   14CHL1   C18  989   4.850   5.401   9.874 -0.3921  0.8886 -0.5533
   14CHL1  H18A  990   4.881   5.435   9.975  2.2746  0.1875 -1.1144
   14CHL1  H18B  991   4.936   5.417   9.806 -0.7858 -2.0259 -1.8218
   14CHL1  H18C  992   4.759   5.458   9.845 -1.7444 -1.1904 -0.5566
   14CHL1   C12  993   4.672   5.235   9.948 -0.1851 -0.9292 -0.4287
   14CHL1  H12A  994   4.595   5.308   9.915 -2.0199 -2.5476  0.2224
   14CHL1  H12B  995   4.637   5.131   9.931 -2.0067 -0.7415  1.9393
   14CHL1   C11  996   4.692   5.252  10.099  0.2097 -0.0620  0.2450
   14CHL1  H11A  997   4.703   5.361  10.119 -1.9656 -0.0598  1.5674
   14CHL1  H11B  998   4.604   5.219  10.157  0.1060 -0.0412  0.0990
   14CHL1    C9  999   4.813   5.175  10.164  0.5998  0.0647 -0.2696
   14CHL1    H9 1000   4.777   5.071  10.153 -1.0052  0.7083 -1.4106
   14CHL1   C10 1001   4.838   5.192  10.316 -0.5571  0.2516  1.0762
   14CHL1   C19 1002   4.861   5.333  10.358 -0.3826  0.2800  0.2775
   14CHL1  H19A 1003   4.930   5.391  10.293  1.3925  0.1633  2.0241
   14CHL1  H19B 1004   4.766   5.390  10.354  0.4037  1.5388 -1.0557
   14CHL1  H19C 1005   4.905   5.349  10.459 -4.8534  1.0769  2.2105
   14CHL1    C1 1006   4.715   5.130  10.392 -0.2993  0.6389 -0.5457
   14CHL1   H1A 1007   4.621   5.186  10.371 -1.0842  0.0261  1.2548
   14CHL1   H1B 1008   4.685   5.026  10.366 -0.6337  0.9877 -1.5924
   14CHL1    C2 1009   4.740   5.128  10.540 -0.1310 -0.5315  0.5210
   14CHL1   H2A 1010   4.645   5.098  10.590  0.8095 -1.6195  1.7035
   14CHL1   H2B 1011   4.757   5.233  10.570 -0.8511 -0.6818  1.4899
   14CHL1   C20 1012   4.755   5.292   9.603 -0.2832 -0.7955 -0.1261
   14CHL1   H20 1013   4.813   5.386   9.595  0.9919 -1.6128 -0.7272
   14CHL1   C21 1014   4.603   5.314   9.625 -0.0951  0.7059  0.3445
   14CHL1  H21A 1015   4.561   5.375   9.543 -0.5414  0.8479  0.6806
   14CHL1  H21B 1016   4.571   5.374   9.712 -1.2147 -0.2921  0.6346
   14CHL1  H21C 1017   4.554   5.215   9.637  0.8846 -0.0316 -1.5830
   14CHL1   C22 1018   4.784   5.217   9.471  0.2554 -1.0791 -0.6109
   14CHL1  H22A 1019   4.893   5.230   9.454  0.3980 -1.8310 -0.2622
   14CHL1  H22B 1020   4.761   5.109   9.477  0.3246 -0.9820  1.8587
   14CHL1   C23 1021   4.716   5.277   9.354 -0.6115 -0.0817  0.7978
   14CHL1  H23A 1022   4.606   5.266   9.359 -0.6154  0.4253  1.9179
   14CHL1  H23B 1023   4.747   5.383   9.347 -0.3260 -0.2177 -0.0807
   14CHL1   C24 1024   4.775   5.204   9.229 -0.0000 -0.3302 -0.0428
   14CHL1  H24A 1025   4.882   5.234   9.229 -0.6228  2.0777 -0.2187
   14CHL1  H24B 1026   4.768   5.094   9.237  0.7522 -0.3065  1.0058
   14CHL1   C25 1027   4.701   5.254   9.101 -0.0273 -0.5793 -0.2208
   14CHL1   H25 1028   4.678   5.360   9.123 -2.0655 -0.5072 -2.4098
   14CHL1   C26 1029   4.795   5.257   8.978 -0.5042  0.2197 -0.2489
   14CHL1  H26A 1030   4.732   5.277   8.889 -2.3441 -0.4368  0.8981
   14CHL1  H26B 1031   4.872   5.336   8.993  0.4960 -0.7878  0.0611
   14CHL1  H26C 1032   4.845   5.159   8.963 -0.5517  0.5066 -2.5006
   14CHL1   C27 1033   4.568   5.189   9.069 -0.6424  0.9834  0.3915
   14CHL1  H27A 1034   4.563   5.084   9.104 -2.7991  0.5818 -1.0080
   14CHL1  H27B 1035   4.488   5.243   9.124 -1.0845  1.5212 -0.7526
   14CHL1  H27C 1036   4.557   5.186   8.958 -0.3571 -0.3759  0.3922
   15CHL1    C3 1037   4.464   4.156  10.167  0.1741  0.5968 -0.0553
   15CHL1    H3 1038   4.365   4.154  10.117 -0.3244 -0.2368  0.9574
   15CHL1    O3 1039   4.444   4.126  10.306 -0.0078  0.5785  0.4716
   15CHL1   H3' 1040   4.527   4.154  10.344 -1.5334  1.5817  3.2328
   15CHL1    C4 1041   4.546   4.039  10.101 -0.6197  0.1868  0.1242
   15CHL1   H4A 1042   4.639   4.026  10.160 -1.3498 -3.3165  0.6414
   15CHL1   H4B 1043   4.483   3.949  10.119 -3.2825  1.7576 -1.0478
   15CHL1    C5 1044   4.579   4.066   9.955 -0.5211  0.1450  0.5715
   15CHL1    C6 1045   4.538   3.982   9.860 -0.8225 -0.7269 -0.0788
   15CHL1    H6 1046   4.494   3.883   9.883 -1.4326 -0.4165  0.1127
   15CHL1    C7 1047   4.555   4.005   9.716  0.7491  0.4909 -0.1869
   15CHL1   H7A 1048   4.598   3.919   9.661 -0.9385 -1.1888  1.0609
   15CHL1   H7B 1049   4.456   4.030   9.671  0.7738 -0.3115 -0.6954
   15CHL1    C8 1050   4.652   4.127   9.673  0.0672 -0.1618  0.9689
   15CHL1    H8 1051   4.758   4.099   9.690  0.5979 -0.4207 -2.3021
   15CHL1   C14 1052   4.623   4.180   9.529 -0.0747 -0.3010 -0.0619
   15CHL1   H14 1053   4.523   4.230   9.529  0.1727  0.2560 -2.9792
   15CHL1   C15 1054   4.614   4.065   9.428  0.0663  0.0724  0.0697
   15CHL1  H15A 1055   4.699   3.994   9.438 -0.3841 -0.7453 -1.5978
   15CHL1  H15B 1056   4.519   4.013   9.451 -0.2479  0.8408  0.5396
   15CHL1   C16 1057   4.618   4.147   9.301 -0.2591 -0.3748 -0.4825
   15CHL1  H16A 1058   4.693   4.090   9.242 -1.3630 -1.0567 -1.2536
   15CHL1  H16B 1059   4.526   4.160   9.240  0.8118  0.5351 -1.9443
   15CHL1   C17 1060   4.659   4.296   9.336  0.4900 -0.4445  0.4187
   15CHL1   H17 1061   4.567   4.357   9.343  0.9874  0.2529  1.0695
   15CHL1   C13 1062   4.702   4.294   9.479 -0.5672 -0.3907  0.2435
   15CHL1   C18 1063   4.849   4.245   9.482  0.5137 -0.2081  0.3285
   15CHL1  H18A 1064   4.885   4.234   9.586 -2.2561  0.9461  1.4843
   15CHL1  H18B 1065   4.861   4.148   9.429 -0.4825 -0.4907  0.6025
   15CHL1  H18C 1066   4.912   4.325   9.438  0.6785 -0.2325  0.5240
   15CHL1   C12 1067   4.684   4.411   9.577  0.2257 -0.2161 -0.3512
   15CHL1  H12A 1068   4.755   4.494   9.556  0.7941 -0.4571  0.5709
   15CHL1  H12B 1069   4.580   4.447   9.569  0.0909 -0.1527  1.5671
   15CHL1   C11 1070   4.707   4.373   9.731 -0.1331 -0.1139  0.1687
   15CHL1  H11A 1071   4.814   4.350   9.747  0.1737  0.8643 -0.4323
   15CHL1  H11B 1072   4.685   4.459   9.797 -0.4208  0.8470 -1.1718
   15CHL1    C9 1073   4.630   4.246   9.771  0.2180 -0.1305  0.0634
   15CHL1    H9 1074   4.523   4.273   9.753 -0.0309 -1.6324 -0.7525
   15CHL1   C10 1075   4.638   4.204   9.921 -0.3927 -0.3793 -0.1560
   15CHL1   C19 1076   4.786   4.194   9.960  0.1376 -0.0533  0.2178
   15CHL1  H19A 1077   4.847   4.283   9.935 -1.4992  0.3737 -2.4571
   15CHL1  H19B 1078   4.796   4.189  10.070 -1.1974  3.5940  0.5625
   15CHL1  H19C 1079   4.827   4.101   9.913  2.0152  1.2015 -0.7099
   15CHL1    C1 1080   4.560   4.315  10.002  0.3819 -0.2215  0.0627
   15CHL1   H1A 1081   4.622   4.408  10.005 -0.3310  0.4649 -3.7789
   15CHL1   H1B 1082   4.466   4.319   9.944  0.8142 -2.8909 -0.8887
   15CHL1    C2 1083   4.529   4.289  10.147 -0.3400 -0.3439 -0.1891
   15CHL1   H2A 1084   4.477   4.375  10.194  1.9524  1.9725 -1.7128
   15CHL1   H2B 1085   4.626   4.288  10.201 -0.7110 -1.2896  0.4783
   15CHL1   C20 1086   4.753   4.362   9.231 -0.3408  0.1347 -0.0301
   15CHL1   H20 1087   4.852   4.313   9.247 -0.3626 -0.1949 -0.8928
   15CHL1   C21 1088   4.753   4.514   9.264 -0.6039  0.4591  0.6652
   15CHL1  H21A 1089   4.826   4.560   9.194  0.3189 -0.4326  1.0308
   15CHL1  H21B 1090   4.787   4.545   9.365 -2.6824  0.7537  1.2876
   15CHL1  H21C 1091   4.655   4.564   9.246 -0.1568  0.7036 -1.2178
   15CHL1   C22 1092   4.722   4.330   9.087  0.3843  0.3428  0.1890
   15CHL1  H22A 1093   4.788   4.384   9.016 -0.8036  1.6538  0.0463
   15CHL1  H22B 1094   4.737   4.221   9.070 -1.6604 -0.1619  1.4579
   15CHL1   C23 1095   4.574   4.363   9.045 -0.1208 -0.0745  1.3195
   15CHL1  H23A 1096   4.499   4.305   9.103  0.0530 -1.0690  0.5534
   15CHL1  H23B 1097   4.543   4.468   9.068  0.5165  0.5702 -0.6764
   15CHL1   C24 1098   4.562   4.348   8.897  0.0606 -0.7183  0.6597
   15CHL1  H24A 1099   4.465   4.388   8.857  1.4995  2.6943  0.3700
   15CHL1  H24B 1100   4.638   4.415   8.851 -0.0031 -0.7530  0.4999
   15CHL1   C25 1101   4.598   4.210   8.834 -0.2349 -0.7866 -0.2801
   15CHL1   H25 1102   4.698   4.176   8.866 -0.1490  1.4033  1.8835
   15CHL1   C26 1103   4.501   4.100   8.872 -0.0878 -0.2833 -0.9251
   15CHL1  H26A 1104   4.532   4.002   8.829 -0.9620 -1.0887  0.2198
   15CHL1  H26B 1105   4.487   4.089   8.982 -0.7853  0.3762 -0.9412
   15CHL1  H26C 1106   4.398   4.118   8.835 -0.8944 -0.0423  1.3749
   15CHL1   C27 1107   4.597   4.210   8.682  0.0069 -0.1370 -0.1786
   15CHL1  H27A 1108   4.491   4.211   8.646 -0.2851 -1.8483  0.5650
   15CHL1  H27B 1109   4.654   4.294   8.637  0.2409 -1.1972 -1.8994
   15CHL1  H27C 1110   4.650   4.123   8.639  2.2970  1.7600 -1.3249
   16CHL1    C3 1111   5.806   4.710  10.369  0.1961  0.1733 -0.5790
   16CHL1    H3 1112   5.711   4.766  10.359  0.5807  0.5589 -2.1715
   16CHL1    O3 1113   5.833   4.687  10.505  0.1928  0.2024 -0.0073
   16CHL1   H3' 1114   5.911   4.632  10.511  0.7069  0.8826 -0.4269
   16CHL1    C4 1115   5.771   4.578  10.305 -0.0502  0.2201  0.2013
   16CHL1   H4A 1116   5.857   4.507  10.307 -0.4603 -0.2634  1.6205
   16CHL1   H4B 1117   5.681   4.543  10.360 -0.6238 -0.2686 -1.0453
   16CHL1    C5 1118   5.737   4.613  10.158  1.1327 -0.6655  0.1006
   16CHL1    C6 1119   5.622   4.577  10.102  0.0328  0.1994  0.2838
   16CHL1    H6 1120   5.553   4.522  10.167  1.0088  0.5063  1.5961
   16CHL1    C7 1121   5.582   4.597   9.964 -0.2060  0.1707 -1.1802
   16CHL1   H7A 1122   5.530   4.505   9.927  0.0362  1.1934 -4.2271
   16CHL1   H7B 1123   5.515   4.685   9.969 -0.4535 -0.0767  0.0869
   16CHL1    C8 1124   5.698   4.627   9.872 -0.6838 -0.1945  1.1610
   16CHL1    H8 1125   5.757   4.535   9.852  1.2794  1.5303 -1.1897
   16CHL1   C14 1126   5.649   4.681   9.742  0.4426  0.2148 -0.2019
   16CHL1   H14 1127   5.592   4.773   9.768 -0.3048 -0.6013  1.1387
   16CHL1   C15 1128   5.550   4.585   9.666  0.3570  0.2940 -0.3726
   16CHL1  H15A 1129   5.608   4.490   9.670 -0.0877  0.0267 -0.2965
   16CHL1  H15B 1130   5.450   4.554   9.704  1.4019 -0.2872  2.0440
   16CHL1   C16 1131   5.552   4.639   9.525 -0.3541 -0.6207  1.1073
   16CHL1  H16A 1132   5.577   4.557   9.455  0.9936  0.7848 -0.0757
   16CHL1  H16B 1133   5.459   4.692   9.495  0.1620 -0.8411 -0.9255
   16CHL1   C17 1134   5.656   4.756   9.515  0.6053  0.2453 -0.3129
   16CHL1   H17 1135   5.599   4.846   9.547 -0.9681 -0.7711 -0.2013
   16CHL1   C13 1136   5.749   4.722   9.631  0.5387  0.2249 -0.3462
   16CHL1   C18 1137   5.841   4.607   9.587  0.1683  0.5386  1.3518
   16CHL1  H18A 1138   5.778   4.542   9.522  1.4855 -2.0719  2.5826
   16CHL1  H18B 1139   5.930   4.650   9.537 -2.1327  0.7203 -2.8073
   16CHL1  H18C 1140   5.866   4.548   9.678 -1.7079  1.9893  2.8188
   16CHL1   C12 1141   5.844   4.828   9.693  0.1831 -0.2990  0.3791
   16CHL1  H12A 1142   5.929   4.837   9.622  1.2505 -2.0552  1.3877
   16CHL1  H12B 1143   5.793   4.924   9.714  1.2744  0.1553  0.9789
   16CHL1   C11 1144   5.896   4.786   9.830 -0.4440 -0.0300 -0.1335
   16CHL1  H11A 1145   5.968   4.701   9.821 -1.2208 -0.8012  0.7799
   16CHL1  H11B 1146   5.959   4.865   9.877  0.4798 -2.0671  2.2276
   16CHL1    C9 1147   5.793   4.731   9.932 -0.0239  0.5082  0.0968
   16CHL1    H9 1148   5.736   4.823   9.958  1.2405  1.1523  0.6338
   16CHL1   C10 1149   5.848   4.690  10.075 -0.9525 -0.6971 -0.6206
   16CHL1   C19 1150   5.962   4.595  10.055  0.3627  0.1515  0.2295
   16CHL1  H19A 1151   6.049   4.654  10.017  0.9240 -1.1819 -0.5833
   16CHL1  H19B 1152   5.990   4.542  10.149  0.2266 -1.4401 -0.6095
   16CHL1  H19C 1153   5.937   4.517   9.981 -0.4142  1.3607 -0.7820
   16CHL1    C1 1154   5.873   4.819  10.158 -0.1217 -0.3338 -0.5437
   16CHL1   H1A 1155   5.958   4.865  10.104 -0.5671 -2.5181 -3.2198
   16CHL1   H1B 1156   5.787   4.890  10.149 -0.8702 -1.3419 -1.4806
   16CHL1    C2 1157   5.913   4.784  10.303 -0.6362 -0.0644 -0.0981
   16CHL1   H2A 1158   5.948   4.876  10.353 -0.1746  0.0788 -0.6724
   16CHL1   H2B 1159   6.000   4.714  10.303 -2.0765 -1.9140 -0.8619
   16CHL1   C20 1160   5.709   4.785   9.370 -0.2056  0.1058 -0.4478
   16CHL1   H20 1161   5.752   4.693   9.324  0.0358 -1.7357  3.3013
   16CHL1   C21 1162   5.817   4.897   9.368 -0.0805  0.4437 -0.0930
   16CHL1  H21A 1163   5.840   4.935   9.266  1.2298 -1.0357 -0.3821
   16CHL1  H21B 1164   5.912   4.865   9.417 -1.1965 -0.8040  1.3043
   16CHL1  H21C 1165   5.781   4.982   9.428 -1.1722 -0.9836  1.3028
   16CHL1   C22 1166   5.603   4.827   9.257  0.3633 -0.0285 -0.3998
   16CHL1  H22A 1167   5.527   4.892   9.305  0.2361 -0.6595  0.2688
   16CHL1  H22B 1168   5.650   4.885   9.175 -0.9959 -1.3742 -2.1693
   16CHL1   C23 1169   5.543   4.701   9.182 -0.0265  0.3786  0.0419
   16CHL1  H23A 1170   5.619   4.634   9.138 -2.2271 -0.3225 -2.8324
   16CHL1  H23B 1171   5.496   4.638   9.261  2.5286 -1.5938  0.0499
   16CHL1   C24 1172   5.442   4.733   9.076 -0.6366  0.3351 -0.4397
   16CHL1  H24A 1173   5.411   4.631   9.044 -0.7807 -0.3196  1.7214
   16CHL1  H24B 1174   5.368   4.790   9.136 -0.9346 -0.3091 -0.1812
   16CHL1   C25 1175   5.485   4.808   8.945  0.1977  0.7090 -0.0116
   16CHL1   H25 1176   5.530   4.905   8.972 -0.0091  1.1556 -1.2689
   16CHL1   C26 1177   5.594   4.725   8.878 -0.1039 -0.1823  0.8400
   16CHL1  H26A 1178   5.636   4.775   8.788 -0.0434  0.0435  0.9904
   16CHL1  H26B 1179   5.679   4.699   8.945 -2.1779 -1.6594  2.9487
   16CHL1  H26C 1180   5.549   4.626   8.856  0.4283 -0.1449 -0.4867
   16CHL1   C27 1181   5.368   4.829   8.852  0.0079 -0.6055 -0.0933
   16CHL1  H27A 1182   5.329   4.731   8.820  1.6721 -1.3732  0.1802
   16CHL1  H27B 1183   5.298   4.890   8.914  1.0655  0.2864  0.2500
   16CHL1  H27C 1184   5.384   4.876   8.752  2.2637 -1.0403  0.0484
   17CHL1    C3 1185   1.425   1.076  10.300  0.7900 -0.0161 -0.3639
   17CHL1    H3 1186   1.384   1.179  10.300  0.6268 -0.0733  0.4645
   17CHL1    O3 1187   1.400   1.023  10.433  0.1619 -0.2787 -0.3256
   17CHL1   H3' 1188   1.308   1.047  10.445  0.5385  1.6779 -1.0780
   17CHL1    C4 1189   1.355   0.990  10.189 -0.5177  0.3038  0.5215
   17CHL1   H4A 1190   1.392   0.885  10.188  2.4973  1.2933  1.3792
   17CHL1   H4B 1191   1.245   0.986  10.201 -0.6777  1.2839 -0.5288
   17CHL1    C5 1192   1.393   1.044  10.051 -0.0181  0.1727  0.3797
   17CHL1    C6 1193   1.298   1.067   9.961  0.1532  0.1761  0.1317
   17CHL1    H6 1194   1.193   1.050   9.990  0.2298 -0.7023 -0.0851
   17CHL1    C7 1195   1.316   1.111   9.817 -0.0657  0.3797  0.0890
   17CHL1   H7A 1196   1.247   1.050   9.755  1.2658  1.5475 -2.5829
   17CHL1   H7B 1197   1.293   1.220   9.815  2.7281  0.9722 -0.5091
   17CHL1    C8 1198   1.467   1.090   9.772  0.6516  0.3452 -0.5049
   17CHL1    H8 1199   1.483   0.982   9.754 -2.1155 -0.2204  0.1836
   17CHL1   C14 1200   1.495   1.165   9.643  0.6605  0.0911 -0.1391
   17CHL1   H14 1201   1.462   1.269   9.665 -1.7597 -0.4582 -1.0074
   17CHL1   C15 1202   1.405   1.126   9.516  0.4117 -0.1080 -0.0976
   17CHL1  H15A 1203   1.398   1.016   9.503 -2.3534 -0.2302  1.9505
   17CHL1  H15B 1204   1.303   1.164   9.537  1.4407  2.3943  0.5378
   17CHL1   C16 1205   1.473   1.198   9.399 -0.1177  0.4511  0.7055
   17CHL1  H16A 1206   1.496   1.132   9.313  2.9992 -0.5012  2.1922
   17CHL1  H16B 1207   1.421   1.285   9.353 -1.3875  0.1857  1.6234
   17CHL1   C17 1208   1.614   1.241   9.457  0.4870 -0.1001  0.6172
   17CHL1   H17 1209   1.617   1.351   9.474  2.6905 -0.2281  1.2232
   17CHL1   C13 1210   1.632   1.164   9.590  0.8354  0.0211 -0.0278
   17CHL1   C18 1211   1.670   1.019   9.551 -0.8249 -0.2877  0.4066
   17CHL1  H18A 1212   1.588   0.979   9.487 -0.6275  1.2010 -0.8131
   17CHL1  H18B 1213   1.763   1.019   9.490 -2.1565 -0.5539 -1.6699
   17CHL1  H18C 1214   1.686   0.942   9.630  0.1956 -1.1176 -0.5957
   17CHL1   C12 1215   1.724   1.232   9.699  0.1232  0.0412 -0.1155
   17CHL1  H12A 1216   1.834   1.239   9.686  0.5576 -1.2779  2.6352
   17CHL1  H12B 1217   1.686   1.336   9.699  2.4865  0.9257 -1.3078
   17CHL1   C11 1218   1.704   1.152   9.831 -0.3367 -0.2190  0.1703
   17CHL1  H11A 1219   1.740   1.050   9.808 -1.7554 -0.1580 -2.4623
   17CHL1  H11B 1220   1.758   1.216   9.905  0.2932 -1.0531  0.4315
   17CHL1    C9 1221   1.558   1.145   9.882 -0.8590 -0.0540 -0.5171
   17CHL1    H9 1222   1.528   1.252   9.894 -2.5964 -0.4498 -1.2012
   17CHL1   C10 1223   1.537   1.070  10.013  0.4041 -0.0519  0.2020
   17CHL1   C19 1224   1.602   0.929  10.001  0.6051  0.3132  0.0171
   17CHL1  H19A 1225   1.552   0.860   9.930 -1.1038 -0.0643  1.5414
   17CHL1  H19B 1226   1.712   0.938   9.994  0.8682 -1.5398  1.3067
   17CHL1  H19C 1227   1.592   0.865  10.092  4.8447 -3.4560 -1.9544
   17CHL1    C1 1228   1.601   1.146  10.126 -0.3896 -0.0567 -0.1977
   17CHL1   H1A 1229   1.709   1.172  10.118 -0.4371  0.5266  0.9490
   17CHL1   H1B 1230   1.546   1.243  10.130 -2.9426 -1.3258 -2.9531
   17CHL1    C2 1231   1.580   1.091  10.265 -0.0665 -0.0896 -0.2746
   17CHL1   H2A 1232   1.615   1.164  10.340 -0.3510 -0.1940 -0.0376
   17CHL1   H2B 1233   1.638   0.996  10.267  0.3985  0.2121  0.7357
   17CHL1   C20 1234   1.716   1.232   9.341  0.4114  0.5176 -0.5820
   17CHL1   H20 1235   1.730   1.126   9.312 -1.5706  0.4157 -1.2840
   17CHL1   C21 1236   1.848   1.292   9.397  0.1468 -0.4957  0.7761
   17CHL1  H21A 1237   1.829   1.396   9.431 -0.5792 -0.5436  0.5354
   17CHL1  H21B 1238   1.935   1.281   9.329 -0.9221  1.0045 -0.8862
   17CHL1  H21C 1239   1.880   1.232   9.484  1.2556 -0.3940  0.4518
   17CHL1   C22 1240   1.676   1.302   9.209  0.3605 -0.4413 -1.0634
   17CHL1  H22A 1241   1.589   1.254   9.158  1.9783 -2.2376 -2.2185
   17CHL1  H22B 1242   1.648   1.409   9.219 -0.1283 -0.2447 -4.0109
   17CHL1   C23 1243   1.778   1.281   9.099 -0.2866 -0.0471  0.0967
   17CHL1  H23A 1244   1.876   1.326   9.125  0.8066 -0.5369 -3.0118
   17CHL1  H23B 1245   1.791   1.172   9.082  0.6353 -0.0273  0.6621
   17CHL1   C24 1246   1.726   1.356   8.976 -0.7188  0.4466  0.3597
   17CHL1  H24A 1247   1.618   1.328   8.970 -0.8840  1.3895 -1.4289
   17CHL1  H24B 1248   1.722   1.466   8.993  0.1277  0.5732 -0.2706
   17CHL1   C25 1249   1.798   1.320   8.843 -0.5563 -0.5185 -0.2043
   17CHL1   H25 1250   1.802   1.209   8.836  1.3434 -0.4422 -0.7931
   17CHL1   C26 1251   1.721   1.371   8.721 -0.7103  0.2572 -0.4697
   17CHL1  H26A 1252   1.612   1.350   8.734 -0.4773 -1.4672 -1.2164
   17CHL1  H26B 1253   1.728   1.481   8.710  0.3942  0.2494  0.0736
   17CHL1  H26C 1254   1.761   1.318   8.632  3.2434 -2.8879  2.9446
   17CHL1   C27 1255   1.952   1.371   8.866  0.4398 -0.6474  0.3394
   17CHL1  H27A 1256   1.998   1.347   8.768  0.4805 -0.2968  0.2758
   17CHL1  H27B 1257   1.949   1.481   8.879 -1.4041 -0.7217  0.6653
   17CHL1  H27C 1258   2.018   1.334   8.948  0.6099  0.7412  0.8405
   18CHL1    C3 1259   0.162   0.356  10.147  0.0751 -0.0840  0.5222
   18CHL1    H3 1260   0.096   0.267  10.146  1.6946 -1.3008 -0.9438
   18CHL1    O3 1261   0.183   0.392  10.289 -0.2095 -0.0086 -0.0779
   18CHL1   H3' 1262   0.101   0.415  10.333 -0.0126 -0.5692  0.5903
   18CHL1    C4 1263   0.295   0.308  10.091  0.4143  0.1082 -0.3349
   18CHL1   H4A 1264   0.378   0.380  10.110  1.6623 -1.2834 -0.3869
   18CHL1   H4B 1265   0.334   0.212  10.133  3.0291  1.3201  0.0854
   18CHL1    C5 1266   0.294   0.286   9.941  0.5374 -0.3667 -0.2563
   18CHL1    C6 1267   0.332   0.169   9.890  0.2913  0.6720  0.3878
   18CHL1    H6 1268   0.363   0.089   9.958 -1.6759  0.1474  0.6963
   18CHL1    C7 1269   0.326   0.139   9.740  0.3532  0.6662 -0.4775
   18CHL1   H7A 1270   0.421   0.093   9.705 -0.2058 -0.6068 -0.3139
   18CHL1   H7B 1271   0.244   0.074   9.704  0.3123 -0.3443  1.3995
   18CHL1    C8 1272   0.315   0.268   9.645  0.2976  0.3116 -1.0140
   18CHL1    H8 1273   0.413   0.316   9.665  0.2134  0.0253  0.1367
   18CHL1   C14 1274   0.295   0.236   9.503  0.6895 -0.3242 -0.1175
   18CHL1   H14 1275   0.198   0.183   9.498  0.7453 -0.3363 -1.1485
   18CHL1   C15 1276   0.404   0.145   9.438  0.0233 -0.3520 -0.6862
   18CHL1  H15A 1277   0.498   0.204   9.444 -1.4193  2.2375 -2.8447
   18CHL1  H15B 1278   0.429   0.045   9.481  1.4854 -0.4976 -1.8139
   18CHL1   C16 1279   0.357   0.153   9.292 -0.1179  0.1281  1.0582
   18CHL1  H16A 1280   0.444   0.166   9.225 -2.0157  1.6147 -1.1989
   18CHL1  H16B 1281   0.308   0.056   9.267  0.0871 -0.0723  1.4340
   18CHL1   C17 1282   0.252   0.273   9.276 -0.0826 -0.1316  0.3471
   18CHL1   H17 1283   0.155   0.221   9.267  0.0603 -0.0343 -2.1443
   18CHL1   C13 1284   0.268   0.356   9.404 -0.1506 -0.3896  0.6922
   18CHL1   C18 1285   0.392   0.455   9.400  0.0856  0.1715 -0.5901
   18CHL1  H18A 1286   0.483   0.404   9.360 -0.3974  0.4017 -2.0228
   18CHL1  H18B 1287   0.370   0.537   9.328 -1.3575  0.8193  0.5748
   18CHL1  H18C 1288   0.419   0.495   9.500  0.0512  1.3430 -1.0444
   18CHL1   C12 1289   0.139   0.418   9.458  0.0258  0.0942 -0.4548
   18CHL1  H12A 1290   0.109   0.500   9.390 -2.1487 -0.7739 -0.5764
   18CHL1  H12B 1291   0.057   0.343   9.460  0.8990 -0.8541  1.5937
   18CHL1   C11 1292   0.169   0.473   9.602 -0.3000  0.2684 -0.2994
   18CHL1  H11A 1293   0.236   0.561   9.597  0.4759 -0.3283 -0.5053
   18CHL1  H11B 1294   0.071   0.509   9.639  0.3215  0.4220  1.2376
   18CHL1    C9 1295   0.208   0.359   9.703  0.3255 -0.2060  0.1936
   18CHL1    H9 1296   0.110   0.307   9.707  0.9959 -1.4486  0.6248
   18CHL1   C10 1297   0.237   0.400   9.850  0.4094 -0.5609 -0.1942
   18CHL1   C19 1298   0.342   0.515   9.846  0.5038 -0.3613 -0.2255
   18CHL1  H19A 1299   0.403   0.537   9.936 -0.8554 -0.6248  0.7694
   18CHL1  H19B 1300   0.427   0.500   9.776  0.1135  0.1282 -0.8040
   18CHL1  H19C 1301   0.299   0.612   9.814  1.1672 -0.3172 -1.0051
   18CHL1    C1 1302   0.111   0.458   9.919  0.1714 -0.2395  0.1230
   18CHL1   H1A 1303   0.089   0.559   9.878  1.5696  1.2712  2.9616
   18CHL1   H1B 1304   0.031   0.387   9.889  1.0922 -1.2215 -0.0187
   18CHL1    C2 1305   0.118   0.479  10.074  0.2380  0.6298  0.8986
   18CHL1   H2A 1306   0.013   0.503  10.103 -0.8129 -2.3149 -0.2440
   18CHL1   H2B 1307   0.176   0.572  10.093 -0.6271  1.1982  0.8098
   18CHL1   C20 1308   0.273   0.338   9.133  0.4380 -0.4034 -0.7656
   18CHL1   H20 1309   0.366   0.399   9.143 -0.7081  1.4134 -0.8853
   18CHL1   C21 1310   0.154   0.427   9.105 -0.2842 -0.2003  0.1155
   18CHL1  H21A 1311   0.152   0.512   9.175 -1.0298 -0.6421  0.6303
   18CHL1  H21B 1312   0.053   0.381   9.101 -0.6934  0.7431 -0.4870
   18CHL1  H21C 1313   0.166   0.478   9.007 -2.7565 -1.1254 -0.6966
   18CHL1   C22 1314   0.282   0.230   9.023 -0.5988  0.4195 -0.7669
   18CHL1  H22A 1315   0.355   0.149   9.042 -1.5915 -0.7306 -1.7978
   18CHL1  H22B 1316   0.182   0.182   9.017 -1.5516  2.4748 -1.9472
   18CHL1   C23 1317   0.300   0.288   8.880  0.0387  0.0226  0.6689
   18CHL1  H23A 1318   0.217   0.343   8.830 -2.3379 -3.2439  0.8335
   18CHL1  H23B 1319   0.381   0.363   8.893 -1.3444  1.5833  0.5159
   18CHL1   C24 1320   0.349   0.173   8.784 -0.6652  0.0400  0.2416
   18CHL1  H24A 1321   0.423   0.109   8.838  1.1642 -0.3755 -2.6228
   18CHL1  H24B 1322   0.265   0.103   8.762 -0.0534 -0.1441 -1.6303
   18CHL1   C25 1323   0.417   0.222   8.659 -1.1338 -0.0866  0.9393
   18CHL1   H25 1324   0.366   0.305   8.605  0.3220 -0.6419 -1.3576
   18CHL1   C26 1325   0.558   0.272   8.697  0.0205 -0.1331  0.7949
   18CHL1  H26A 1326   0.553   0.378   8.730 -3.8600  0.3733 -1.2085
   18CHL1  H26B 1327   0.608   0.210   8.774 -0.9174 -0.1886  1.3704
   18CHL1  H26C 1328   0.619   0.276   8.604 -3.3967  3.3684 -1.4600
   18CHL1   C27 1329   0.421   0.108   8.561 -0.1732 -0.1550  0.1529
   18CHL1  H27A 1330   0.469   0.014   8.595 -0.0714 -0.1653 -0.0151
   18CHL1  H27B 1331   0.320   0.088   8.519 -0.6557 -0.0489  1.2524
   18CHL1  H27C 1332   0.478   0.142   8.471  1.7262 -0.5091  1.1944
   19CHL1    C3 1333   4.102   3.687  10.108  0.0640 -0.0863  0.1134
   19CHL1    H3 1334   4.083   3.580  10.085 -0.9162  0.0048  0.4794
   19CHL1    O3 1335   4.090   3.688  10.245 -0.2212 -0.0763 -0.1476
   19CHL1   H3' 1336   4.136   3.768  10.272 -1.7803  0.9695 -0.5531
   19CHL1    C4 1337   4.242   3.736  10.056  0.2942  0.4528  0.0714
   19CHL1   H4A 1338   4.260   3.841  10.089  0.3434  0.1746  0.9214
   19CHL1   H4B 1339   4.320   3.677  10.108  0.9254  1.6840  0.5626
   19CHL1    C5 1340   4.243   3.720   9.902  0.4135  1.4178 -0.5845
   19CHL1    C6 1341   4.345   3.665   9.836 -0.3707 -0.1381  0.0778
   19CHL1    H6 1342   4.431   3.630   9.895 -0.0696  1.5943  0.6843
   19CHL1    C7 1343   4.361   3.665   9.694 -0.6867  0.5898 -0.0229
   19CHL1   H7A 1344   4.468   3.684   9.670 -1.2338  1.0505 -2.2333
   19CHL1   H7B 1345   4.348   3.560   9.660  0.8967  0.8100 -1.3936
   19CHL1    C8 1346   4.266   3.761   9.624 -0.1790 -0.7232 -0.1431
   19CHL1    H8 1347   4.311   3.861   9.643  1.2369 -1.4756  0.5658
   19CHL1   C14 1348   4.261   3.729   9.474  0.1803  0.1782  1.1727
   19CHL1   H14 1349   4.219   3.629   9.453 -1.1854  1.1185 -0.7418
   19CHL1   C15 1350   4.399   3.719   9.402  0.0309  0.1431  0.2592
   19CHL1  H15A 1351   4.461   3.797   9.452 -0.5405 -0.2385  1.5682
   19CHL1  H15B 1352   4.450   3.624   9.427 -0.0368  0.3244  1.0924
   19CHL1   C16 1353   4.360   3.734   9.252 -0.3167 -0.1968  0.7896
   19CHL1  H16A 1354   4.437   3.801   9.207 -0.0767 -0.3728  0.9328
   19CHL1  H16B 1355   4.361   3.629   9.216  2.2833 -0.0695  0.3729
   19CHL1   C17 1356   4.213   3.781   9.242  0.8207 -0.5395 -0.6458
   19CHL1   H17 1357   4.153   3.689   9.229 -2.0006  1.4989 -2.5259
   19CHL1   C13 1358   4.180   3.823   9.390 -0.3029 -0.1732 -0.4414
   19CHL1   C18 1359   4.226   3.975   9.406  1.0004  0.4815 -0.3729
   19CHL1  H18A 1360   4.333   3.978   9.376  1.3595 -2.6924  0.4562
   19CHL1  H18B 1361   4.159   4.032   9.338  0.0606 -1.7633 -1.3640
   19CHL1  H18C 1362   4.208   4.016   9.508  1.3687 -1.1113  0.3435
   19CHL1   C12 1363   4.029   3.812   9.438  0.8783  0.6489 -0.3659
   19CHL1  H12A 1364   3.961   3.880   9.383  0.4738  1.6199  1.3071
   19CHL1  H12B 1365   3.993   3.707   9.425  1.1194  0.5254 -0.0440
   19CHL1   C11 1366   4.020   3.838   9.591  0.2939 -0.2164  1.1282
   19CHL1  H11A 1367   4.034   3.947   9.606  1.1962  0.3676 -3.4024
   19CHL1  H11B 1368   3.915   3.816   9.620 -1.0178  0.4086 -2.9192
   19CHL1    C9 1369   4.123   3.757   9.677  0.8132 -0.1042 -0.5457
   19CHL1    H9 1370   4.094   3.651   9.662 -2.3167  0.5921  0.2363
   19CHL1   C10 1371   4.125   3.790   9.830 -0.4562 -0.4221  0.1483
   19CHL1   C19 1372   4.132   3.945   9.847  0.6897  0.1108  1.0610
   19CHL1  H19A 1373   4.032   3.978   9.811  0.6548 -2.3149 -1.1898
   19CHL1  H19B 1374   4.130   3.979   9.952  2.2459 -0.2797  1.2260
   19CHL1  H19C 1375   4.218   3.996   9.798  1.0487  0.0414  1.6220
   19CHL1    C1 1376   3.988   3.745   9.897 -0.6872 -0.4445 -0.1815
   19CHL1   H1A 1377   3.901   3.797   9.852  0.1476  0.8112 -0.3555
   19CHL1   H1B 1378   3.970   3.636   9.882 -2.1713 -0.4893  1.6008
   19CHL1    C2 1379   3.985   3.767  10.047  0.1911  0.3898  0.9736
   19CHL1   H2A 1380   3.896   3.730  10.103  1.8379 -2.4180  1.8576
   19CHL1   H2B 1381   3.996   3.874  10.073  0.1526  0.5281  0.4190
   19CHL1   C20 1382   4.186   3.873   9.124 -0.0347 -0.2030  0.3151
   19CHL1   H20 1383   4.236   3.969   9.149 -1.2262 -0.0249  2.0433
   19CHL1   C21 1384   4.036   3.904   9.103 -0.2941  0.1847  0.4557
   19CHL1  H21A 1385   3.989   3.808   9.073  1.3537  0.1599 -2.1524
   19CHL1  H21B 1386   4.019   3.975   9.020 -2.1365  1.7402  2.1073
   19CHL1  H21C 1387   3.993   3.961   9.189 -1.6201 -0.9778  0.5893
   19CHL1   C22 1388   4.244   3.818   8.983 -0.6788 -0.4471 -0.1914
   19CHL1  H22A 1389   4.355   3.829   8.974 -0.3152 -1.4373  2.5156
   19CHL1  H22B 1390   4.220   3.710   8.979 -0.4541 -0.4925 -0.3496
   19CHL1   C23 1391   4.202   3.885   8.853 -0.3394 -0.3772  0.2214
   19CHL1  H23A 1392   4.092   3.873   8.838 -0.4048  1.1615 -0.5371
   19CHL1  H23B 1393   4.214   3.995   8.861 -0.1310 -0.4606  1.0946
   19CHL1   C24 1394   4.268   3.822   8.731 -0.0764 -0.7085  0.1204
   19CHL1  H24A 1395   4.378   3.837   8.739 -0.1240 -0.9170  1.2910
   19CHL1  H24B 1396   4.242   3.714   8.735 -2.9575 -0.0422  0.1060
   19CHL1   C25 1397   4.213   3.866   8.594 -0.8322 -0.2398 -0.2575
   19CHL1   H25 1398   4.105   3.838   8.588 -1.1715  1.3984 -2.6725
   19CHL1   C26 1399   4.238   4.013   8.567 -0.3506 -0.4477 -0.5112
   19CHL1  H26A 1400   4.242   4.069   8.663  1.0380  0.0233 -0.8385
   19CHL1  H26B 1401   4.338   4.030   8.522  0.0586  1.0311  0.8931
   19CHL1  H26C 1402   4.163   4.057   8.497  0.1846  1.2351 -0.0732
   19CHL1   C27 1403   4.290   3.778   8.492  0.4124 -0.1029  0.7638
   19CHL1  H27A 1404   4.249   3.770   8.389 -0.9702 -1.6562  1.3966
   19CHL1  H27B 1405   4.392   3.819   8.478 -0.3449  1.7383  0.4905
   19CHL1  H27C 1406   4.295   3.673   8.529  1.8032 -0.3524 -0.1223
   20CHL1    C3 1407   6.632   4.360  10.329 -0.0568 -0.4667  0.2770
   20CHL1    H3 1408   6.550   4.302  10.283 -0.7754  1.2762 -0.7003
   20CHL1    O3 1409   6.608   4.356  10.470 -0.2323  0.3160  0.0366
   20CHL1   H3' 1410   6.687   4.389  10.512 -0.4025  0.0172  0.5863
   20CHL1    C4 1411   6.760   4.284  10.283  0.2163 -0.5208 -0.5759
   20CHL1   H4A 1412   6.848   4.329  10.333 -0.6536  1.2272 -0.5996
   20CHL1   H4B 1413   6.746   4.178  10.314  0.3917 -0.2809  0.3372
   20CHL1    C5 1414   6.771   4.302  10.130 -0.6909  0.6692 -0.2157
   20CHL1    C6 1415   6.780   4.188  10.050 -0.4241 -0.0933 -0.4120
   20CHL1    H6 1416   6.778   4.087  10.093  1.4206 -0.1089 -0.3563
   20CHL1    C7 1417   6.793   4.190   9.900  0.1001  0.2018 -0.4918
   20CHL1   H7A 1418   6.858   4.107   9.867 -1.0426 -0.9569  0.1200
   20CHL1   H7B 1419   6.690   4.175   9.861  0.7774 -1.9644 -1.5083
   20CHL1    C8 1420   6.839   4.331   9.856  0.6390  0.5399 -0.4349
   20CHL1    H8 1421   6.950   4.329   9.864  0.5505  0.1441  0.7040
   20CHL1   C14 1422   6.821   4.338   9.703  0.4189  0.1457  0.4539
   20CHL1   H14 1423   6.711   4.347   9.696  0.1026 -0.6318  3.7069
   20CHL1   C15 1424   6.866   4.224   9.609  0.5404  0.9432  0.3906
   20CHL1  H15A 1425   6.966   4.188   9.643 -0.9709 -3.2207  0.6284
   20CHL1  H15B 1426   6.798   4.138   9.623 -0.9489  1.9172 -0.7818
   20CHL1   C16 1427   6.875   4.292   9.466 -0.5443 -0.1242 -0.2165
   20CHL1  H16A 1428   6.976   4.266   9.428  0.6153  2.1153  1.1693
   20CHL1  H16B 1429   6.812   4.238   9.391  0.1545 -1.2414 -0.0011
   20CHL1   C17 1430   6.853   4.444   9.490  0.1526 -0.2728  0.0928
   20CHL1   H17 1431   6.743   4.461   9.482  0.4513  1.0911 -1.3788
   20CHL1   C13 1432   6.876   4.469   9.635 -0.2170  0.3026 -0.0406
   20CHL1   C18 1433   7.028   4.469   9.668 -0.0621  0.0780 -0.4465
   20CHL1  H18A 1434   7.077   4.374   9.637 -1.1736 -0.0398 -1.8630
   20CHL1  H18B 1435   7.081   4.542   9.604  0.8521  0.5424  0.8145
   20CHL1  H18C 1436   7.044   4.492   9.776 -3.4729  1.3069 -0.1260
   20CHL1   C12 1437   6.795   4.586   9.698  0.1590 -0.6003 -0.4880
   20CHL1  H12A 1438   6.811   4.689   9.660 -1.9640  0.3635  1.1486
   20CHL1  H12B 1439   6.689   4.565   9.673 -0.5989  0.6084  1.6063
   20CHL1   C11 1440   6.806   4.584   9.855  0.1900  0.4158 -0.0450
   20CHL1  H11A 1441   6.909   4.618   9.876  0.7997 -1.0118 -0.6395
   20CHL1  H11B 1442   6.736   4.659   9.897 -0.6146 -1.0403  1.2805
   20CHL1    C9 1443   6.773   4.455   9.931 -0.0780 -0.2258  0.2635
   20CHL1    H9 1444   6.665   4.440   9.908  0.3199 -1.3143 -0.9473
   20CHL1   C10 1445   6.779   4.446  10.086  0.3538  0.6977  0.6080
   20CHL1   C19 1446   6.902   4.515  10.138  0.4008  0.3838 -0.0711
   20CHL1  H19A 1447   6.902   4.624  10.118 -1.0346  0.2672 -0.8291
   20CHL1  H19B 1448   6.909   4.505  10.248 -1.1378  2.4812  0.2449
   20CHL1  H19C 1449   6.996   4.467  10.103 -0.0365 -0.6411  0.1304
   20CHL1    C1 1450   6.657   4.521  10.134 -0.4516  0.0770 -0.1694
   20CHL1   H1A 1451   6.675   4.631  10.131 -4.2543  0.8601  1.8474
   20CHL1   H1B 1452   6.563   4.494  10.082  0.4584 -1.5509 -0.9934
   20CHL1    C2 1453   6.624   4.503  10.280 -0.0253 -0.4313 -1.1537
   20CHL1   H2A 1454   6.526   4.548  10.306 -0.2853 -1.1737 -0.8228
   20CHL1   H2B 1455   6.695   4.563  10.340  0.4460 -0.1961 -1.9344
   20CHL1   C20 1456   6.912   4.540   9.384 -0.1600  0.3217 -0.2590
   20CHL1   H20 1457   6.922   4.638   9.435 -1.1233  0.6665 -0.7272
   20CHL1   C21 1458   6.821   4.552   9.263  0.0289  0.0396  0.8488
   20CHL1  H21A 1459   6.718   4.570   9.300 -0.1904  1.3110 -0.3385
   20CHL1  H21B 1460   6.812   4.453   9.214  0.4523 -1.0032  2.8280
   20CHL1  H21C 1461   6.866   4.632   9.199 -2.6412  1.5105  0.7535
   20CHL1   C22 1462   7.057   4.501   9.340  0.0161 -0.7028  1.0757
   20CHL1  H22A 1463   7.116   4.473   9.429 -0.7827 -0.0277  1.8260
   20CHL1  H22B 1464   7.044   4.419   9.267 -0.1160  0.4387 -0.2095
   20CHL1   C23 1465   7.139   4.621   9.277 -0.4069  0.2005  0.5795
   20CHL1  H23A 1466   7.088   4.671   9.192  0.1815  1.2528  0.8453
   20CHL1  H23B 1467   7.157   4.694   9.358  0.8874 -0.8285  1.2483
   20CHL1   C24 1468   7.277   4.568   9.233  0.6625  0.1942 -0.4496
   20CHL1  H24A 1469   7.320   4.504   9.313  0.8824  1.6376  0.6158
   20CHL1  H24B 1470   7.261   4.507   9.141 -0.1248 -0.0502 -0.1472
   20CHL1   C25 1471   7.372   4.674   9.182 -0.8623 -0.2652  0.9125
   20CHL1   H25 1472   7.311   4.757   9.140 -0.7441 -0.1774  0.9137
   20CHL1   C26 1473   7.460   4.741   9.300 -0.6146 -0.1132  0.0362
   20CHL1  H26A 1474   7.510   4.831   9.260 -1.5282  0.2988 -0.1932
   20CHL1  H26B 1475   7.393   4.759   9.387  0.3072 -0.5162  0.8418
   20CHL1  H26C 1476   7.535   4.668   9.336  1.4677  1.9315 -0.1106
   20CHL1   C27 1477   7.472   4.632   9.079  0.3469  1.2593  0.5035
   20CHL1  H27A 1478   7.526   4.713   9.027  1.0353  1.2056  1.1272
   20CHL1  H27B 1479   7.538   4.561   9.134 -1.5692 -1.8394 -1.0060
   20CHL1  H27C 1480   7.420   4.578   8.997 -1.0881  1.7469  1.0753
   21CHL1    C3 1481   6.114   1.000  10.182 -0.0373 -0.7868  0.8040
   21CHL1    H3 1482   6.052   1.083  10.142  1.4506 -0.4197 -0.7532
   21CHL1    O3 1483   6.125   1.005  10.320  0.6146  0.3765  0.2283
   21CHL1   H3' 1484   6.126   0.914  10.350  0.7971  0.6946  1.1989
   21CHL1    C4 1485   6.058   0.860  10.128 -0.2253 -0.4705  0.6363
   21CHL1   H4A 1486   6.128   0.781  10.163  0.5661 -1.5299 -3.0937
   21CHL1   H4B 1487   5.960   0.844  10.177 -0.0631 -2.0079  0.4818
   21CHL1    C5 1488   6.052   0.854   9.972  0.8571  0.0981  0.1122
   21CHL1    C6 1489   5.932   0.847   9.912  0.0630  0.6110 -0.1299
   21CHL1    H6 1490   5.835   0.836   9.963 -0.8115 -2.1217 -2.2346
   21CHL1    C7 1491   5.923   0.851   9.761 -0.0920  0.1171 -0.0486
   21CHL1   H7A 1492   5.849   0.777   9.723 -0.0900  0.3888 -0.5715
   21CHL1   H7B 1493   5.886   0.954   9.744 -1.5137 -0.8081 -2.8915
   21CHL1    C8 1494   6.067   0.832   9.694  0.1561 -0.1461  1.0070
   21CHL1    H8 1495   6.097   0.726   9.704 -1.0144 -0.5382  0.4069
   21CHL1   C14 1496   6.058   0.870   9.550  0.3998 -0.1230  0.2014
   21CHL1   H14 1497   6.033   0.979   9.552  1.0335  0.0319 -0.2324
   21CHL1   C15 1498   5.942   0.817   9.464 -0.2223  0.4023  0.6982
   21CHL1  H15A 1499   5.931   0.708   9.485  1.0685  0.2663  0.7111
   21CHL1  H15B 1500   5.843   0.863   9.486 -0.4720  0.2915 -0.1560
   21CHL1   C16 1501   5.991   0.832   9.319 -0.4469  0.0955  0.0440
   21CHL1  H16A 1502   6.001   0.735   9.266 -3.4642 -0.5651  0.5886
   21CHL1  H16B 1503   5.925   0.900   9.261  0.6043  1.1671  0.0826
   21CHL1   C17 1504   6.133   0.904   9.332  0.3726  0.0432  0.7833
   21CHL1   H17 1505   6.114   1.012   9.348 -1.5394  0.0726 -1.4282
   21CHL1   C13 1506   6.193   0.858   9.463 -0.5114  0.8991  0.0561
   21CHL1   C18 1507   6.245   0.719   9.445  0.1389 -0.3694 -0.0929
   21CHL1  H18A 1508   6.240   0.659   9.539  0.0198 -0.4857 -0.1738
   21CHL1  H18B 1509   6.187   0.663   9.369  1.6765  0.4733 -1.9164
   21CHL1  H18C 1510   6.346   0.723   9.400  0.4911  0.5303  0.7541
   21CHL1   C12 1511   6.297   0.947   9.529  0.1762 -0.4841  0.3445
   21CHL1  H12A 1512   6.405   0.945   9.501  1.0236  0.5293  3.3891
   21CHL1  H12B 1513   6.262   1.053   9.526 -1.0962 -0.9148 -0.0864
   21CHL1   C11 1514   6.300   0.916   9.678  0.4152 -0.1977  0.3030
   21CHL1  H11A 1515   6.319   0.807   9.685  1.6849 -0.0745 -1.0664
   21CHL1  H11B 1516   6.379   0.979   9.725 -0.6568  0.7972  0.7876
   21CHL1    C9 1517   6.169   0.921   9.756  0.2007  0.1420  0.4568
   21CHL1    H9 1518   6.125   1.023   9.746 -0.5242 -0.4213 -2.4693
   21CHL1   C10 1519   6.189   0.882   9.904 -0.2579 -0.0357 -0.8943
   21CHL1   C19 1520   6.282   0.767   9.923  0.1772 -0.3951 -0.3243
   21CHL1  H19A 1521   6.387   0.786   9.892  0.4807  0.6450  1.2834
   21CHL1  H19B 1522   6.295   0.733  10.028  0.9614  1.5411  0.2237
   21CHL1  H19C 1523   6.254   0.675   9.866  1.1942 -0.0725 -1.3677
   21CHL1    C1 1524   6.256   1.013   9.973  0.0054  0.0817 -0.4834
   21CHL1   H1A 1525   6.357   1.021   9.927 -0.1559  0.7121 -0.7313
   21CHL1   H1B 1526   6.194   1.095   9.931 -2.4479 -0.8012  1.3005
   21CHL1    C2 1527   6.259   1.022  10.129 -0.1220 -0.6753  0.0278
   21CHL1   H2A 1528   6.305   1.116  10.167  0.6381 -0.6224 -0.9978
   21CHL1   H2B 1529   6.328   0.943  10.165  0.3579 -0.5810 -0.6700
   21CHL1   C20 1530   6.211   0.884   9.199  0.1429 -0.0781 -0.2519
   21CHL1   H20 1531   6.230   0.776   9.182  1.3167  0.2005 -0.7426
   21CHL1   C21 1532   6.345   0.958   9.210  0.3695 -0.3391  0.0236
   21CHL1  H21A 1533   6.409   0.958   9.119 -0.1270 -0.1018 -0.3216
   21CHL1  H21B 1534   6.412   0.903   9.280  1.6861  0.7694 -0.3310
   21CHL1  H21C 1535   6.333   1.060   9.253  0.0667 -0.1190 -0.5830
   21CHL1   C22 1536   6.126   0.934   9.076  0.4427 -0.0798 -1.1403
   21CHL1  H22A 1537   6.027   0.883   9.073  1.2244 -1.6781 -0.2772
   21CHL1  H22B 1538   6.113   1.044   9.083  0.6964 -0.1595  0.8028
   21CHL1   C23 1539   6.209   0.920   8.946  0.2749 -0.3259  0.2437
   21CHL1  H23A 1540   6.291   0.995   8.940  1.7062 -1.7069  2.3187
   21CHL1  H23B 1541   6.253   0.820   8.928 -0.8875 -0.3567 -2.6828
   21CHL1   C24 1542   6.121   0.959   8.817  0.1553  0.1356  0.7155
   21CHL1  H24A 1543   6.015   0.925   8.828  0.1091  0.4403  1.2275
   21CHL1  H24B 1544   6.110   1.069   8.814 -1.6492 -0.0259  0.4436
   21CHL1   C25 1545   6.176   0.905   8.680 -0.5145  0.5793  0.3355
   21CHL1   H25 1546   6.192   0.797   8.702  0.6962  0.4408 -1.1775
   21CHL1   C26 1547   6.070   0.915   8.576 -0.2898 -0.4537 -0.2792
   21CHL1  H26A 1548   6.009   1.008   8.579 -1.2596 -1.0259 -1.4119
   21CHL1  H26B 1549   6.118   0.910   8.476  0.1497  3.0694 -0.3170
   21CHL1  H26C 1550   6.003   0.826   8.585 -3.1514  1.5967 -0.4057
   21CHL1   C27 1551   6.300   0.979   8.628 -0.2103  0.9876  0.4499
   21CHL1  H27A 1552   6.318   0.942   8.525  0.7281  3.5709 -0.3426
   21CHL1  H27B 1553   6.282   1.088   8.622 -3.6541  0.4175 -0.6438
   21CHL1  H27C 1554   6.394   0.940   8.673 -0.6981 -0.0473  0.6043
   22CHL1    C3 1555   5.566   1.637  10.325 -0.4853  0.5314 -0.3305
   22CHL1    H3 1556   5.675   1.636  10.346 -0.6105  2.0816  0.4953
   22CHL1    O3 1557   5.506   1.596  10.442  0.2925 -0.1741  0.1544
   22CHL1   H3' 1558   5.505   1.670  10.503 -0.8935  0.2944 -0.4143
   22CHL1    C4 1559   5.518   1.776  10.289 -0.3448  1.0536 -0.8669
   22CHL1   H4A 1560   5.408   1.783  10.303 -0.2224 -1.1872  1.7322
   22CHL1   H4B 1561   5.553   1.851  10.363  0.0931 -0.3522  0.3868
   22CHL1    C5 1562   5.565   1.808  10.145  0.0133 -0.0648  0.4664
   22CHL1    C6 1563   5.640   1.918  10.119  0.1574 -0.2036  0.3331
   22CHL1    H6 1564   5.667   1.986  10.201  0.2993  0.3335 -0.1523
   22CHL1    C7 1565   5.684   1.955   9.978  0.0148 -0.4398 -0.2967
   22CHL1   H7A 1566   5.668   2.064   9.967 -0.6500 -0.7356 -2.5410
   22CHL1   H7B 1567   5.795   1.945   9.968  0.1899  1.3575 -0.2626
   22CHL1    C8 1568   5.613   1.874   9.866 -0.5878 -1.1660  1.3467
   22CHL1    H8 1569   5.523   1.929   9.832 -0.0958 -2.2777 -1.9007
   22CHL1   C14 1570   5.699   1.882   9.740  0.8140  1.2038  0.3525
   22CHL1   H14 1571   5.794   1.836   9.775 -0.0022  0.1135  1.2086
   22CHL1   C15 1572   5.729   2.024   9.683 -1.0182 -0.6266 -0.4526
   22CHL1  H15A 1573   5.635   2.084   9.683  0.4190  1.7317 -2.2189
   22CHL1  H15B 1574   5.806   2.076   9.743  0.3112 -1.6862 -1.1914
   22CHL1   C16 1575   5.767   2.002   9.533 -0.1268  1.3003  0.4373
   22CHL1  H16A 1576   5.693   2.059   9.473  0.7831  0.2068 -1.8273
   22CHL1  H16B 1577   5.870   2.026   9.499 -0.7145  2.7103 -0.3713
   22CHL1   C17 1578   5.747   1.845   9.509 -0.4606 -0.4258  0.1664
   22CHL1   H17 1579   5.845   1.803   9.540 -0.5806 -0.5984  0.3118
   22CHL1   C13 1580   5.648   1.800   9.621 -0.5561  0.2306  0.0289
   22CHL1   C18 1581   5.502   1.849   9.585 -0.7749  0.4741 -0.2976
   22CHL1  H18A 1582   5.468   1.767   9.518 -0.4477 -0.6933  0.9471
   22CHL1  H18B 1583   5.437   1.853   9.675 -0.8550 -1.2829 -0.2683
   22CHL1  H18C 1584   5.505   1.946   9.530 -0.6133  2.1789  2.6518
   22CHL1   C12 1585   5.652   1.655   9.665  0.1772  0.2571  0.1907
   22CHL1  H12A 1586   5.619   1.583   9.586  1.5749 -0.5802  0.3494
   22CHL1  H12B 1587   5.750   1.626   9.709  0.1736  1.9191  1.3248
   22CHL1   C11 1588   5.559   1.634   9.785  0.4052  0.1593  0.8210
   22CHL1  H11A 1589   5.456   1.640   9.745  1.8463  1.4036 -2.9145
   22CHL1  H11B 1590   5.581   1.530   9.817  0.1679  0.7824  3.0904
   22CHL1    C9 1591   5.603   1.722   9.906  0.0337 -0.0891  0.4907
   22CHL1    H9 1592   5.709   1.694   9.924  0.1890  0.3142  0.1995
   22CHL1   C10 1593   5.533   1.702  10.040 -0.0520  0.0083 -0.5885
   22CHL1   C19 1594   5.381   1.728  10.019 -0.5137 -0.2240 -0.1722
   22CHL1  H19A 1595   5.370   1.823   9.964 -0.7781 -0.1445  0.0099
   22CHL1  H19B 1596   5.339   1.657   9.944 -1.6378 -1.1719  1.3044
   22CHL1  H19C 1597   5.324   1.719  10.115  0.1542  1.7445  0.4445
   22CHL1    C1 1598   5.559   1.563  10.080 -0.1650 -0.5918 -0.0385
   22CHL1   H1A 1599   5.499   1.491  10.021  2.4482 -3.6661  0.8853
   22CHL1   H1B 1600   5.663   1.525  10.081 -1.5589 -4.7214  0.2516
   22CHL1    C2 1601   5.514   1.532  10.222  0.1017  0.1847 -0.5942
   22CHL1   H2A 1602   5.553   1.433  10.256 -1.9693 -0.4263  0.0529
   22CHL1   H2B 1603   5.403   1.536  10.221  0.1006  1.7054  1.7982
   22CHL1   C20 1604   5.720   1.795   9.360  0.2033  0.3867 -0.7113
   22CHL1   H20 1605   5.615   1.759   9.364  0.4481 -0.4889 -1.8709
   22CHL1   C21 1606   5.815   1.674   9.339 -0.3271  0.4372  0.3071
   22CHL1  H21A 1607   5.789   1.614   9.249 -2.4927  1.2513  0.3588
   22CHL1  H21B 1608   5.806   1.601   9.421 -0.7997 -0.9093 -0.9143
   22CHL1  H21C 1609   5.921   1.703   9.324 -0.3558  0.4381  0.0913
   22CHL1   C22 1610   5.733   1.900   9.250 -0.4042  0.2771  0.0621
   22CHL1  H22A 1611   5.659   1.982   9.259 -1.4645 -0.4108 -1.8617
   22CHL1  H22B 1612   5.835   1.944   9.251  0.2787 -1.2732  1.2675
   22CHL1   C23 1613   5.711   1.849   9.109 -0.8106 -0.1948  0.8300
   22CHL1  H23A 1614   5.790   1.776   9.082 -2.8903 -2.1344 -0.2522
   22CHL1  H23B 1615   5.619   1.787   9.119  0.3287 -1.9427  0.6866
   22CHL1   C24 1616   5.722   1.948   8.996  0.0544 -0.3896  0.0058
   22CHL1  H24A 1617   5.627   2.005   8.986  0.0164 -0.0501  2.0343
   22CHL1  H24B 1618   5.809   2.014   9.020 -0.5472  1.1001 -1.8056
   22CHL1   C25 1619   5.745   1.890   8.853  0.1487 -0.0382 -0.1934
   22CHL1   H25 1620   5.675   1.804   8.851 -1.3468  1.1078  1.3542
   22CHL1   C26 1621   5.702   1.986   8.745  0.3600  0.4078  0.4638
   22CHL1  H26A 1622   5.592   1.999   8.741  0.3709  0.2887 -0.3306
   22CHL1  H26B 1623   5.744   2.087   8.763 -1.2448  1.1325  0.1671
   22CHL1  H26C 1624   5.736   1.949   8.645 -1.3762 -2.5680  0.9082
   22CHL1   C27 1625   5.884   1.833   8.824 -0.4387 -0.0191  0.8760
   22CHL1  H27A 1626   5.955   1.914   8.853 -0.0209 -0.0720  0.0069
   22CHL1  H27B 1627   5.912   1.736   8.870  1.6744  0.0766 -0.1380
   22CHL1  H27C 1628   5.899   1.817   8.716 -0.3690 -2.1883  1.1908
   23CHL1    C3 1629   1.984   3.410  10.223 -0.6084 -0.1901  0.1173
   23CHL1    H3 1630   1.888   3.465  10.237  0.9863  2.8429 -0.3217
   23CHL1    O3 1631   2.016   3.368  10.358  0.2022  0.4540 -0.4512
   23CHL1   H3' 1632   2.111   3.376  10.368 -0.0273  2.8558  0.2607
   23CHL1    C4 1633   1.966   3.281  10.136  0.3603 -0.0704  1.0538
   23CHL1   H4A 1634   2.044   3.211  10.169  0.7556 -0.8683 -1.4324
   23CHL1   H4B 1635   1.868   3.236  10.162  0.4411 -0.7036  0.2640
   23CHL1    C5 1636   1.970   3.293   9.984 -0.4020 -0.2143 -1.3787
   23CHL1    C6 1637   1.872   3.241   9.913  0.1755 -0.3651  0.3571
   23CHL1    H6 1638   1.791   3.183   9.959 -1.4742 -0.6785 -2.7491
   23CHL1    C7 1639   1.873   3.226   9.760  0.5808  0.5395 -0.4671
   23CHL1   H7A 1640   1.854   3.119   9.736 -3.3777  1.1881 -0.5650
   23CHL1   H7B 1641   1.790   3.283   9.712  0.9225  1.7168  0.3396
   23CHL1    C8 1642   2.013   3.267   9.696  0.3991 -0.3526 -0.0098
   23CHL1    H8 1643   2.083   3.185   9.722  0.2101 -0.5962 -0.2685
   23CHL1   C14 1644   2.007   3.305   9.550  0.8652 -0.2479  1.0623
   23CHL1   H14 1645   1.948   3.399   9.542 -0.3380 -1.0441  0.4322
   23CHL1   C15 1646   1.939   3.201   9.461  0.4450 -0.4572  0.8373
   23CHL1  H15A 1647   1.948   3.095   9.493 -2.0772 -1.3065 -1.0663
   23CHL1  H15B 1648   1.829   3.217   9.451  0.5426 -0.5959 -0.4826
   23CHL1   C16 1649   2.007   3.219   9.326  0.3906 -0.1841 -0.0216
   23CHL1  H16A 1650   2.068   3.126   9.321  1.1278  0.3547 -1.2078
   23CHL1  H16B 1651   1.946   3.251   9.239 -0.3772  1.0103  0.9288
   23CHL1   C17 1652   2.104   3.342   9.344  0.2168 -0.8369  0.2491
   23CHL1   H17 1653   2.040   3.433   9.340  2.0072  0.4151 -0.1699
   23CHL1   C13 1654   2.144   3.339   9.488 -0.2632  0.2646 -0.1549
   23CHL1   C18 1655   2.247   3.223   9.517 -0.7726  0.1075  0.7172
   23CHL1  H18A 1656   2.268   3.207   9.625  1.7055  0.7995  0.3536
   23CHL1  H18B 1657   2.208   3.127   9.476 -0.1379  0.6898 -1.2774
   23CHL1  H18C 1658   2.345   3.240   9.468  0.0039 -2.8714  1.1426
   23CHL1   C12 1659   2.177   3.475   9.557 -0.0319 -0.2675  0.1954
   23CHL1  H12A 1660   2.280   3.509   9.535 -0.9003  0.6656 -2.6901
   23CHL1  H12B 1661   2.111   3.559   9.526 -0.9732 -0.5106  1.4880
   23CHL1   C11 1662   2.178   3.470   9.708  0.0876 -0.2811 -0.3729
   23CHL1  H11A 1663   2.269   3.414   9.740  0.5544 -0.8315 -2.5938
   23CHL1  H11B 1664   2.199   3.574   9.740  3.5986 -0.4009 -1.9855
   23CHL1    C9 1665   2.063   3.385   9.778 -0.4136 -0.5091 -0.7824
   23CHL1    H9 1666   1.987   3.466   9.781  3.2555  3.0393  1.9905
   23CHL1   C10 1667   2.088   3.361   9.930  0.5388 -0.0134 -0.8804
   23CHL1   C19 1668   2.216   3.266   9.960  0.2179 -0.2151  0.0614
   23CHL1  H19A 1669   2.224   3.185   9.885  0.7041  1.3584 -1.6162
   23CHL1  H19B 1670   2.305   3.332   9.968 -0.2961  0.2148  3.2927
   23CHL1  H19C 1671   2.218   3.218  10.060  0.9132  2.9503  1.6426
   23CHL1    C1 1672   2.102   3.495  10.009  0.7257  0.2318  0.0567
   23CHL1   H1A 1673   2.193   3.545   9.971  1.8730 -1.6042  0.2936
   23CHL1   H1B 1674   2.014   3.553   9.974 -0.3073 -2.1494 -1.4138
   23CHL1    C2 1675   2.093   3.500  10.165 -0.8549 -0.7563 -0.0384
   23CHL1   H2A 1676   2.099   3.609  10.186  2.4013 -0.5369 -1.7710
   23CHL1   H2B 1677   2.186   3.460  10.210  0.1003  1.2059 -0.1820
   23CHL1   C20 1678   2.225   3.364   9.250 -0.6978  0.8036 -0.4839
   23CHL1   H20 1679   2.306   3.399   9.317 -1.1683 -0.3695  0.7072
   23CHL1   C21 1680   2.189   3.484   9.166  0.0640  0.1777  0.2763
   23CHL1  H21A 1681   2.104   3.466   9.097  2.1956 -4.1993 -1.3895
   23CHL1  H21B 1682   2.273   3.512   9.099  0.7584 -0.6203  0.7954
   23CHL1  H21C 1683   2.168   3.565   9.239  0.2247  0.8757 -0.4418
   23CHL1   C22 1684   2.269   3.239   9.177  0.2664  0.1699 -0.1183
   23CHL1  H22A 1685   2.290   3.152   9.244  0.5623  1.8099  1.9691
   23CHL1  H22B 1686   2.183   3.218   9.110 -0.0759 -0.5515  0.5359
   23CHL1   C23 1687   2.390   3.257   9.089 -0.1577 -0.7428  0.2842
   23CHL1  H23A 1688   2.365   3.320   9.001 -0.6243 -0.8123  0.3604
   23CHL1  H23B 1689   2.472   3.315   9.135  0.7609 -2.6888  1.1424
   23CHL1   C24 1690   2.448   3.128   9.035  0.3432 -0.2826 -0.2337
   23CHL1  H24A 1691   2.501   3.072   9.115  0.5358 -0.2255 -0.3203
   23CHL1  H24B 1692   2.369   3.057   9.003 -0.5909 -0.5234  2.4907
   23CHL1   C25 1693   2.544   3.159   8.920  0.5407  0.7555 -0.0670
   23CHL1   H25 1694   2.606   3.242   8.960 -0.1816  0.7245  1.1289
   23CHL1   C26 1695   2.639   3.032   8.901  0.3158  0.2635 -0.2896
   23CHL1  H26A 1696   2.580   2.942   8.874 -1.4203  0.7331  1.7676
   23CHL1  H26B 1697   2.707   3.046   8.815  0.3307  0.6737 -0.2125
   23CHL1  H26C 1698   2.697   3.013   8.994  2.7313  1.5252 -1.4881
   23CHL1   C27 1699   2.470   3.196   8.788  0.0300  0.1321  0.1187
   23CHL1  H27A 1700   2.375   3.140   8.776 -0.3822  1.0684 -1.0740
   23CHL1  H27B 1701   2.455   3.306   8.780 -1.4135  0.0087  0.9346
   23CHL1  H27C 1702   2.547   3.166   8.713 -0.9266 -4.1984  0.7307
   24CHL1    C3 1703   3.520   3.436  10.157 -0.4711  0.4310  0.4868
   24CHL1    H3 1704   3.529   3.327  10.135 -1.1102  0.7270 -1.2708
   24CHL1    O3 1705   3.503   3.468  10.293 -0.2326 -0.3267 -0.3710
   24CHL1   H3' 1706   3.541   3.391  10.336 -0.9607  0.8150  2.4071
   24CHL1    C4 1707   3.655   3.504  10.109  0.9031 -0.0199  0.4071
   24CHL1   H4A 1708   3.652   3.609  10.145 -0.1120 -0.1913  0.8317
   24CHL1   H4B 1709   3.733   3.449  10.167  1.4704 -0.0778 -0.4025
   24CHL1    C5 1710   3.679   3.491   9.965 -0.3439  0.3261  0.6331
   24CHL1    C6 1711   3.796   3.425   9.925 -0.1894 -0.8222  0.0440
   24CHL1    H6 1712   3.863   3.386  10.003  0.7988  0.6369 -0.0636
   24CHL1    C7 1713   3.829   3.395   9.780  0.0067 -0.7084 -0.1516
   24CHL1   H7A 1714   3.932   3.430   9.759 -0.2543 -0.1081 -0.4315
   24CHL1   H7B 1715   3.838   3.284   9.770 -2.3267 -0.9366 -0.0855
   24CHL1    C8 1716   3.732   3.474   9.685  0.8145  0.9521  0.5301
   24CHL1    H8 1717   3.758   3.582   9.689  0.1766  1.1234 -0.0479
   24CHL1   C14 1718   3.744   3.425   9.541 -0.0202  0.1614 -0.1326
   24CHL1   H14 1719   3.716   3.317   9.537  0.8129 -0.0205 -1.3250
   24CHL1   C15 1720   3.882   3.426   9.476  0.2736  0.4334 -0.0326
   24CHL1  H15A 1721   3.964   3.491   9.513  1.5069 -0.8984 -0.4146
   24CHL1  H15B 1722   3.929   3.326   9.483  0.1302  0.4195  0.7996
   24CHL1   C16 1723   3.846   3.457   9.326  0.5536  0.1569  0.2501
   24CHL1  H16A 1724   3.897   3.554   9.305  2.9578 -0.5498  2.5229
   24CHL1  H16B 1725   3.888   3.375   9.263  1.0810  0.0233  0.7745
   24CHL1   C17 1726   3.698   3.461   9.313  0.1622  0.2190  0.4693
   24CHL1   H17 1727   3.665   3.355   9.301  0.5244  0.1481  0.0541
   24CHL1   C13 1728   3.650   3.496   9.446  0.2300 -0.1949 -0.0113
   24CHL1   C18 1729   3.660   3.648   9.468  0.3226 -0.4395 -0.0231
   24CHL1  H18A 1730   3.767   3.677   9.469  0.1261  0.2810 -0.1062
   24CHL1  H18B 1731   3.609   3.696   9.382  1.1387 -0.5136 -0.5578
   24CHL1  H18C 1732   3.615   3.698   9.556  1.9560  0.8839  0.0844
   24CHL1   C12 1733   3.512   3.448   9.487  0.5851  0.4602  0.8880
   24CHL1  H12A 1734   3.440   3.496   9.417  2.3155 -0.0907 -1.3306
   24CHL1  H12B 1735   3.510   3.337   9.485 -0.3352  0.4917 -0.3327
   24CHL1   C11 1736   3.479   3.484   9.633 -0.0921 -0.2827  0.4959
   24CHL1  H11A 1737   3.458   3.593   9.629  0.1343 -0.1061  3.1699
   24CHL1  H11B 1738   3.387   3.431   9.666 -0.9806  0.6281 -0.4928
   24CHL1    C9 1739   3.590   3.452   9.735 -0.1964 -0.0150  0.0717
   24CHL1    H9 1740   3.575   3.343   9.744 -1.7151  0.1496 -0.2407
   24CHL1   C10 1741   3.562   3.525   9.868  0.6196  0.3981  0.2452
   24CHL1   C19 1742   3.577   3.684   9.856 -0.0826  0.0596  0.7524
   24CHL1  H19A 1743   3.487   3.729   9.809  0.1424  1.0868  1.2713
   24CHL1  H19B 1744   3.572   3.720   9.961  3.1597 -0.5248  1.1505
   24CHL1  H19C 1745   3.673   3.719   9.813  0.3128 -3.3385 -1.2121
   24CHL1    C1 1746   3.427   3.476   9.926  0.0609  0.1376 -0.4159
   24CHL1   H1A 1747   3.341   3.535   9.887 -2.7996 -3.2285  0.5655
   24CHL1   H1B 1748   3.418   3.366   9.915 -0.1075  0.3390 -2.4498
   24CHL1    C2 1749   3.405   3.495  10.076  0.2478  0.0983  0.3046
   24CHL1   H2A 1750   3.304   3.459  10.105 -0.1281  1.7942  1.1465
   24CHL1   H2B 1751   3.412   3.604  10.096  0.2637  0.5140 -1.8501
   24CHL1   C20 1752   3.659   3.543   9.189  0.4564  0.0936  1.1387
   24CHL1   H20 1753   3.695   3.647   9.203 -0.9203  0.7324  0.0873
   24CHL1   C21 1754   3.509   3.554   9.168  0.5552  0.6955  0.4102
   24CHL1  H21A 1755   3.469   3.451   9.178  0.9492  0.7150  2.4779
   24CHL1  H21B 1756   3.486   3.588   9.065  1.9572 -2.8536 -1.1169
   24CHL1  H21C 1757   3.451   3.620   9.236 -0.8105 -0.5656  0.4872
   24CHL1   C22 1758   3.726   3.496   9.060 -0.5451  0.4221 -0.2028
   24CHL1  H22A 1759   3.813   3.429   9.077 -0.3375  0.2396 -1.8865
   24CHL1  H22B 1760   3.655   3.431   9.004 -2.9368  0.3622  2.7687
   24CHL1   C23 1761   3.781   3.609   8.972 -0.5100 -0.3209 -0.5714
   24CHL1  H23A 1762   3.696   3.679   8.960 -0.1429  0.0986 -0.7441
   24CHL1  H23B 1763   3.870   3.653   9.023 -1.4657 -0.9684  1.6959
   24CHL1   C24 1764   3.823   3.558   8.826 -0.0125 -0.3778 -0.7537
   24CHL1  H24A 1765   3.893   3.475   8.848 -1.7973 -1.6849  0.1432
   24CHL1  H24B 1766   3.738   3.513   8.770 -0.0078  1.1675 -2.0492
   24CHL1   C25 1767   3.889   3.663   8.731 -0.9673 -0.0404 -0.1034
   24CHL1   H25 1768   3.987   3.698   8.768 -1.2080  1.7334 -1.0898
   24CHL1   C26 1769   3.903   3.600   8.589  0.2792  0.6666  0.8518
   24CHL1  H26A 1770   3.802   3.588   8.544  1.0092 -0.8269 -0.4189
   24CHL1  H26B 1771   3.987   3.654   8.539  1.8359 -1.7608  0.7503
   24CHL1  H26C 1772   3.938   3.496   8.609  0.2739  0.7592  1.3661
   24CHL1   C27 1773   3.806   3.791   8.715  0.1831 -0.9919 -0.8564
   24CHL1  H27A 1774   3.782   3.831   8.815  2.4674 -0.2485 -0.5658
   24CHL1  H27B 1775   3.860   3.869   8.657 -2.0525  0.1274 -1.4918
   24CHL1  H27C 1776   3.706   3.769   8.673  0.1981 -2.5188 -0.1284
   25CHL1    C3 1777   5.305   5.356  10.370 -0.3181  0.0754 -0.6470
   25CHL1    H3 1778   5.227   5.283  10.341 -0.1331 -1.1263  1.7339
   25CHL1    O3 1779   5.315   5.382  10.510 -0.7727  0.7798 -0.3659
   25CHL1   H3' 1780   5.245   5.446  10.525 -2.0911 -0.3241 -1.5977
   25CHL1    C4 1781   5.443   5.312  10.322 -0.1652  0.4214  0.7559
   25CHL1   H4A 1782   5.507   5.397  10.353 -0.6071  0.6365  1.0957
   25CHL1   H4B 1783   5.483   5.224  10.377  1.0898 -1.1010 -2.4670
   25CHL1    C5 1784   5.442   5.277  10.174  0.2454  0.0800  0.0484
   25CHL1    C6 1785   5.479   5.152  10.125  0.0314 -0.0993 -0.2069
   25CHL1    H6 1786   5.524   5.079  10.193  0.6928 -1.9123 -2.5402
   25CHL1    C7 1787   5.476   5.119   9.980  0.2230  0.1306 -0.8677
   25CHL1   H7A 1788   5.563   5.052   9.964  2.5545  2.4297  1.6936
   25CHL1   H7B 1789   5.390   5.053   9.956  0.0939 -0.7946  1.9577
   25CHL1    C8 1790   5.465   5.240   9.888  0.6170 -0.0719  0.6160
   25CHL1    H8 1791   5.565   5.289   9.885  1.6132 -2.1202 -1.2226
   25CHL1   C14 1792   5.429   5.193   9.746  0.1170  0.0962  0.0937
   25CHL1   H14 1793   5.326   5.152   9.752  0.5328 -1.3002 -1.7418
   25CHL1   C15 1794   5.516   5.079   9.678 -0.3667 -0.3700  0.5183
   25CHL1  H15A 1795   5.622   5.085   9.712 -1.0443  1.3440  2.4744
   25CHL1  H15B 1796   5.473   4.978   9.695  0.8002 -0.7371  1.3300
   25CHL1   C16 1797   5.485   5.107   9.531 -0.2381 -0.4665 -0.4007
   25CHL1  H16A 1798   5.580   5.117   9.473  0.3674  0.7908  0.7662
   25CHL1  H16B 1799   5.437   5.016   9.489 -1.5677 -0.2620  0.6592
   25CHL1   C17 1800   5.395   5.233   9.520 -0.3167  0.8908 -0.3489
   25CHL1   H17 1801   5.295   5.185   9.530 -0.1531  0.5059 -0.5593
   25CHL1   C13 1802   5.421   5.312   9.643  0.5673  0.7901 -0.1990
   25CHL1   C18 1803   5.559   5.370   9.624 -0.1398 -0.3963 -0.5302
   25CHL1  H18A 1804   5.625   5.307   9.561 -0.3692 -1.1608 -0.0133
   25CHL1  H18B 1805   5.545   5.460   9.560 -0.6856 -1.2251 -1.5930
   25CHL1  H18C 1806   5.623   5.399   9.710 -0.7793 -0.2636 -0.0949
   25CHL1   C12 1807   5.321   5.414   9.691  0.0402 -0.0659 -0.5332
   25CHL1  H12A 1808   5.347   5.505   9.633  0.3017  1.1918  1.5079
   25CHL1  H12B 1809   5.216   5.377   9.685  0.5094 -2.0192  2.2861
   25CHL1   C11 1810   5.352   5.459   9.835  0.2087  0.2574  0.0397
   25CHL1  H11A 1811   5.444   5.521   9.838  0.9145 -0.7130 -1.3156
   25CHL1  H11B 1812   5.274   5.528   9.875 -0.8467  0.1701 -1.7902
   25CHL1    C9 1813   5.364   5.343   9.935 -0.3793  0.1163  0.5229
   25CHL1    H9 1814   5.268   5.288   9.941 -0.7580  0.6972 -0.1622
   25CHL1   C10 1815   5.388   5.388  10.078  0.2851 -0.0842 -0.3998
   25CHL1   C19 1816   5.497   5.494  10.079  0.3657 -0.0370 -0.2335
   25CHL1  H19A 1817   5.470   5.589  10.028  1.0391  0.1733 -0.2042
   25CHL1  H19B 1818   5.523   5.526  10.182 -0.5621 -0.3448  0.1034
   25CHL1  H19C 1819   5.587   5.452  10.029 -1.6091 -2.4541 -1.8973
   25CHL1    C1 1820   5.253   5.442  10.140 -0.7157 -0.4336  0.1721
   25CHL1   H1A 1821   5.205   5.530  10.092 -1.1769 -0.4826  0.5405
   25CHL1   H1B 1822   5.177   5.361  10.127 -1.6030  0.2405  1.1312
   25CHL1    C2 1823   5.266   5.484  10.290  0.5728 -0.0916 -0.4839
   25CHL1   H2A 1824   5.170   5.525  10.329 -0.4190 -0.5668 -2.3516
   25CHL1   H2B 1825   5.334   5.572  10.288 -0.2465  0.6614  2.3592
   25CHL1   C20 1826   5.407   5.304   9.379 -0.4055  0.0324  0.6524
   25CHL1   H20 1827   5.513   5.338   9.372 -0.8186  1.2009 -0.0668
   25CHL1   C21 1828   5.304   5.421   9.371 -0.6153 -0.2041  0.1974
   25CHL1  H21A 1829   5.307   5.462   9.267 -1.2319 -1.9411 -0.5196
   25CHL1  H21B 1830   5.333   5.510   9.430  0.2236 -0.2635 -0.1139
   25CHL1  H21C 1831   5.202   5.385   9.393 -1.1654  1.1112 -0.1534
   25CHL1   C22 1832   5.374   5.213   9.255  0.0984  0.2697  0.1595
   25CHL1  H22A 1833   5.406   5.108   9.272  2.9863  1.0384 -0.2236
   25CHL1  H22B 1834   5.266   5.201   9.234  0.1717 -1.8041  0.9506
   25CHL1   C23 1835   5.439   5.269   9.133  0.3135  0.2190 -0.0105
   25CHL1  H23A 1836   5.438   5.380   9.123  1.3863  0.2992  0.7259
   25CHL1  H23B 1837   5.546   5.242   9.145  0.3459  0.0218 -0.6962
   25CHL1   C24 1838   5.391   5.210   9.006 -0.1423 -0.1102 -0.4359
   25CHL1  H24A 1839   5.401   5.100   9.015 -0.0454 -0.0827 -0.2002
   25CHL1  H24B 1840   5.283   5.234   8.999 -0.2910 -0.4572  0.7024
   25CHL1   C25 1841   5.444   5.262   8.867  0.8475 -0.0381  0.0633
   25CHL1   H25 1842   5.461   5.372   8.867  0.7316 -0.0150 -1.4385
   25CHL1   C26 1843   5.581   5.200   8.837 -0.4588 -0.8982 -0.5032
   25CHL1  H26A 1844   5.567   5.094   8.806 -0.6454 -0.7779 -0.8307
   25CHL1  H26B 1845   5.629   5.262   8.758 -1.7974 -0.6092 -1.1007
   25CHL1  H26C 1846   5.640   5.204   8.932 -1.1618  0.3329 -0.1101
   25CHL1   C27 1847   5.343   5.227   8.755  0.2248 -0.5391  0.6415
   25CHL1  H27A 1848   5.376   5.268   8.657 -0.0403  1.2203  1.2610
   25CHL1  H27B 1849   5.340   5.117   8.744 -2.7937 -0.6897  2.3951
   25CHL1  H27C 1850   5.243   5.264   8.787 -0.3850  0.9936 -2.8204
   26CHL1    C3 1851   6.750   1.497  10.283  0.2172  0.3155 -0.2217
   26CHL1    H3 1852   6.668   1.570  10.266  0.7284  0.4578 -2.1272
   26CHL1    O3 1853   6.772   1.500  10.417  0.1548 -0.4098 -0.3771
   26CHL1   H3' 1854   6.858   1.455  10.415  2.0929  3.1209 -3.5388
   26CHL1    C4 1855   6.704   1.358  10.239  0.7075 -0.0894  0.2173
   26CHL1   H4A 1856   6.766   1.275  10.279  0.3510 -0.4004  0.1207
   26CHL1   H4B 1857   6.604   1.344  10.285  1.0711 -0.2318  0.9669
   26CHL1    C5 1858   6.679   1.331  10.093 -0.0680 -0.2088  0.4723
   26CHL1    C6 1859   6.565   1.286  10.035 -0.6854 -0.9716 -1.0430
   26CHL1    H6 1860   6.472   1.270  10.090 -1.1417 -1.2944 -1.9018
   26CHL1    C7 1861   6.554   1.268   9.891  0.2451 -0.1579 -0.0708
   26CHL1   H7A 1862   6.516   1.165   9.876 -0.3321 -0.0201  0.4171
   26CHL1   H7B 1863   6.483   1.347   9.862 -0.1068 -0.0802  0.9636
   26CHL1    C8 1864   6.691   1.272   9.813 -0.8622  0.5515  0.5903
   26CHL1    H8 1865   6.749   1.178   9.831 -0.8793  0.2993 -0.6178
   26CHL1   C14 1866   6.662   1.287   9.662  0.2340  0.7606 -0.5779
   26CHL1   H14 1867   6.606   1.382   9.644  1.0252  1.3835  0.1828
   26CHL1   C15 1868   6.574   1.187   9.595 -0.1417 -0.3231  0.5279
   26CHL1  H15A 1869   6.614   1.087   9.622  1.4935 -0.1569 -1.2161
   26CHL1  H15B 1870   6.467   1.192   9.625 -0.2660  1.3884 -0.1912
   26CHL1   C16 1871   6.596   1.204   9.441  0.6775  0.1734 -1.0688
   26CHL1  H16A 1872   6.626   1.104   9.403 -0.5180 -0.3257 -0.7213
   26CHL1  H16B 1873   6.503   1.228   9.385 -0.9857 -2.3906  0.4989
   26CHL1   C17 1874   6.711   1.307   9.431 -0.1589  0.0560  0.0591
   26CHL1   H17 1875   6.665   1.409   9.424 -1.0299 -0.0488  3.4495
   26CHL1   C13 1876   6.785   1.300   9.570 -0.0229 -0.1610 -0.4222
   26CHL1   C18 1877   6.877   1.173   9.582 -0.3999  0.2507 -0.2052
   26CHL1  H18A 1878   6.813   1.086   9.555 -0.6637  0.4217 -0.1326
   26CHL1  H18B 1879   6.970   1.182   9.521 -1.2385  0.2174 -1.4959
   26CHL1  H18C 1880   6.902   1.159   9.690  0.6521  3.1167 -0.0302
   26CHL1   C12 1881   6.852   1.422   9.616 -0.2626 -0.5412 -0.4891
   26CHL1  H12A 1882   6.941   1.442   9.552  1.3067 -1.6542  1.3414
   26CHL1  H12B 1883   6.781   1.508   9.606 -1.4672 -1.4810 -0.1290
   26CHL1   C11 1884   6.892   1.418   9.763  0.4893  0.5173 -1.3306
   26CHL1  H11A 1885   6.966   1.338   9.785 -2.3766 -1.8474 -0.0159
   26CHL1  H11B 1886   6.940   1.516   9.786  0.0586  0.4520 -0.1357
   26CHL1    C9 1887   6.773   1.389   9.854 -0.1961 -0.5188  0.6445
   26CHL1    H9 1888   6.698   1.470   9.842 -0.2807 -0.7254 -0.2744
   26CHL1   C10 1889   6.806   1.381  10.004  0.0976 -0.7319  0.2531
   26CHL1   C19 1890   6.907   1.274  10.043 -0.3619  0.4291  0.1558
   26CHL1  H19A 1891   6.874   1.174  10.007  3.5818 -1.0473  0.4411
   26CHL1  H19B 1892   7.007   1.299  10.004 -0.3834  2.2369  1.1905
   26CHL1  H19C 1893   6.921   1.263  10.153 -1.6802 -0.0907  0.2802
   26CHL1    C1 1894   6.851   1.525  10.051  0.3270 -0.3965  0.1632
   26CHL1   H1A 1895   6.951   1.551  10.010  0.2963  0.4739  0.6364
   26CHL1   H1B 1896   6.772   1.600  10.027  0.0560 -0.7362 -0.0288
   26CHL1    C2 1897   6.873   1.539  10.202  0.0197 -0.1913  0.2517
   26CHL1   H2A 1898   6.902   1.644  10.225 -0.8241 -0.1148  0.9861
   26CHL1   H2B 1899   6.960   1.475  10.227  0.0265 -0.2071  0.1886
   26CHL1   C20 1900   6.789   1.282   9.299  0.0352 -0.7350  0.5357
   26CHL1   H20 1901   6.831   1.179   9.294  0.3135 -0.5437 -1.2476
   26CHL1   C21 1902   6.907   1.382   9.293 -0.5756 -0.4440 -0.5254
   26CHL1  H21A 1903   6.988   1.363   9.366 -1.7935  0.7367  1.1793
   26CHL1  H21B 1904   6.871   1.481   9.329  3.4621  0.9060  0.0332
   26CHL1  H21C 1905   6.960   1.382   9.196  1.8775  1.3512  0.7370
   26CHL1   C22 1906   6.694   1.300   9.173 -0.8053 -0.2130 -0.0305
   26CHL1  H22A 1907   6.591   1.259   9.187 -0.5728 -0.8530 -0.1871
   26CHL1  H22B 1908   6.683   1.408   9.148 -0.7576 -0.9895 -3.7770
   26CHL1   C23 1909   6.753   1.232   9.052  0.2381  0.5789  1.2156
   26CHL1  H23A 1910   6.851   1.282   9.034  1.3547 -2.2976 -0.9744
   26CHL1  H23B 1911   6.764   1.125   9.077 -0.5589  0.9309  3.1873
   26CHL1   C24 1912   6.683   1.256   8.914  0.6765  0.0863 -0.2294
   26CHL1  H24A 1913   6.577   1.227   8.927  0.6120  0.3606 -0.1313
   26CHL1  H24B 1914   6.681   1.364   8.888  0.7153  0.2946  0.6367
   26CHL1   C25 1915   6.739   1.158   8.814  0.0730  0.3342 -0.3333
   26CHL1   H25 1916   6.755   1.061   8.864 -0.8096 -1.2454 -3.0253
   26CHL1   C26 1917   6.641   1.129   8.703  0.3640 -0.5921  0.4854
   26CHL1  H26A 1918   6.537   1.112   8.740  0.4269 -1.0628  0.4438
   26CHL1  H26B 1919   6.639   1.217   8.635 -0.1489 -1.1221 -0.1955
   26CHL1  H26C 1920   6.657   1.039   8.639 -0.0039 -0.3747  0.0787
   26CHL1   C27 1921   6.882   1.202   8.768 -0.7875 -0.0499 -0.0803
   26CHL1  H27A 1922   6.919   1.117   8.708  1.7413  0.5648  0.5522
   26CHL1  H27B 1923   6.873   1.292   8.703  0.6796 -0.3518 -0.7092
   26CHL1  H27C 1924   6.950   1.212   8.856 -2.0710  3.2931  0.6250
   27CHL1    C3 1925   6.002   5.338  10.315 -0.2037 -0.3463 -0.0639
   27CHL1    H3 1926   5.928   5.411  10.276 -0.0490 -0.0676  0.1585
   27CHL1    O3 1927   5.973   5.320  10.450 -0.3610 -0.8361  0.6734
   27CHL1   H3' 1928   6.034   5.253  10.484  1.5070  0.2831 -0.3537
   27CHL1    C4 1929   5.982   5.202  10.232  0.3940 -0.3118 -0.0350
   27CHL1   H4A 1930   6.050   5.124  10.274  0.1267  0.0299  1.0518
   27CHL1   H4B 1931   5.884   5.156  10.258  0.5379  0.3285  1.7097
   27CHL1    C5 1932   5.991   5.225  10.084 -0.6582  0.4580 -0.1880
   27CHL1    C6 1933   5.900   5.195   9.993  0.3212 -0.6125  0.6039
   27CHL1    H6 1934   5.817   5.134  10.033 -0.3247 -1.3059 -1.6972
   27CHL1    C7 1935   5.908   5.215   9.842  0.0999  0.3949  0.6151
   27CHL1   H7A 1936   5.859   5.136   9.781  1.8260  0.2689 -0.6381
   27CHL1   H7B 1937   5.865   5.317   9.828 -0.2166  0.0995 -0.6273
   27CHL1    C8 1938   6.052   5.229   9.791  0.4206  1.0454  0.0240
   27CHL1    H8 1939   6.105   5.132   9.798 -0.7878  0.3070 -0.8430
   27CHL1   C14 1940   6.059   5.263   9.640 -0.1260 -0.3053 -0.6512
   27CHL1   H14 1941   6.020   5.367   9.638 -0.8381 -0.5568 -0.0278
   27CHL1   C15 1942   5.988   5.175   9.538  0.0133  0.5256  1.4745
   27CHL1  H15A 1943   5.989   5.071   9.576 -0.9722 -0.2979 -0.6612
   27CHL1  H15B 1944   5.880   5.200   9.523  0.3744 -0.0023 -2.5838
   27CHL1   C16 1945   6.066   5.193   9.407 -0.5920 -0.8591  0.0422
   27CHL1  H16A 1946   6.110   5.096   9.375  0.2863 -0.7027  0.7454
   27CHL1  H16B 1947   5.999   5.220   9.323 -2.1940 -2.3796  0.8004
   27CHL1   C17 1948   6.179   5.300   9.433  0.4756 -0.4949 -0.1716
   27CHL1   H17 1949   6.134   5.400   9.419 -0.8590 -0.9206  1.0175
   27CHL1   C13 1950   6.206   5.277   9.587 -0.1088 -0.2551 -0.0939
   27CHL1   C18 1951   6.289   5.143   9.601 -0.1598  0.4711  0.3722
   27CHL1  H18A 1952   6.391   5.145   9.559  0.4424 -0.9812  1.7117
   27CHL1  H18B 1953   6.295   5.107   9.706  0.2363 -3.7710 -1.0034
   27CHL1  H18C 1954   6.238   5.065   9.540  0.6844 -0.8316  1.2997
   27CHL1   C12 1955   6.269   5.396   9.664 -0.4984  0.3994 -0.4672
   27CHL1  H12A 1956   6.378   5.408   9.644 -0.4240 -0.9400 -0.8932
   27CHL1  H12B 1957   6.219   5.492   9.641  1.9773  1.6099 -0.9993
   27CHL1   C11 1958   6.261   5.374   9.816  0.4176  0.4596  0.2444
   27CHL1  H11A 1959   6.326   5.287   9.838  2.3224  1.5302 -1.0444
   27CHL1  H11B 1960   6.295   5.463   9.873 -1.0063  0.8467  0.5264
   27CHL1    C9 1961   6.124   5.332   9.880 -0.1490  0.6780 -0.1680
   27CHL1    H9 1962   6.066   5.426   9.869 -0.5965  0.3645 -0.4982
   27CHL1   C10 1963   6.121   5.293  10.034  0.2403 -0.1352  0.4148
   27CHL1   C19 1964   6.237   5.192  10.066 -0.1784  0.6878  0.0963
   27CHL1  H19A 1965   6.337   5.240  10.058  0.5216 -0.3706  2.1021
   27CHL1  H19B 1966   6.242   5.160  10.172 -1.7783 -1.6702 -0.4896
   27CHL1  H19C 1967   6.236   5.102  10.000 -1.7601  1.3985 -0.8644
   27CHL1    C1 1968   6.140   5.428  10.124  0.2388  0.1711  0.3039
   27CHL1   H1A 1969   6.237   5.477  10.100  0.8256 -2.0179 -2.0970
   27CHL1   H1B 1970   6.058   5.494  10.090 -1.7993 -1.9621  0.9866
   27CHL1    C2 1971   6.140   5.393  10.277  0.3917  0.3891  0.9967
   27CHL1   H2A 1972   6.153   5.494  10.321 -0.2608  1.6475 -1.6151
   27CHL1   H2B 1973   6.225   5.329  10.309 -1.3217 -2.8402 -0.6198
   27CHL1   C20 1974   6.303   5.289   9.346 -0.2747  0.2312  0.1925
   27CHL1   H20 1975   6.347   5.187   9.351 -3.7886 -1.3076  1.2330
   27CHL1   C21 1976   6.398   5.404   9.383 -0.3390 -0.2256  0.7344
   27CHL1  H21A 1977   6.455   5.372   9.474 -0.6255  0.1218  1.0353
   27CHL1  H21B 1978   6.345   5.498   9.409 -1.1503 -0.7876  1.1169
   27CHL1  H21C 1979   6.468   5.432   9.302  0.5120 -2.4872  0.6356
   27CHL1   C22 1980   6.275   5.310   9.195 -0.4719  0.8409 -0.3640
   27CHL1  H22A 1981   6.206   5.224   9.180  0.8507 -0.0297 -1.4821
   27CHL1  H22B 1982   6.225   5.408   9.180 -1.4322  0.5112  0.5604
   27CHL1   C23 1983   6.399   5.278   9.108  0.3203 -0.3577 -0.0750
   27CHL1  H23A 1984   6.440   5.375   9.075 -0.8934  0.6087  1.1938
   27CHL1  H23B 1985   6.477   5.217   9.157 -0.7787 -1.3364  0.5039
   27CHL1   C24 1986   6.372   5.197   8.985  0.2696 -0.0155 -0.6034
   27CHL1  H24A 1987   6.386   5.091   9.015  0.3785  0.5286  1.3181
   27CHL1  H24B 1988   6.267   5.196   8.948 -0.4655 -1.3462  1.4702
   27CHL1   C25 1989   6.450   5.242   8.860 -0.1229 -0.3961 -0.0027
   27CHL1   H25 1990   6.430   5.350   8.843 -1.1312 -0.6787 -0.6726
   27CHL1   C26 1991   6.607   5.232   8.877 -0.4860 -0.1069 -0.9039
   27CHL1  H26A 1992   6.633   5.124   8.886  3.6895  0.9595  1.2053
   27CHL1  H26B 1993   6.650   5.252   8.777  3.5017 -0.1403  0.6985
   27CHL1  H26C 1994   6.639   5.295   8.963 -1.7748 -1.7079  0.7989
   27CHL1   C27 1995   6.405   5.168   8.732  0.4294  0.1735  1.1032
   27CHL1  H27A 1996   6.310   5.211   8.696  1.0375  0.8160  0.2540
   27CHL1  H27B 1997   6.490   5.176   8.661 -1.9853  0.3268 -1.8160
   27CHL1  H27C 1998   6.395   5.059   8.749  1.2664 -0.0306  0.3676
   28CHL1    C3 1999   4.922   3.760   9.964  0.6708 -0.4719  0.6164
   28CHL1    H3 2000   4.836   3.830   9.948  0.9977 -0.2387 -0.1593
   28CHL1    O3 2001   4.937   3.763  10.105  0.6561 -0.1316  0.4794
   28CHL1   H3' 2002   5.023   3.802  10.122 -0.1989  2.3216 -0.4499
   28CHL1    C4 2003   4.888   3.618   9.915 -0.5092 -0.3745 -0.6084
   28CHL1   H4A 2004   4.970   3.550   9.946  1.1237  1.8738  0.1354
   28CHL1   H4B 2005   4.802   3.590   9.978 -0.0213 -0.0786  0.1893
   28CHL1    C5 2006   4.863   3.613   9.761 -0.4213 -0.7922 -0.4498
   28CHL1    C6 2007   4.744   3.572   9.712  0.3799 -0.1072  0.3824
   28CHL1    H6 2008   4.678   3.521   9.784  1.0679 -1.8284 -0.1714
   28CHL1    C7 2009   4.714   3.566   9.565 -0.3071  0.0952  0.2123
   28CHL1   H7A 2010   4.671   3.466   9.544 -0.5205  0.2458 -0.0823
   28CHL1   H7B 2011   4.643   3.650   9.547  0.5788  1.0375  1.0849
   28CHL1    C8 2012   4.833   3.600   9.471  0.0530 -0.3416  0.2818
   28CHL1    H8 2013   4.899   3.515   9.441  0.1152 -0.8068  1.6908
   28CHL1   C14 2014   4.782   3.655   9.338 -0.1427  0.1198  0.3306
   28CHL1   H14 2015   4.712   3.737   9.365 -1.4119 -0.8097 -0.0791
   28CHL1   C15 2016   4.695   3.556   9.251  0.0645 -0.0342  0.2563
   28CHL1  H15A 2017   4.732   3.454   9.275 -1.2827 -0.3108  1.1828
   28CHL1  H15B 2018   4.586   3.560   9.274 -0.0428  0.8979 -0.3747
   28CHL1   C16 2019   4.706   3.607   9.105 -0.0064 -0.1698 -0.4481
   28CHL1  H16A 2020   4.751   3.532   9.037 -0.6297 -2.4335  1.5808
   28CHL1  H16B 2021   4.606   3.635   9.067  0.0332  1.2020  0.4119
   28CHL1   C17 2022   4.787   3.737   9.124  0.0043 -0.1710 -0.2563
   28CHL1   H17 2023   4.714   3.814   9.156  0.3188 -0.6188  1.6038
   28CHL1   C13 2024   4.884   3.716   9.243 -0.7620 -0.0890  0.0988
   28CHL1   C18 2025   4.993   3.614   9.203 -0.1745  0.7538 -0.6340
   28CHL1  H18A 2026   4.956   3.528   9.144 -0.1972 -0.1912  0.7429
   28CHL1  H18B 2027   5.064   3.672   9.139  0.4991  0.2359 -0.3567
   28CHL1  H18C 2028   5.056   3.584   9.289 -2.5686 -1.8087  0.2889
   28CHL1   C12 2029   4.945   3.833   9.309  0.0855  0.0764 -0.6816
   28CHL1  H12A 2030   5.024   3.872   9.241 -1.0810 -0.2637 -2.2470
   28CHL1  H12B 2031   4.866   3.910   9.322  0.7179  0.3348  2.0449
   28CHL1   C11 2032   5.011   3.801   9.447 -0.0447  0.1650  0.1904
   28CHL1  H11A 2033   5.109   3.751   9.432 -0.6034 -1.0493  0.5430
   28CHL1  H11B 2034   5.041   3.891   9.506 -1.7540  0.9385 -0.0880
   28CHL1    C9 2035   4.912   3.711   9.533  0.0621 -0.2190  0.0571
   28CHL1    H9 2036   4.833   3.787   9.551  0.1633 -0.3176  0.9574
   28CHL1   C10 2037   4.976   3.684   9.670  0.2645 -0.0875 -0.6105
   28CHL1   C19 2038   5.090   3.581   9.659  0.1847 -0.4692 -0.9241
   28CHL1  H19A 2039   5.055   3.495   9.598 -2.5093  1.0345 -1.5672
   28CHL1  H19B 2040   5.175   3.624   9.602  0.4788  0.4110  0.1534
   28CHL1  H19C 2041   5.129   3.547   9.757  0.2354 -0.2271 -0.8611
   28CHL1    C1 2042   5.015   3.818   9.739  0.8925 -0.0101 -0.4472
   28CHL1   H1A 2043   5.109   3.857   9.695 -0.0042  0.1336 -2.2720
   28CHL1   H1B 2044   4.933   3.888   9.711 -1.0192 -1.0367  2.3226
   28CHL1    C2 2045   5.042   3.816   9.890  0.0318  0.3938 -0.1678
   28CHL1   H2A 2046   5.064   3.911   9.943 -1.8821  0.2132  1.0077
   28CHL1   H2B 2047   5.124   3.742   9.905 -0.3110  0.1821  0.7377
   28CHL1   C20 2048   4.846   3.800   8.998  0.2049  0.6673  1.4150
   28CHL1   H20 2049   4.949   3.762   8.979 -0.5386 -0.3508 -0.8225
   28CHL1   C21 2050   4.855   3.952   9.013 -0.1708  0.0314  0.2956
   28CHL1  H21A 2051   4.917   3.980   9.101  1.4455 -1.9084 -0.1967
   28CHL1  H21B 2052   4.755   4.001   9.017  0.5621  1.4838  1.0442
   28CHL1  H21C 2053   4.920   3.989   8.931  0.5762 -2.1870 -0.1437
   28CHL1   C22 2054   4.757   3.765   8.874 -0.3347 -0.4046 -0.1987
   28CHL1  H22A 2055   4.736   3.657   8.860  0.2920 -0.3679 -1.4616
   28CHL1  H22B 2056   4.662   3.814   8.904  0.5048 -0.2181  2.2718
   28CHL1   C23 2057   4.802   3.840   8.751  0.4651 -0.1190  0.1431
   28CHL1  H23A 2058   4.806   3.951   8.761  2.6659 -0.2805  1.4629
   28CHL1  H23B 2059   4.904   3.807   8.722  0.0948 -0.4031 -0.8431
   28CHL1   C24 2060   4.702   3.822   8.631  0.4582 -0.4555  0.6940
   28CHL1  H24A 2061   4.694   3.714   8.605  2.8192 -0.9717  1.9760
   28CHL1  H24B 2062   4.608   3.876   8.654  0.2332 -0.2297 -0.6803
   28CHL1   C25 2063   4.751   3.895   8.502 -0.1005 -0.4354  0.0240
   28CHL1   H25 2064   4.782   3.994   8.542 -0.4336 -0.0238 -0.7331
   28CHL1   C26 2065   4.861   3.818   8.431 -0.1667 -0.2534  0.2154
   28CHL1  H26A 2066   4.819   3.727   8.384 -0.0652  0.8493 -2.0921
   28CHL1  H26B 2067   4.899   3.876   8.344  1.3618  0.4367  1.3161
   28CHL1  H26C 2068   4.946   3.801   8.501  2.0541  2.0521 -1.7871
   28CHL1   C27 2069   4.636   3.911   8.405  0.5840 -0.1051  0.0868
   28CHL1  H27A 2070   4.668   3.981   8.325 -1.3138 -1.0761 -1.5370
   28CHL1  H27B 2071   4.615   3.809   8.369  0.8147  0.1121 -0.6616
   28CHL1  H27C 2072   4.553   3.956   8.463  0.3194  0.2288 -0.5440
   29CHL1    C3 2073   6.282   1.935   6.654  0.4515  0.2173  0.3721
   29CHL1    H3 2074   6.276   1.824   6.655  0.3760  0.2013 -1.0772
   29CHL1    O3 2075   6.278   1.966   6.518 -0.0868  0.2012 -0.4128
   29CHL1   H3' 2076   6.269   2.062   6.521  2.7409  0.5358 -1.4384
   29CHL1    C4 2077   6.158   2.003   6.723 -0.0792  0.5683 -0.1478
   29CHL1   H4A 2078   6.165   2.110   6.692  1.3051  0.9329  1.3927
   29CHL1   H4B 2079   6.062   1.965   6.680 -0.5200  1.0594  0.3895
   29CHL1    C5 2080   6.160   1.987   6.873 -0.6854  0.2299 -0.4074
   29CHL1    C6 2081   6.051   1.930   6.936 -0.5350 -0.1563 -0.2268
   29CHL1    H6 2082   5.967   1.922   6.865 -1.1727  2.2035  0.1898
   29CHL1    C7 2083   6.035   1.908   7.080 -0.3775  0.8219  0.2954
   29CHL1   H7A 2084   5.943   1.949   7.126  0.6544  1.9304  1.4025
   29CHL1   H7B 2085   6.032   1.798   7.089 -1.4717  0.7714 -0.5547
   29CHL1    C8 2086   6.156   1.968   7.162  0.5717 -0.9702  0.1348
   29CHL1    H8 2087   6.132   2.075   7.182  0.9118 -0.5466 -1.6157
   29CHL1   C14 2088   6.152   1.901   7.296  0.0640  0.1580  0.5763
   29CHL1   H14 2089   6.164   1.792   7.279 -1.5504 -0.0578  0.6865
   29CHL1   C15 2090   6.014   1.901   7.381  0.2103 -1.3600 -0.1525
   29CHL1  H15A 2091   5.951   1.991   7.364 -2.4646 -3.2973 -0.6918
   29CHL1  H15B 2092   5.957   1.811   7.351  0.9516 -1.8030 -0.2679
   29CHL1   C16 2093   6.071   1.879   7.524 -0.1002 -0.5705 -0.3118
   29CHL1  H16A 2094   6.052   1.973   7.580  3.4862 -0.8203  1.4327
   29CHL1  H16B 2095   6.041   1.791   7.585  2.0968 -0.7657  0.5337
   29CHL1   C17 2096   6.226   1.869   7.501  0.6241  0.3928  0.5887
   29CHL1   H17 2097   6.229   1.760   7.479  0.6280  0.8325 -1.6800
   29CHL1   C13 2098   6.261   1.952   7.382 -0.0456  0.0915 -0.6911
   29CHL1   C18 2099   6.252   2.102   7.415  0.6122 -0.5900 -0.0632
   29CHL1  H18A 2100   6.259   2.162   7.321 -0.7729 -1.4449 -0.7281
   29CHL1  H18B 2101   6.151   2.120   7.456  0.4276 -2.2193  0.2449
   29CHL1  H18C 2102   6.335   2.129   7.483  0.1053  0.1002  0.2868
   29CHL1   C12 2103   6.397   1.921   7.317  0.6303  0.0393  0.1381
   29CHL1  H12A 2104   6.475   1.943   7.393  0.6548 -4.6516  1.5836
   29CHL1  H12B 2105   6.401   1.812   7.299 -1.7745  0.2145 -1.7693
   29CHL1   C11 2106   6.417   1.997   7.181  0.1819  0.0186  0.3776
   29CHL1  H11A 2107   6.421   2.108   7.190 -1.5662  0.1046  0.1580
   29CHL1  H11B 2108   6.499   1.948   7.123  0.8723  0.8872  0.6051
   29CHL1    C9 2109   6.291   1.961   7.088 -0.9299  0.2985  0.1031
   29CHL1    H9 2110   6.302   1.852   7.072 -1.2820  0.3093 -0.2113
   29CHL1   C10 2111   6.288   2.024   6.941 -0.0238  0.8208  0.4848
   29CHL1   C19 2112   6.304   2.177   6.962  0.0480  0.4160 -0.1030
   29CHL1  H19A 2113   6.300   2.226   6.863  0.2019 -1.5148 -1.0987
   29CHL1  H19B 2114   6.224   2.202   7.034  0.6669 -0.2766  0.8353
   29CHL1  H19C 2115   6.404   2.192   7.008  1.9493 -0.1927 -3.7909
   29CHL1    C1 2116   6.413   1.970   6.862  0.0978 -0.3249  0.4003
   29CHL1   H1A 2117   6.502   2.023   6.903  1.1172 -0.9488 -0.9775
   29CHL1   H1B 2118   6.419   1.861   6.884  0.9870 -0.0830  1.4032
   29CHL1    C2 2119   6.406   2.000   6.713  0.3239 -0.3230 -1.0268
   29CHL1   H2A 2120   6.497   1.973   6.656 -0.3985 -3.3321 -0.8626
   29CHL1   H2B 2121   6.395   2.110   6.712 -1.1687 -0.4278  0.4008
   29CHL1   C20 2122   6.324   1.893   7.620  0.6165  0.0080 -0.6255
   29CHL1   H20 2123   6.377   1.988   7.594  0.6463  0.2907  0.4324
   29CHL1   C21 2124   6.427   1.780   7.632  0.1622 -0.5158 -0.0328
   29CHL1  H21A 2125   6.457   1.767   7.526  1.4381  0.9652  0.1270
   29CHL1  H21B 2126   6.387   1.686   7.675 -0.4369 -1.3710 -2.4133
   29CHL1  H21C 2127   6.514   1.818   7.691 -0.9776 -0.5126  1.6796
   29CHL1   C22 2128   6.255   1.925   7.758  0.0841  0.0315  0.6227
   29CHL1  H22A 2129   6.201   2.020   7.736  1.0518  0.4521  0.0295
   29CHL1  H22B 2130   6.187   1.837   7.765 -1.4475  1.1033 -0.4509
   29CHL1   C23 2131   6.339   1.934   7.887  0.0605 -0.2363 -0.1149
   29CHL1  H23A 2132   6.371   1.828   7.894  1.3405  0.0400 -1.6134
   29CHL1  H23B 2133   6.429   1.998   7.897  0.4198 -0.5161 -1.4604
   29CHL1   C24 2134   6.244   1.960   8.010 -0.3891 -0.0395  0.1306
   29CHL1  H24A 2135   6.187   2.055   8.003 -0.4740 -0.1131 -0.1948
   29CHL1  H24B 2136   6.166   1.881   8.015  0.2338 -0.6923 -0.3922
   29CHL1   C25 2137   6.320   1.974   8.145  0.4574  0.8399 -0.0177
   29CHL1   H25 2138   6.407   2.042   8.130  1.4880  0.1476  2.4656
   29CHL1   C26 2139   6.223   2.009   8.261 -0.1311  0.1111 -0.1772
   29CHL1  H26A 2140   6.285   2.030   8.351 -2.3848  0.7386  1.2796
   29CHL1  H26B 2141   6.158   2.097   8.242 -0.8846 -0.0487  1.5311
   29CHL1  H26C 2142   6.168   1.913   8.272  0.8519 -0.5677 -1.1048
   29CHL1   C27 2143   6.402   1.849   8.190 -0.0536 -0.6125  0.4165
   29CHL1  H27A 2144   6.487   1.831   8.120 -1.3196  0.3328 -1.3802
   29CHL1  H27B 2145   6.438   1.872   8.293 -0.1533  3.2918 -0.3502
   29CHL1  H27C 2146   6.326   1.768   8.197 -1.1359  0.3822  0.3236
   30CHL1    C3 2147   4.576   0.597   7.283 -0.3352 -0.2319 -0.1891
   30CHL1    H3 2148   4.628   0.508   7.324 -1.6466 -1.9173 -2.1139
   30CHL1    O3 2149   4.525   0.551   7.159 -0.0742 -0.0537 -0.0576
   30CHL1   H3' 2150   4.589   0.571   7.090  2.7034 -0.5750  2.2415
   30CHL1    C4 2151   4.466   0.640   7.375  0.5110 -0.0640  0.4446
   30CHL1   H4A 2152   4.409   0.730   7.344  2.1062  1.3633  1.5638
   30CHL1   H4B 2153   4.393   0.556   7.378  0.0361  0.2745 -1.0173
   30CHL1    C5 2154   4.525   0.675   7.507 -0.0503  0.5017  1.1793
   30CHL1    C6 2155   4.490   0.612   7.616 -0.5358 -0.3915 -0.1489
   30CHL1    H6 2156   4.412   0.534   7.619  1.8032 -2.7955  0.5366
   30CHL1    C7 2157   4.556   0.633   7.750  0.9354 -0.2549  0.1130
   30CHL1   H7A 2158   4.483   0.622   7.833 -0.0121 -1.0106 -0.8161
   30CHL1   H7B 2159   4.618   0.543   7.770  2.5908  1.1284  1.3800
   30CHL1    C8 2160   4.634   0.764   7.763 -0.0651 -0.9608  0.7393
   30CHL1    H8 2161   4.567   0.851   7.776 -0.1932 -1.3104  2.4357
   30CHL1   C14 2162   4.723   0.766   7.885  0.3731 -0.1566 -0.2182
   30CHL1   H14 2163   4.801   0.690   7.862  0.8332 -0.1380  1.1637
   30CHL1   C15 2164   4.668   0.723   8.020 -0.2121  0.1308  0.2936
   30CHL1  H15A 2165   4.580   0.784   8.047  0.0816  0.4034  0.6332
   30CHL1  H15B 2166   4.641   0.615   8.025 -1.5701  0.5025  1.2698
   30CHL1   C16 2167   4.776   0.759   8.120  0.0076  0.4469  0.1664
   30CHL1  H16A 2168   4.743   0.827   8.201 -0.9611  0.2758 -0.0719
   30CHL1  H16B 2169   4.817   0.663   8.159  2.4772  0.9950 -0.9664
   30CHL1   C17 2170   4.884   0.847   8.041  0.1618 -0.1363  0.3218
   30CHL1   H17 2171   4.957   0.769   8.010 -2.1686 -1.7326 -1.3029
   30CHL1   C13 2172   4.818   0.885   7.910  0.1852 -1.1081  0.2842
   30CHL1   C18 2173   4.727   1.016   7.945  0.2118  0.7820 -0.2080
   30CHL1  H18A 2174   4.788   1.109   7.949  1.8618 -0.2425 -0.8043
   30CHL1  H18B 2175   4.657   1.030   7.860  2.7354  0.3128 -2.4495
   30CHL1  H18C 2176   4.661   0.999   8.033  1.4006 -0.0879  0.5269
   30CHL1   C12 2177   4.900   0.913   7.777 -0.8720  0.1163 -0.4763
   30CHL1  H12A 2178   4.952   1.009   7.794 -1.8182  0.6210 -0.3469
   30CHL1  H12B 2179   4.967   0.826   7.757 -0.2780  0.3797  0.3451
   30CHL1   C11 2180   4.813   0.915   7.654  0.4173 -0.2102 -0.2304
   30CHL1  H11A 2181   4.761   1.012   7.661  1.9649  0.5258  1.3173
   30CHL1  H11B 2182   4.886   0.927   7.571  0.7147  0.5456  0.1428
   30CHL1    C9 2183   4.716   0.786   7.633  0.2373 -0.3681 -0.3276
   30CHL1    H9 2184   4.790   0.703   7.624  1.8473  1.0950 -0.8146
   30CHL1   C10 2185   4.633   0.777   7.511 -0.1331  0.1953  1.2213
   30CHL1   C19 2186   4.565   0.909   7.484  0.8024  0.1384  0.4520
   30CHL1  H19A 2187   4.630   0.999   7.480 -0.2006  0.9559  1.7967
   30CHL1  H19B 2188   4.510   0.908   7.387  1.1072 -1.7139  0.2881
   30CHL1  H19C 2189   4.494   0.946   7.561  0.0335  0.7177 -0.5181
   30CHL1    C1 2190   4.730   0.761   7.393 -0.4873  0.4432 -0.8751
   30CHL1   H1A 2191   4.788   0.855   7.382 -2.7478  1.8576 -1.0228
   30CHL1   H1B 2192   4.798   0.680   7.426 -2.4370 -0.7658  0.3216
   30CHL1    C2 2193   4.665   0.720   7.262  0.2788 -0.5587  0.2402
   30CHL1   H2A 2194   4.746   0.690   7.192  0.6751  5.4038 -2.1848
   30CHL1   H2B 2195   4.617   0.808   7.213  0.6044  0.4810  1.7470
   30CHL1   C20 2196   4.952   0.952   8.131 -0.5607  0.2570  0.5706
   30CHL1   H20 2197   4.885   1.028   8.177  1.5095  2.3285  0.2839
   30CHL1   C21 2198   5.055   1.020   8.042 -0.4627  0.4724 -0.3530
   30CHL1  H21A 2199   5.102   0.939   7.983 -0.8843  0.0455 -0.0966
   30CHL1  H21B 2200   5.130   1.063   8.112  1.0933 -1.8771 -0.5128
   30CHL1  H21C 2201   5.009   1.096   7.974 -3.3224 -1.0523 -0.1953
   30CHL1   C22 2202   5.012   0.877   8.260 -0.3263  0.3676 -0.3780
   30CHL1  H22A 2203   4.934   0.807   8.294  0.5554 -0.7646 -0.6605
   30CHL1  H22B 2204   5.101   0.825   8.218 -0.3776  0.4417 -0.5836
   30CHL1   C23 2205   5.055   0.974   8.367  0.2546 -0.4715  0.0870
   30CHL1  H23A 2206   5.124   1.054   8.334  2.6673 -1.8813  1.5321
   30CHL1  H23B 2207   4.962   1.025   8.399  0.1621 -1.4101  1.3765
   30CHL1   C24 2208   5.107   0.898   8.491 -0.0012 -0.4286 -0.4051
   30CHL1  H24A 2209   5.048   0.804   8.501 -2.8888  1.2214 -1.2606
   30CHL1  H24B 2210   5.210   0.866   8.464  0.5903  2.4200 -1.6893
   30CHL1   C25 2211   5.116   0.979   8.618 -0.2313  0.3901 -0.3080
   30CHL1   H25 2212   5.167   0.918   8.696  0.4282  0.5604 -0.6021
   30CHL1   C26 2213   5.215   1.090   8.600  0.0603  0.5107 -0.2315
   30CHL1  H26A 2214   5.195   1.171   8.525  0.0089  1.0664  0.3797
   30CHL1  H26B 2215   5.235   1.132   8.701  0.7361 -0.9855  0.2794
   30CHL1  H26C 2216   5.318   1.052   8.579  0.0989  1.2320 -1.4307
   30CHL1   C27 2217   4.979   1.013   8.690 -0.3283  0.0368 -0.3115
   30CHL1  H27A 2218   5.013   1.027   8.795  0.6945  0.0512 -0.6379
   30CHL1  H27B 2219   4.936   1.102   8.639 -2.5185  1.0318  3.1558
   30CHL1  H27C 2220   4.908   0.928   8.684 -1.3574  0.6557  2.3008
   31CHL1    C3 2221   3.991   2.199   6.675 -0.2420  0.0332 -0.9612
   31CHL1    H3 2222   3.899   2.137   6.688  0.6299 -0.8993  1.0353
   31CHL1    O3 2223   4.036   2.195   6.540  0.3486 -0.4616 -0.0590
   31CHL1   H3' 2224   4.097   2.270   6.545 -0.6979  0.2368  3.6225
   31CHL1    C4 2225   3.953   2.341   6.719  0.1831  0.4443  0.0248
   31CHL1   H4A 2226   4.045   2.402   6.708 -0.9150  2.1030 -0.0823
   31CHL1   H4B 2227   3.880   2.384   6.648  1.1023 -0.7657 -1.6787
   31CHL1    C5 2228   3.921   2.350   6.867 -0.1537 -0.2271 -0.0907
   31CHL1    C6 2229   3.814   2.418   6.916 -0.8678 -0.7240 -0.3440
   31CHL1    H6 2230   3.741   2.462   6.846 -1.0260  1.4174  1.0899
   31CHL1    C7 2231   3.773   2.433   7.057 -0.1267 -0.1854  0.3384
   31CHL1   H7A 2232   3.762   2.540   7.083  1.0884 -0.2984  1.4004
   31CHL1   H7B 2233   3.673   2.387   7.074 -1.4127  2.2588 -0.3886
   31CHL1    C8 2234   3.880   2.376   7.153  0.2155 -0.0063 -0.6078
   31CHL1    H8 2235   3.947   2.464   7.163  0.6429 -0.5665  1.8454
   31CHL1   C14 2236   3.817   2.354   7.295  0.0585 -0.3516  1.0910
   31CHL1   H14 2237   3.746   2.270   7.281 -0.3794  0.0722  0.7371
   31CHL1   C15 2238   3.730   2.464   7.355 -0.0496  0.0264  1.3375
   31CHL1  H15A 2239   3.778   2.563   7.338  0.2280 -0.5895 -1.7324
   31CHL1  H15B 2240   3.636   2.460   7.295  0.6968  0.8277  0.0837
   31CHL1   C16 2241   3.713   2.418   7.500  0.3723 -0.1709  0.5435
   31CHL1  H16A 2242   3.740   2.508   7.560  0.1322 -0.1842  0.6721
   31CHL1  H16B 2243   3.606   2.395   7.519  0.4202  0.2947  1.3766
   31CHL1   C17 2244   3.813   2.300   7.521  0.0011  0.6554  0.2234
   31CHL1   H17 2245   3.759   2.205   7.502  0.0719  0.9170 -1.3775
   31CHL1   C13 2246   3.910   2.316   7.404 -0.7766 -0.0590 -0.4245
   31CHL1   C18 2247   4.013   2.432   7.445 -0.4618  0.4809 -0.4078
   31CHL1  H18A 2248   4.053   2.475   7.351  0.0361  0.0195 -0.4146
   31CHL1  H18B 2249   3.976   2.507   7.519  0.3370  0.5780 -0.0976
   31CHL1  H18C 2250   4.095   2.378   7.498  2.4022  4.1396 -0.8744
   31CHL1   C12 2251   3.982   2.186   7.355  0.5747  0.4757  0.3022
   31CHL1  H12A 2252   4.061   2.153   7.425 -0.2832  0.2564  1.1827
   31CHL1  H12B 2253   3.907   2.104   7.340  0.4467  1.0619 -2.6799
   31CHL1   C11 2254   4.050   2.211   7.219  0.5341 -0.2544  0.4442
   31CHL1  H11A 2255   4.128   2.289   7.229  0.7932 -0.4690  0.1269
   31CHL1  H11B 2256   4.099   2.115   7.192 -3.3880 -1.8356 -1.4265
   31CHL1    C9 2257   3.953   2.256   7.100 -0.0729 -0.8695  0.3077
   31CHL1    H9 2258   3.878   2.176   7.083 -0.1147 -0.6277 -0.6235
   31CHL1   C10 2259   4.017   2.274   6.962  0.4115 -0.8122  0.1081
   31CHL1   C19 2260   4.145   2.370   6.984 -0.4601  0.3257 -0.0138
   31CHL1  H19A 2261   4.226   2.315   7.035 -0.0441  0.9985  0.0500
   31CHL1  H19B 2262   4.189   2.393   6.884  0.5163  2.0380  0.8038
   31CHL1  H19C 2263   4.114   2.462   7.036 -0.1691 -0.4262  1.5012
   31CHL1    C1 2264   4.048   2.131   6.911 -0.0859  0.3958 -0.1433
   31CHL1   H1A 2265   4.120   2.082   6.981 -0.3156 -1.5378 -1.2337
   31CHL1   H1B 2266   3.968   2.055   6.905  0.7575 -0.3290 -3.0840
   31CHL1    C2 2267   4.096   2.134   6.763 -0.2374 -0.2574 -0.2329
   31CHL1   H2A 2268   4.109   2.031   6.723 -1.4648  0.3282 -2.2530
   31CHL1   H2B 2269   4.194   2.186   6.754  0.7881 -1.7446  1.9090
   31CHL1   C20 2270   3.862   2.287   7.667 -0.7559 -0.2316 -0.3456
   31CHL1   H20 2271   3.911   2.384   7.695 -1.0808 -0.3060  0.4897
   31CHL1   C21 2272   3.971   2.172   7.674 -0.0992 -0.3791 -0.0272
   31CHL1  H21A 2273   4.005   2.157   7.778 -1.5385 -0.6816  0.4200
   31CHL1  H21B 2274   4.065   2.204   7.625  0.5597 -1.6015  0.4272
   31CHL1  H21C 2275   3.934   2.075   7.633 -1.4793  0.1452 -0.0769
   31CHL1   C22 2276   3.747   2.273   7.771 -0.6273 -0.3209  0.1897
   31CHL1  H22A 2277   3.686   2.365   7.761  0.1999 -0.0915 -3.2047
   31CHL1  H22B 2278   3.685   2.188   7.733 -2.1350  0.5780  0.5991
   31CHL1   C23 2279   3.786   2.236   7.914 -0.1216 -0.3516  0.2174
   31CHL1  H23A 2280   3.830   2.134   7.919 -0.9024 -0.6247  1.9125
   31CHL1  H23B 2281   3.860   2.313   7.946 -0.4848 -0.0832  0.4127
   31CHL1   C24 2282   3.665   2.226   8.009  0.5615  0.4154 -0.3200
   31CHL1  H24A 2283   3.606   2.320   8.012  0.4593  0.3317  0.3817
   31CHL1  H24B 2284   3.598   2.145   7.974  0.5795  1.1279 -2.0629
   31CHL1   C25 2285   3.712   2.200   8.153  0.5693 -0.2132  0.4551
   31CHL1   H25 2286   3.787   2.118   8.147  0.8102  0.1249 -1.1672
   31CHL1   C26 2287   3.782   2.326   8.214 -0.2885  0.4285 -0.4987
   31CHL1  H26A 2288   3.869   2.357   8.154  1.3675 -1.3459  0.9232
   31CHL1  H26B 2289   3.715   2.412   8.235 -1.2529 -0.2610 -0.7023
   31CHL1  H26C 2290   3.816   2.309   8.318  1.2482 -1.8777 -1.3381
   31CHL1   C27 2291   3.596   2.159   8.247 -0.1409  0.3358  0.1611
   31CHL1  H27A 2292   3.509   2.228   8.254 -0.2004  0.2877 -0.1139
   31CHL1  H27B 2293   3.645   2.152   8.347 -2.1449  1.3693  1.2278
   31CHL1  H27C 2294   3.573   2.054   8.219 -1.6226  1.1137 -1.6371
   32CHL1    C3 2295   5.315   0.462   6.965 -0.5325  0.1092  0.3254
   32CHL1    H3 2296   5.425   0.445   6.962 -0.5817 -0.4929  1.6533
   32CHL1    O3 2297   5.268   0.450   6.831  0.3589  0.2410 -0.1033
   32CHL1   H3' 2298   5.202   0.381   6.825  1.2340 -0.6971  0.9507
   32CHL1    C4 2299   5.247   0.354   7.047 -0.1153 -0.6364 -0.3108
   32CHL1   H4A 2300   5.137   0.355   7.027  0.0890 -2.0145 -1.5498
   32CHL1   H4B 2301   5.287   0.255   7.016 -1.2246 -0.4507 -2.4068
   32CHL1    C5 2302   5.265   0.377   7.198 -0.5384  0.2219 -0.4153
   32CHL1    C6 2303   5.303   0.271   7.275 -0.1872 -0.4232 -0.0898
   32CHL1    H6 2304   5.329   0.172   7.234 -0.0027  0.1229 -1.3092
   32CHL1    C7 2305   5.317   0.275   7.424  0.3507 -0.0071 -0.2190
   32CHL1   H7A 2306   5.275   0.189   7.480 -0.7724  0.4755 -0.3163
   32CHL1   H7B 2307   5.425   0.264   7.449  0.7021  1.8678 -0.8307
   32CHL1    C8 2308   5.262   0.412   7.487 -0.2957 -0.0858  0.1258
   32CHL1    H8 2309   5.153   0.395   7.495 -0.0033 -3.1066 -1.5373
   32CHL1   C14 2310   5.333   0.423   7.615  0.2347  0.3099  0.6954
   32CHL1   H14 2311   5.440   0.431   7.586 -0.9386  0.2734 -4.0677
   32CHL1   C15 2312   5.319   0.306   7.717 -0.8527 -0.4773 -0.5997
   32CHL1  H15A 2313   5.218   0.262   7.702 -0.9966 -0.7401  1.0329
   32CHL1  H15B 2314   5.405   0.238   7.700 -1.5287 -1.3306 -0.6328
   32CHL1   C16 2315   5.351   0.368   7.855  0.0929 -0.9199  0.4959
   32CHL1  H16A 2316   5.263   0.357   7.922 -0.7400  0.0344 -0.3936
   32CHL1  H16B 2317   5.442   0.329   7.904  0.5300 -1.0774 -0.4192
   32CHL1   C17 2318   5.378   0.525   7.828 -0.2737  0.1239  0.6346
   32CHL1   H17 2319   5.482   0.523   7.788 -0.7481 -1.6140 -0.5377
   32CHL1   C13 2320   5.291   0.550   7.699  0.6059  0.1193  0.0180
   32CHL1   C18 2321   5.144   0.558   7.732  0.4788 -0.2595 -0.0152
   32CHL1  H18A 2322   5.068   0.545   7.651 -0.8154  1.2255  0.9133
   32CHL1  H18B 2323   5.112   0.498   7.820  0.3132  0.2091  0.2468
   32CHL1  H18C 2324   5.126   0.657   7.779  1.8946  0.0704 -0.1474
   32CHL1   C12 2325   5.335   0.672   7.614 -1.1012 -0.0157 -0.5096
   32CHL1  H12A 2326   5.306   0.764   7.668 -0.7744 -0.7145  0.8564
   32CHL1  H12B 2327   5.446   0.677   7.616 -1.1016  1.3228 -2.2205
   32CHL1   C11 2328   5.266   0.661   7.480  0.2555  0.4949  0.3633
   32CHL1  H11A 2329   5.156   0.661   7.500  0.3460 -0.3537  0.8888
   32CHL1  H11B 2330   5.294   0.747   7.416 -0.2983  1.1969  1.0509
   32CHL1    C9 2331   5.297   0.531   7.397  0.3491 -0.1330  0.0381
   32CHL1    H9 2332   5.408   0.529   7.388  0.3046 -0.1723 -0.4787
   32CHL1   C10 2333   5.241   0.522   7.258  0.1397 -0.2338  0.2391
   32CHL1   C19 2334   5.086   0.559   7.253 -0.6237  0.1654  0.8565
   32CHL1  H19A 2335   5.036   0.483   7.318 -0.3574 -0.9093 -0.1793
   32CHL1  H19B 2336   5.082   0.663   7.292 -1.8179  0.3942  0.1433
   32CHL1  H19C 2337   5.049   0.555   7.148 -0.7079 -2.8016  0.9686
   32CHL1    C1 2338   5.317   0.623   7.156 -0.0799 -0.5441 -0.2137
   32CHL1   H1A 2339   5.283   0.726   7.181  2.0789  0.5932 -1.8071
   32CHL1   H1B 2340   5.427   0.609   7.159 -0.2013 -1.2670  2.1889
   32CHL1    C2 2341   5.270   0.602   7.009  0.2407  0.5735  0.1566
   32CHL1   H2A 2342   5.321   0.679   6.948  0.5536  0.4418  0.2484
   32CHL1   H2B 2343   5.160   0.618   7.007 -0.1942 -1.9842  1.5295
   32CHL1   C20 2344   5.370   0.610   7.964 -0.0213  0.4153 -0.3137
   32CHL1   H20 2345   5.270   0.602   8.010 -0.4874  2.2693 -0.9328
   32CHL1   C21 2346   5.410   0.758   7.932  0.7373  0.1493  0.8685
   32CHL1  H21A 2347   5.511   0.761   7.886 -0.1278  2.2642 -0.9556
   32CHL1  H21B 2348   5.415   0.811   8.030  2.0183 -0.2802  1.0430
   32CHL1  H21C 2349   5.348   0.821   7.865  1.2920 -1.8163 -1.5542
   32CHL1   C22 2350   5.479   0.566   8.067  0.2707  0.0401 -0.0472
   32CHL1  H22A 2351   5.473   0.456   8.082 -1.5231 -0.0748 -1.4382
   32CHL1  H22B 2352   5.577   0.606   8.035 -0.7270  2.6176 -0.0380
   32CHL1   C23 2353   5.449   0.620   8.211 -0.3783 -0.2245 -0.0631
   32CHL1  H23A 2354   5.463   0.731   8.213  1.9281 -0.4499 -1.2478
   32CHL1  H23B 2355   5.346   0.592   8.240 -0.6734  0.7861 -0.0929
   32CHL1   C24 2356   5.546   0.571   8.323  0.1382 -0.0724  0.0920
   32CHL1  H24A 2357   5.523   0.463   8.329  0.4400 -0.0957  0.8880
   32CHL1  H24B 2358   5.651   0.571   8.287  0.1571  1.4600  0.1004
   32CHL1   C25 2359   5.539   0.631   8.463 -0.1249 -0.6803 -1.3079
   32CHL1   H25 2360   5.551   0.741   8.448 -0.1787 -0.4026  0.5738
   32CHL1   C26 2361   5.402   0.625   8.529 -0.1999 -0.5930 -0.7072
   32CHL1  H26A 2362   5.378   0.526   8.571 -2.5438  0.0946 -0.3610
   32CHL1  H26B 2363   5.394   0.705   8.606  2.0718 -2.4747  1.5300
   32CHL1  H26C 2364   5.329   0.647   8.448 -1.1167  1.2322  0.5901
   32CHL1   C27 2365   5.649   0.579   8.561 -0.5681 -0.0437  0.3718
   32CHL1  H27A 2366   5.750   0.591   8.517 -0.6521 -0.4474  0.0642
   32CHL1  H27B 2367   5.654   0.630   8.660 -0.5594 -0.5740  0.6477
   32CHL1  H27C 2368   5.631   0.471   8.581  2.9614 -0.4931  1.4028
   33CHL1    C3 2369   5.534   0.915   6.770  0.6246  0.2281 -0.2615
   33CHL1    H3 2370   5.429   0.913   6.807  0.1560 -0.3930 -1.5677
   33CHL1    O3 2371   5.517   0.912   6.631 -0.6347 -0.1703  0.4640
   33CHL1   H3' 2372   5.428   0.936   6.604  0.5190  1.3097 -2.2545
   33CHL1    C4 2373   5.601   1.046   6.812  0.2308  0.3667 -0.5776
   33CHL1   H4A 2374   5.708   1.048   6.782  1.2273 -2.3689  2.5732
   33CHL1   H4B 2375   5.554   1.140   6.776  2.5717  1.8137  0.0341
   33CHL1    C5 2376   5.613   1.055   6.963 -0.4515 -0.0335  0.4527
   33CHL1    C6 2377   5.557   1.159   7.026 -0.1623 -0.2071  0.6421
   33CHL1    H6 2378   5.502   1.236   6.971 -1.0107 -0.9993  0.3649
   33CHL1    C7 2379   5.565   1.176   7.175  1.2229  0.4088  0.1153
   33CHL1   H7A 2380   5.626   1.266   7.193  0.6648  0.6915  0.6058
   33CHL1   H7B 2381   5.464   1.182   7.222  0.1090  2.7756 -2.4459
   33CHL1    C8 2382   5.656   1.071   7.244 -0.0412  0.1944 -0.0247
   33CHL1    H8 2383   5.759   1.110   7.232  0.3210 -0.9278 -0.6420
   33CHL1   C14 2384   5.631   1.078   7.391 -0.0467 -0.5408 -0.0587
   33CHL1   H14 2385   5.525   1.050   7.409 -0.2880  0.7635  0.5777
   33CHL1   C15 2386   5.651   1.213   7.462 -0.2943 -0.1707  0.0424
   33CHL1  H15A 2387   5.738   1.271   7.425  0.3626 -0.3768  1.2426
   33CHL1  H15B 2388   5.558   1.274   7.457 -1.1906 -1.4597  0.4376
   33CHL1   C16 2389   5.692   1.184   7.611  0.1551  0.7141 -0.2265
   33CHL1  H16A 2390   5.799   1.212   7.619  0.1226  0.3484  1.5155
   33CHL1  H16B 2391   5.634   1.245   7.683 -1.1273  0.7032 -1.2328
   33CHL1   C17 2392   5.669   1.022   7.622 -0.5410 -0.5159  0.7154
   33CHL1   H17 2393   5.560   1.006   7.639 -0.9176  0.7076 -0.4595
   33CHL1   C13 2394   5.705   0.974   7.475  0.2954 -0.2071  0.6342
   33CHL1   C18 2395   5.856   0.985   7.458  0.0740 -0.1505 -0.0337
   33CHL1  H18A 2396   5.901   1.076   7.502  0.3068  1.1852 -2.9364
   33CHL1  H18B 2397   5.915   0.901   7.500  0.6195  0.1597 -0.1739
   33CHL1  H18C 2398   5.880   0.975   7.349 -1.8534  0.0692 -0.4870
   33CHL1   C12 2399   5.659   0.840   7.419 -0.4562 -0.4169 -0.3652
   33CHL1  H12A 2400   5.711   0.756   7.470 -1.1391  0.7073  2.3085
   33CHL1  H12B 2401   5.552   0.828   7.446 -0.6347  1.7642  0.0245
   33CHL1   C11 2402   5.691   0.821   7.280  0.6210 -0.5168  1.0252
   33CHL1  H11A 2403   5.801   0.826   7.272  1.0371 -1.5093  4.8532
   33CHL1  H11B 2404   5.646   0.727   7.241 -2.0855  0.8541  0.7407
   33CHL1    C9 2405   5.632   0.932   7.186 -0.4245 -0.3898 -0.1481
   33CHL1    H9 2406   5.523   0.914   7.183 -0.5972  0.4830  0.7351
   33CHL1   C10 2407   5.673   0.928   7.037  0.5061 -0.9512 -0.1846
   33CHL1   C19 2408   5.827   0.937   7.026  0.0278  0.4801 -0.6714
   33CHL1  H19A 2409   5.857   0.931   6.920  1.8523  1.7784 -0.2482
   33CHL1  H19B 2410   5.855   1.034   7.072  1.9999 -1.2369  1.8434
   33CHL1  H19C 2411   5.877   0.857   7.084 -0.5834 -0.1739 -1.0371
   33CHL1    C1 2412   5.618   0.805   6.972 -0.0695  0.4835 -0.3103
   33CHL1   H1A 2413   5.679   0.720   7.009  0.3281  1.5918  1.6998
   33CHL1   H1B 2414   5.513   0.798   7.007  0.2317  1.8128  0.9097
   33CHL1    C2 2415   5.616   0.798   6.821  0.3925  0.1214  0.6440
   33CHL1   H2A 2416   5.577   0.704   6.776 -0.9174  0.7241  0.4866
   33CHL1   H2B 2417   5.723   0.809   6.794  0.6719 -1.4558  1.0388
   33CHL1   C20 2418   5.751   0.966   7.738  0.0302 -0.0009 -0.2652
   33CHL1   H20 2419   5.859   0.978   7.717  0.0147  0.5762 -0.0221
   33CHL1   C21 2420   5.735   0.815   7.740 -0.1454  0.3458  0.0934
   33CHL1  H21A 2421   5.767   0.771   7.837  2.3680 -0.8237 -1.2345
   33CHL1  H21B 2422   5.794   0.765   7.661 -2.3336  1.6249 -2.4490
   33CHL1  H21C 2423   5.634   0.773   7.717  0.7371 -1.5754 -0.3276
   33CHL1   C22 2424   5.713   1.033   7.874 -0.1217  0.0848  0.3018
   33CHL1  H22A 2425   5.763   1.131   7.858  0.7296 -0.4292 -0.2287
   33CHL1  H22B 2426   5.603   1.039   7.888 -0.1798 -0.0612 -0.0773
   33CHL1   C23 2427   5.767   0.962   7.999  0.2698  0.6580  0.2414
   33CHL1  H23A 2428   5.715   0.865   8.014 -2.2742  1.8975 -0.1373
   33CHL1  H23B 2429   5.871   0.942   7.965  0.6855  2.3419  0.4543
   33CHL1   C24 2430   5.777   1.048   8.126  0.3711  0.1940 -0.4031
   33CHL1  H24A 2431   5.866   1.114   8.118  1.8603 -1.3124  3.1006
   33CHL1  H24B 2432   5.686   1.111   8.136 -1.0247 -1.6158 -1.3546
   33CHL1   C25 2433   5.796   0.954   8.246  0.3136 -0.6489  0.5560
   33CHL1   H25 2434   5.731   0.866   8.226 -0.3999  0.3190 -1.4731
   33CHL1   C26 2435   5.933   0.903   8.260 -0.6866  0.0072  0.5552
   33CHL1  H26A 2436   5.935   0.835   8.347 -0.2883  1.0987  1.4117
   33CHL1  H26B 2437   5.976   0.856   8.169  0.7973  0.0436  1.2187
   33CHL1  H26C 2438   6.000   0.986   8.291  1.6749 -0.7707 -2.1734
   33CHL1   C27 2439   5.742   1.027   8.372 -0.2095 -0.3813 -0.5162
   33CHL1  H27A 2440   5.775   1.132   8.387 -1.2305 -0.0883 -0.2622
   33CHL1  H27B 2441   5.633   1.049   8.362 -0.0410  1.7015  1.8121
   33CHL1  H27C 2442   5.759   0.977   8.469 -1.8037 -1.6204 -0.8549
   34CHL1    C3 2443   0.515   6.346   7.142  0.5132 -0.0591 -0.0441
   34CHL1    H3 2444   0.607   6.295   7.177  1.5584 -1.1011 -4.0447
   34CHL1    O3 2445   0.535   6.374   7.004 -0.2750 -0.2534 -0.4380
   34CHL1   H3' 2446   0.466   6.437   6.983 -1.1075 -0.5309  1.2805
   34CHL1    C4 2447   0.400   6.247   7.153 -0.1330 -0.0399 -0.1718
   34CHL1   H4A 2448   0.317   6.295   7.098 -0.5932  0.7672  1.2006
   34CHL1   H4B 2449   0.422   6.155   7.095 -1.2813  0.7957 -1.9675
   34CHL1    C5 2450   0.357   6.209   7.292  0.0752 -0.3159  0.5134
   34CHL1    C6 2451   0.336   6.084   7.330 -0.0226  0.3816  0.3224
   34CHL1    H6 2452   0.355   5.998   7.264  1.2221 -0.0836  1.2783
   34CHL1    C7 2453   0.286   6.047   7.467 -0.2639 -0.2797 -0.0297
   34CHL1   H7A 2454   0.195   5.984   7.466  0.2052 -0.9855  0.9585
   34CHL1   H7B 2455   0.370   5.997   7.520  0.0551  0.5016  0.2058
   34CHL1    C8 2456   0.248   6.163   7.562 -0.3725  0.2130 -0.5361
   34CHL1    H8 2457   0.142   6.189   7.542 -0.5832 -0.8886 -0.8613
   34CHL1   C14 2458   0.271   6.115   7.709 -0.0737 -0.2462  0.3860
   34CHL1   H14 2459   0.379   6.110   7.734  0.7686  1.9692 -2.4942
   34CHL1   C15 2460   0.209   5.979   7.748  0.1211  0.4612 -0.0431
   34CHL1  H15A 2461   0.109   5.982   7.699 -0.6649  0.8129  1.5281
   34CHL1  H15B 2462   0.263   5.887   7.719  0.3946  0.2945  0.9941
   34CHL1   C16 2463   0.192   5.995   7.902  0.4413 -0.5618  0.0326
   34CHL1  H16A 2464   0.088   5.967   7.928  0.6402  0.7468  2.4029
   34CHL1  H16B 2465   0.255   5.921   7.955  2.1608  1.0355  0.2772
   34CHL1   C17 2466   0.238   6.130   7.941 -0.3358 -0.5590 -0.4180
   34CHL1   H17 2467   0.348   6.125   7.957 -0.1598  0.9066 -1.0903
   34CHL1   C13 2468   0.229   6.219   7.807 -0.1991 -0.0812 -0.0499
   34CHL1   C18 2469   0.084   6.271   7.792  0.0265 -0.2096 -0.1881
   34CHL1  H18A 2470   0.065   6.366   7.845  2.5517  0.2135  0.0057
   34CHL1  H18B 2471   0.066   6.287   7.683 -2.8890  1.7123  0.4974
   34CHL1  H18C 2472   0.009   6.197   7.828 -1.3987  1.6365  0.7653
   34CHL1   C12 2473   0.325   6.344   7.785  0.0358  0.1106 -0.8583
   34CHL1  H12A 2474   0.310   6.422   7.862 -0.2698 -1.3426  0.5779
   34CHL1  H12B 2475   0.425   6.302   7.807 -0.4988 -2.1354 -2.4877
   34CHL1   C11 2476   0.320   6.402   7.645  0.5968 -0.1973  0.2590
   34CHL1  H11A 2477   0.220   6.447   7.628 -0.5868 -2.9508 -0.3350
   34CHL1  H11B 2478   0.393   6.485   7.636 -0.5837  0.9486  1.0640
   34CHL1    C9 2479   0.337   6.290   7.538 -0.5560  0.2774  0.1988
   34CHL1    H9 2480   0.439   6.250   7.556 -0.1161  0.9989 -0.6373
   34CHL1   C10 2481   0.348   6.332   7.386  0.0505  0.2285 -0.2747
   34CHL1   C19 2482   0.217   6.410   7.344  0.2484  0.4292 -0.1336
   34CHL1  H19A 2483   0.199   6.494   7.414  0.7782 -0.4490  1.0854
   34CHL1  H19B 2484   0.231   6.440   7.238  0.5674  1.0689  0.0861
   34CHL1  H19C 2485   0.132   6.339   7.339 -0.0047  0.3762  3.5897
   34CHL1    C1 2486   0.468   6.433   7.375  0.0150  0.3679  0.4163
   34CHL1   H1A 2487   0.440   6.521   7.437  2.0129  0.3964  1.3426
   34CHL1   H1B 2488   0.558   6.383   7.417 -0.7634  0.6030  2.3651
   34CHL1    C2 2489   0.503   6.468   7.234 -0.4071 -0.4213 -0.1340
   34CHL1   H2A 2490   0.593   6.532   7.238  0.7767 -1.8801 -2.1602
   34CHL1   H2B 2491   0.416   6.525   7.196 -0.2366 -0.8547 -1.2012
   34CHL1   C20 2492   0.169   6.190   8.061 -0.1680  0.6780 -0.1180
   34CHL1   H20 2493   0.058   6.192   8.060 -0.2535 -1.2418  1.5105
   34CHL1   C21 2494   0.217   6.328   8.098  0.1235 -0.2578 -0.4036
   34CHL1  H21A 2495   0.167   6.408   8.040  1.2526  0.1855 -0.7862
   34CHL1  H21B 2496   0.324   6.350   8.076 -0.2378 -0.1512 -2.1096
   34CHL1  H21C 2497   0.199   6.331   8.208 -1.9018 -4.6523 -0.5084
   34CHL1   C22 2498   0.203   6.100   8.184 -0.2127  0.4604 -0.0895
   34CHL1  H22A 2499   0.201   5.990   8.166  2.4747  0.1128  1.4157
   34CHL1  H22B 2500   0.305   6.121   8.222 -0.7763  2.1549  0.5330
   34CHL1   C23 2501   0.101   6.104   8.300  0.0029 -0.2831  0.0112
   34CHL1  H23A 2502   0.092   6.210   8.331 -1.2218 -0.2402 -0.4935
   34CHL1  H23B 2503   0.007   6.059   8.261  0.5758 -2.2666  0.8171
   34CHL1   C24 2504   0.154   6.019   8.418 -0.3769 -0.1344 -0.2385
   34CHL1  H24A 2505   0.184   5.914   8.397 -1.4511 -0.4459 -0.2368
   34CHL1  H24B 2506   0.249   6.064   8.452 -1.3486  1.7883  0.0028
   34CHL1   C25 2507   0.054   6.020   8.539  0.9215 -0.5403  0.9533
   34CHL1   H25 2508  -0.035   5.969   8.496  0.5491  0.3470  0.6554
   34CHL1   C26 2509   0.097   5.928   8.661  0.8375  0.0631 -0.1589
   34CHL1  H26A 2510   0.041   5.947   8.755 -0.1943 -0.6592 -0.6177
   34CHL1  H26B 2511   0.080   5.821   8.636 -3.3154  1.1074 -2.3850
   34CHL1  H26C 2512   0.205   5.942   8.681  0.6211  1.4479  0.1331
   34CHL1   C27 2513   0.016   6.166   8.589  0.8903  0.0964 -0.9445
   34CHL1  H27A 2514  -0.040   6.214   8.506 -2.8834  0.7261  1.8343
   34CHL1  H27B 2515  -0.052   6.155   8.676  0.7090  0.3299 -1.0572
   34CHL1  H27C 2516   0.097   6.235   8.621 -1.6431  2.1957  1.1230
   35CHL1    C3 2517   3.169   0.606   7.322  0.0585 -0.7003  0.4736
   35CHL1    H3 2518   3.174   0.717   7.335 -2.1818 -0.6887  1.4705
   35CHL1    O3 2519   3.210   0.584   7.190 -0.5625 -0.2253  0.4822
   35CHL1   H3' 2520   3.232   0.490   7.191  0.4861  0.0049  0.2933
   35CHL1    C4 2521   3.255   0.536   7.424 -0.7360  0.7100  0.0873
   35CHL1   H4A 2522   3.264   0.430   7.395  1.2697  1.1721 -1.0163
   35CHL1   H4B 2523   3.360   0.571   7.417 -0.1756 -1.0085 -0.1858
   35CHL1    C5 2524   3.197   0.561   7.565  0.2674 -0.1387  0.1081
   35CHL1    C6 2525   3.262   0.620   7.664  0.5426  0.3192  0.4762
   35CHL1    H6 2526   3.368   0.646   7.650  0.6572 -0.8155 -0.9571
   35CHL1    C7 2527   3.205   0.642   7.801 -1.0073 -0.3724 -0.1136
   35CHL1   H7A 2528   3.275   0.612   7.882  0.1807  2.6793  0.0656
   35CHL1   H7B 2529   3.195   0.750   7.823 -0.7629 -0.3746  0.0100
   35CHL1    C8 2530   3.071   0.581   7.829 -0.5878 -0.9550 -0.0644
   35CHL1    H8 2531   3.087   0.473   7.844  0.9288 -0.5686  1.2431
   35CHL1   C14 2532   3.003   0.639   7.950  0.2111 -0.3478  1.1995
   35CHL1   H14 2533   2.978   0.741   7.916 -0.3323 -0.1577  2.1479
   35CHL1   C15 2534   3.074   0.647   8.086 -0.2922  0.3348  0.7013
   35CHL1  H15A 2535   3.119   0.551   8.118 -0.7100  0.1560  0.7532
   35CHL1  H15B 2536   3.151   0.727   8.084 -2.0467  2.0380 -0.8439
   35CHL1   C16 2537   2.960   0.669   8.195 -0.0413  0.1820  0.0509
   35CHL1  H16A 2538   2.966   0.593   8.276 -1.4376 -0.2830 -0.2771
   35CHL1  H16B 2539   2.972   0.772   8.235 -2.7520  1.1214 -1.4335
   35CHL1   C17 2540   2.832   0.650   8.108 -0.3579  0.2215  0.5563
   35CHL1   H17 2541   2.811   0.757   8.086 -0.4221 -0.4230 -2.7232
   35CHL1   C13 2542   2.867   0.571   7.978 -1.0225 -0.0598 -0.6212
   35CHL1   C18 2543   2.890   0.426   8.016 -0.2078  0.3234  0.0256
   35CHL1  H18A 2544   2.793   0.374   8.033  0.8600 -1.8697 -0.3017
   35CHL1  H18B 2545   2.953   0.375   7.940 -0.1117  0.8574 -0.2523
   35CHL1  H18C 2546   2.933   0.414   8.118  0.4298 -0.3221 -0.3159
   35CHL1   C12 2547   2.773   0.591   7.860 -0.0020  0.4378 -0.2543
   35CHL1  H12A 2548   2.674   0.542   7.874  0.5056 -0.5178 -0.0161
   35CHL1  H12B 2549   2.752   0.700   7.852 -2.0163  0.2458  1.9111
   35CHL1   C11 2550   2.837   0.535   7.734 -0.1938  0.3530 -0.4488
   35CHL1  H11A 2551   2.830   0.425   7.742 -3.9915  0.6545  1.5720
   35CHL1  H11B 2552   2.774   0.569   7.649 -2.6707  1.1500  1.6464
   35CHL1    C9 2553   2.982   0.590   7.704 -0.5048 -0.1013  0.6308
   35CHL1    H9 2554   2.965   0.700   7.705 -1.2227 -0.1889 -1.1205
   35CHL1   C10 2555   3.043   0.536   7.575 -0.1839  0.0465 -0.5155
   35CHL1   C19 2556   3.023   0.382   7.581  0.0419  0.3409  0.4158
   35CHL1  H19A 2557   3.072   0.333   7.494  0.7178 -0.1947  1.0953
   35CHL1  H19B 2558   3.073   0.351   7.675  0.1888  3.7440  1.5368
   35CHL1  H19C 2559   2.916   0.351   7.578 -0.3573  1.6554  0.5926
   35CHL1    C1 2560   2.960   0.592   7.456  0.8370 -0.1245 -0.2233
   35CHL1   H1A 2561   2.853   0.561   7.459  0.9402 -0.3745  1.1849
   35CHL1   H1B 2562   2.948   0.702   7.465 -0.6532 -0.1815 -1.3069
   35CHL1    C2 2563   3.024   0.562   7.323 -0.0095 -0.1468 -0.5020
   35CHL1   H2A 2564   2.964   0.613   7.244  0.5397  1.8536  0.3483
   35CHL1   H2B 2565   3.019   0.453   7.301  0.7005 -0.1055 -0.8646
   35CHL1   C20 2566   2.697   0.607   8.174  0.2798 -0.6081  0.0934
   35CHL1   H20 2567   2.694   0.497   8.192 -0.4814 -0.7692 -0.9046
   35CHL1   C21 2568   2.565   0.637   8.102  0.1426 -0.5190 -0.0940
   35CHL1  H21A 2569   2.570   0.739   8.056 -1.4541 -0.1287  0.5783
   35CHL1  H21B 2570   2.478   0.643   8.171  0.7916 -0.1271  0.7002
   35CHL1  H21C 2571   2.553   0.559   8.024 -0.6668 -0.6149  0.1273
   35CHL1   C22 2572   2.685   0.663   8.315 -0.2796  0.3329  0.0821
   35CHL1  H22A 2573   2.781   0.684   8.367  0.6058 -0.4859 -1.1863
   35CHL1  H22B 2574   2.644   0.764   8.298 -1.0506  0.1658  0.8883
   35CHL1   C23 2575   2.596   0.592   8.417 -0.1003 -0.0204  0.0629
   35CHL1  H23A 2576   2.496   0.616   8.375 -1.0457 -1.6826  1.2992
   35CHL1  H23B 2577   2.617   0.484   8.401  0.0808 -0.2222  1.5515
   35CHL1   C24 2578   2.614   0.610   8.566  0.6353 -1.0445  0.4045
   35CHL1  H24A 2579   2.708   0.571   8.610  1.3774 -0.1078 -0.3346
   35CHL1  H24B 2580   2.619   0.719   8.587  1.2541 -1.0800  0.4504
   35CHL1   C25 2581   2.505   0.550   8.660 -0.2433  0.2671 -0.0895
   35CHL1   H25 2582   2.405   0.577   8.619 -0.1533 -1.9192 -1.8834
   35CHL1   C26 2583   2.534   0.393   8.668  0.1715 -0.7745 -0.3118
   35CHL1  H26A 2584   2.620   0.383   8.738 -0.2826  0.1732  0.3954
   35CHL1  H26B 2585   2.444   0.341   8.707  0.8041 -2.3813 -0.9609
   35CHL1  H26C 2586   2.558   0.361   8.565 -0.8931 -2.3899 -0.0764
   35CHL1   C27 2587   2.508   0.610   8.796  0.6701  0.1176 -0.0033
   35CHL1  H27A 2588   2.501   0.721   8.804  1.8854  0.1462  0.8080
   35CHL1  H27B 2589   2.604   0.585   8.846  0.5868  1.5514  0.9161
   35CHL1  H27C 2590   2.427   0.570   8.860  1.7509 -3.2005 -0.6010
   36CHL1    C3 2591   4.174   6.619   7.146  0.1886  0.2337  0.6216
   36CHL1    H3 2592   4.277   6.655   7.167 -0.7898  3.3984  0.2634
   36CHL1    O3 2593   4.154   6.643   7.008 -0.0476  0.1099 -0.0949
   36CHL1   H3' 2594   4.063   6.618   6.990 -0.0106 -1.7354  2.1161
   36CHL1    C4 2595   4.157   6.474   7.191 -0.0091 -0.7514 -0.0395
   36CHL1   H4A 2596   4.063   6.451   7.136 -0.0816  1.1201 -0.7434
   36CHL1   H4B 2597   4.244   6.417   7.152 -1.8781 -3.4269 -0.3796
   36CHL1    C5 2598   4.138   6.455   7.340  0.5952  1.0001 -0.0514
   36CHL1    C6 2599   4.226   6.373   7.404  0.2291 -0.2385  0.0462
   36CHL1    H6 2600   4.310   6.330   7.347 -0.8463 -0.8651 -1.0881
   36CHL1    C7 2601   4.207   6.343   7.547  0.5124 -0.1282  0.3243
   36CHL1   H7A 2602   4.213   6.233   7.553  2.2902 -0.0056  1.1099
   36CHL1   H7B 2603   4.296   6.382   7.601  0.7069  0.9912 -0.7725
   36CHL1    C8 2604   4.063   6.381   7.598  0.2454  0.3140 -0.3002
   36CHL1    H8 2605   3.988   6.312   7.554  0.7869 -0.8360  0.5449
   36CHL1   C14 2606   4.056   6.375   7.754  0.5671 -0.3422 -0.7803
   36CHL1   H14 2607   4.134   6.449   7.783 -0.5561  1.6130 -2.5040
   36CHL1   C15 2608   4.111   6.244   7.810 -0.1045 -0.2392 -0.4606
   36CHL1  H15A 2609   4.057   6.164   7.754 -0.1939 -0.1181 -0.5494
   36CHL1  H15B 2610   4.221   6.236   7.798 -0.2232 -1.4033 -0.8438
   36CHL1   C16 2611   4.059   6.251   7.955 -0.1724  0.7917 -0.1673
   36CHL1  H16A 2612   3.999   6.159   7.970 -0.6916  0.8731 -1.6152
   36CHL1  H16B 2613   4.142   6.259   8.028 -1.0340 -3.3642  1.4411
   36CHL1   C17 2614   3.968   6.378   7.957  0.3238  0.2765  0.2911
   36CHL1   H17 2615   4.030   6.465   7.990 -1.6786  1.8728 -0.0327
   36CHL1   C13 2616   3.927   6.413   7.814 -0.6990 -0.2734 -0.6002
   36CHL1   C18 2617   3.805   6.328   7.772 -0.4207 -0.0456 -0.3278
   36CHL1  H18A 2618   3.773   6.332   7.666 -0.0584  1.1538 -0.4016
   36CHL1  H18B 2619   3.819   6.219   7.791  0.1465  0.0714 -0.0732
   36CHL1  H18C 2620   3.719   6.368   7.830  0.3736 -1.2597  1.7313
   36CHL1   C12 2621   3.900   6.563   7.777  0.7492 -0.1788 -0.2664
   36CHL1  H12A 2622   3.812   6.615   7.821  1.0510 -0.1912  0.3477
   36CHL1  H12B 2623   3.989   6.613   7.819  1.9137 -1.4767 -1.1571
   36CHL1   C11 2624   3.897   6.579   7.627  0.1682  0.5850  0.2928
   36CHL1  H11A 2625   3.808   6.533   7.580  0.5790 -0.2157  0.2869
   36CHL1  H11B 2626   3.891   6.689   7.612  1.0713  1.2307  4.0439
   36CHL1    C9 2627   4.023   6.524   7.555  0.5403  0.5555  0.6882
   36CHL1    H9 2628   4.106   6.586   7.596 -0.5865  4.2549 -2.3601
   36CHL1   C10 2629   4.022   6.533   7.398 -0.1217  0.6942 -0.1485
   36CHL1   C19 2630   3.883   6.487   7.340 -0.0111  0.5496 -0.3062
   36CHL1  H19A 2631   3.882   6.489   7.229  2.0981 -0.8982 -0.3750
   36CHL1  H19B 2632   3.871   6.382   7.372 -0.1469 -0.3351 -3.1516
   36CHL1  H19C 2633   3.797   6.542   7.384  0.3141 -0.3902  1.5469
   36CHL1    C1 2634   4.063   6.684   7.364  0.4032  0.2614  0.5001
   36CHL1   H1A 2635   3.994   6.743   7.428 -0.6419 -1.1498  0.7105
   36CHL1   H1B 2636   4.161   6.701   7.414  0.7649  0.6699 -0.3486
   36CHL1    C2 2637   4.073   6.716   7.215  0.4867 -0.4981 -0.4381
   36CHL1   H2A 2638   4.109   6.819   7.198 -0.2633 -0.1684 -0.0352
   36CHL1   H2B 2639   3.970   6.719   7.174  0.3137 -1.8769 -0.1547
   36CHL1   C20 2640   3.850   6.358   8.056  0.2975  0.2523  0.5006
   36CHL1   H20 2641   3.773   6.283   8.029  1.4949 -0.6150 -0.5995
   36CHL1   C21 2642   3.780   6.489   8.078  0.0169  0.0438 -0.0820
   36CHL1  H21A 2643   3.849   6.573   8.101  0.6065 -0.3184 -0.5091
   36CHL1  H21B 2644   3.704   6.484   8.159 -0.7710 -1.5541 -0.9046
   36CHL1  H21C 2645   3.721   6.520   7.989  0.3436  2.1413  0.4071
   36CHL1   C22 2646   3.910   6.308   8.193  0.6345 -0.0909 -0.3637
   36CHL1  H22A 2647   3.829   6.304   8.269  2.8079  0.2295  2.0223
   36CHL1  H22B 2648   3.948   6.206   8.172  0.1501 -0.7414  1.8244
   36CHL1   C23 2649   4.013   6.397   8.268 -0.0598  0.2411  0.8316
   36CHL1  H23A 2650   4.088   6.425   8.191 -1.5004  2.7766  0.2866
   36CHL1  H23B 2651   3.960   6.493   8.287  0.4403  1.2819 -2.6483
   36CHL1   C24 2652   4.079   6.331   8.391 -0.4278  0.9412  0.5353
   36CHL1  H24A 2653   4.133   6.243   8.349 -0.6362  1.5509 -1.0505
   36CHL1  H24B 2654   4.165   6.396   8.420  0.4886  1.4351 -3.0030
   36CHL1   C25 2655   3.987   6.279   8.507 -0.6010 -0.4823 -0.6112
   36CHL1   H25 2656   3.914   6.209   8.460  0.1252 -0.1972 -2.2140
   36CHL1   C26 2657   4.054   6.193   8.616  0.4429 -0.2590 -0.3931
   36CHL1  H26A 2658   4.105   6.106   8.569 -0.9153 -1.3686  0.1334
   36CHL1  H26B 2659   4.117   6.252   8.686  1.3988 -1.1616 -0.4854
   36CHL1  H26C 2660   3.977   6.143   8.679  0.7719 -0.4270 -0.1170
   36CHL1   C27 2661   3.913   6.392   8.571  0.1690 -0.6912  0.7680
   36CHL1  H27A 2662   3.975   6.456   8.637 -0.7174 -0.0200  0.9568
   36CHL1  H27B 2663   3.864   6.458   8.496 -1.1899 -0.3288  1.9465
   36CHL1  H27C 2664   3.830   6.347   8.630 -0.1062 -0.7857  0.3146
   37CHL1    C3 2665   0.813   1.995   6.987  0.2887  0.1411  0.2464
   37CHL1    H3 2666   0.838   1.888   7.008 -0.1661 -0.2096 -0.9528
   37CHL1    O3 2667   0.813   2.011   6.847  0.4153 -0.4583  0.5657
   37CHL1   H3' 2668   0.722   1.999   6.817  0.5158 -0.7400  0.3767
   37CHL1    C4 2669   0.677   2.025   7.038 -0.3167  0.4223 -0.0827
   37CHL1   H4A 2670   0.635   2.123   7.005 -3.6717 -1.0640 -0.3850
   37CHL1   H4B 2671   0.609   1.947   6.998 -2.2066  2.3719 -0.7667
   37CHL1    C5 2672   0.676   2.020   7.192 -0.0419 -0.1365 -0.4797
   37CHL1    C6 2673   0.594   1.944   7.264  0.3552 -0.1615 -0.5863
   37CHL1    H6 2674   0.515   1.883   7.219 -0.9911  0.8537  0.3827
   37CHL1    C7 2675   0.595   1.943   7.417  0.1502 -0.5172  0.6965
   37CHL1   H7A 2676   0.489   1.941   7.450 -0.8868 -0.6948 -2.4444
   37CHL1   H7B 2677   0.641   1.851   7.459  2.2090  0.4942  0.6910
   37CHL1    C8 2678   0.663   2.068   7.478 -0.8822  0.7913 -0.3629
   37CHL1    H8 2679   0.596   2.155   7.457 -1.7381  0.3144  0.3742
   37CHL1   C14 2680   0.670   2.045   7.622 -0.1506 -0.0059  0.0644
   37CHL1   H14 2681   0.729   1.952   7.636 -2.1764 -1.4909 -0.9026
   37CHL1   C15 2682   0.538   2.024   7.703 -0.9319 -0.7120 -0.5315
   37CHL1  H15A 2683   0.456   2.092   7.671  0.8586  1.7378 -0.0858
   37CHL1  H15B 2684   0.515   1.916   7.694  0.8837 -1.0944 -0.6352
   37CHL1   C16 2685   0.570   2.050   7.850 -0.2843 -0.5607  0.4262
   37CHL1  H16A 2686   0.500   2.126   7.890 -0.3058 -0.7347  0.7198
   37CHL1  H16B 2687   0.560   1.949   7.896  1.0219 -0.5409  0.7907
   37CHL1   C17 2688   0.719   2.100   7.850 -0.2595 -0.3352 -0.1403
   37CHL1   H17 2689   0.787   2.014   7.863  0.2512  0.0356 -0.3084
   37CHL1   C13 2690   0.747   2.152   7.706  0.2942  1.2172  0.0037
   37CHL1   C18 2691   0.676   2.292   7.700 -0.2547 -0.7880  0.1173
   37CHL1  H18A 2692   0.653   2.311   7.593 -2.0896 -0.6026  0.5250
   37CHL1  H18B 2693   0.581   2.297   7.758 -0.4897 -3.2079 -0.0154
   37CHL1  H18C 2694   0.748   2.370   7.734 -0.0479 -0.4021 -1.2000
   37CHL1   C12 2695   0.888   2.153   7.651 -0.8251  0.0985  0.0414
   37CHL1  H12A 2696   0.945   2.231   7.706 -2.6572  2.5053 -1.3334
   37CHL1  H12B 2697   0.939   2.057   7.670  0.1841  0.2081 -2.0163
   37CHL1   C11 2698   0.888   2.193   7.505 -0.1627 -0.2951 -0.0414
   37CHL1  H11A 2699   0.855   2.299   7.497  0.4834 -0.1562 -1.0010
   37CHL1  H11B 2700   0.991   2.196   7.464 -1.0909 -0.4718 -2.4870
   37CHL1    C9 2701   0.801   2.093   7.422 -0.9158  0.8042 -0.3012
   37CHL1    H9 2702   0.852   1.995   7.434  0.6927  1.6498 -0.0850
   37CHL1   C10 2703   0.787   2.105   7.268 -0.3716 -0.0380 -0.9387
   37CHL1   C19 2704   0.753   2.250   7.235 -0.2324 -0.2722 -0.1247
   37CHL1  H19A 2705   0.653   2.264   7.281 -0.3103 -0.0254 -0.3746
   37CHL1  H19B 2706   0.820   2.328   7.279  1.2827 -0.6251 -1.7269
   37CHL1  H19C 2707   0.742   2.268   7.127  1.4265  3.2383  0.2077
   37CHL1    C1 2708   0.917   2.070   7.199  0.1759 -0.1756 -0.2165
   37CHL1   H1A 2709   0.997   2.134   7.241  0.6556 -0.1084 -1.2185
   37CHL1   H1B 2710   0.934   1.962   7.220  1.1824 -0.1581 -0.9247
   37CHL1    C2 2711   0.916   2.088   7.050  0.0353 -0.1335  0.5143
   37CHL1   H2A 2712   1.016   2.056   7.015 -1.1292 -2.2069 -1.0146
   37CHL1   H2B 2713   0.903   2.194   7.021 -0.9916 -0.7941 -1.5252
   37CHL1   C20 2714   0.742   2.188   7.970  0.0982  0.3493 -0.1846
   37CHL1   H20 2715   0.681   2.281   7.966 -1.8108 -0.6814  3.3396
   37CHL1   C21 2716   0.892   2.220   7.972 -0.2860  0.1099 -0.4511
   37CHL1  H21A 2717   0.920   2.310   7.914 -0.5012 -1.0803 -2.4630
   37CHL1  H21B 2718   0.949   2.137   7.925 -0.5576 -0.3009 -0.0611
   37CHL1  H21C 2719   0.926   2.234   8.077 -1.9716  2.4670 -0.1730
   37CHL1   C22 2720   0.703   2.121   8.105 -0.4134 -0.2494 -0.6282
   37CHL1  H22A 2721   0.730   2.197   8.181  0.4686 -1.7801  0.6320
   37CHL1  H22B 2722   0.594   2.100   8.106 -0.5211  0.2854 -1.0476
   37CHL1   C23 2723   0.781   1.996   8.132 -0.1752  0.5799 -0.1889
   37CHL1  H23A 2724   0.774   1.925   8.047 -0.7639 -0.4201  0.6872
   37CHL1  H23B 2725   0.890   2.017   8.138  0.3347 -2.1675  1.0086
   37CHL1   C24 2726   0.759   1.920   8.265  0.6367  0.7007 -0.0704
   37CHL1  H24A 2727   0.822   1.829   8.259 -1.7036 -1.1644  2.0144
   37CHL1  H24B 2728   0.788   1.994   8.342  0.2121 -0.3082  1.0878
   37CHL1   C25 2729   0.613   1.884   8.304 -0.1402  0.4017  0.2885
   37CHL1   H25 2730   0.554   1.977   8.318 -1.3483 -0.2633 -0.2940
   37CHL1   C26 2731   0.558   1.795   8.195  0.0825 -0.0803  0.2260
   37CHL1  H26A 2732   0.454   1.760   8.215  0.0247 -0.9936 -1.5632
   37CHL1  H26B 2733   0.554   1.850   8.098  0.3662 -2.3614 -1.1106
   37CHL1  H26C 2734   0.615   1.701   8.184  0.1530  0.1275 -1.3955
   37CHL1   C27 2735   0.624   1.800   8.440  0.1580 -0.6568  0.3216
   37CHL1  H27A 2736   0.647   1.863   8.529 -0.9404 -1.7305  1.3830
   37CHL1  H27B 2737   0.527   1.752   8.462 -0.7526  0.6494 -0.7423
   37CHL1  H27C 2738   0.706   1.726   8.432  0.2143 -0.7902  1.9834
   38CHL1    C3 2739   3.989   3.091   6.713 -0.0657 -0.0371  0.1304
   38CHL1    H3 2740   4.081   3.029   6.722 -1.3905 -1.7940  2.0118
   38CHL1    O3 2741   3.955   3.106   6.578 -0.1022 -0.0329  0.1435
   38CHL1   H3' 2742   3.865   3.138   6.573 -0.8006 -1.6183  2.1085
   38CHL1    C4 2743   3.883   3.003   6.779  0.1462 -0.0293  0.4781
   38CHL1   H4A 2744   3.786   3.053   6.760  0.7717  1.7270  1.7922
   38CHL1   H4B 2745   3.869   2.907   6.724 -2.1816  1.2825 -1.2922
   38CHL1    C5 2746   3.908   2.980   6.926 -0.3668 -0.2967 -0.1133
   38CHL1    C6 2747   3.912   2.858   6.973 -0.4053 -0.4375 -0.1036
   38CHL1    H6 2748   3.901   2.776   6.900  0.6731 -2.0887  1.5495
   38CHL1    C7 2749   3.940   2.820   7.123 -0.0531 -0.6735 -0.0122
   38CHL1   H7A 2750   3.874   2.737   7.157 -1.9075  0.4803 -0.7532
   38CHL1   H7B 2751   4.044   2.779   7.124  0.0740 -0.3497  0.7147
   38CHL1    C8 2752   3.925   2.949   7.206 -0.0880 -0.0575  0.2701
   38CHL1    H8 2753   3.815   2.967   7.210 -0.4240 -2.1014  1.0899
   38CHL1   C14 2754   3.986   2.929   7.346 -0.6176 -0.0748  0.3379
   38CHL1   H14 2755   4.093   2.898   7.336 -0.4083 -0.2072  2.7651
   38CHL1   C15 2756   3.931   2.813   7.428  0.1612  0.8201  0.1612
   38CHL1  H15A 2757   3.820   2.817   7.421  0.2046  1.4687 -0.1356
   38CHL1  H15B 2758   3.955   2.712   7.388 -0.4769  0.2597  1.1874
   38CHL1   C16 2759   3.974   2.843   7.568  0.2180  0.2077  0.0123
   38CHL1  H16A 2760   3.885   2.839   7.634  0.4473 -1.0893  0.2513
   38CHL1  H16B 2761   4.053   2.770   7.595 -0.8140 -0.1619  2.0813
   38CHL1   C17 2762   4.032   2.991   7.574  0.4443  0.6759  0.5519
   38CHL1   H17 2763   4.140   3.005   7.553  0.3574  0.6102  0.0412
   38CHL1   C13 2764   3.976   3.045   7.440 -1.1209 -0.4392  0.3212
   38CHL1   C18 2765   3.835   3.096   7.455 -0.3033  0.2023 -0.0578
   38CHL1  H18A 2766   3.768   3.021   7.504  2.7749 -4.2430 -2.3351
   38CHL1  H18B 2767   3.819   3.186   7.518 -0.7532 -0.8406  1.3310
   38CHL1  H18C 2768   3.790   3.123   7.357 -2.3714 -1.0581  0.4971
   38CHL1   C12 2769   4.064   3.168   7.382 -0.4053 -0.1245  0.3257
   38CHL1  H12A 2770   4.059   3.255   7.451  0.8389 -0.2958  0.6345
   38CHL1  H12B 2771   4.172   3.143   7.377 -0.3422  0.4740 -1.6312
   38CHL1   C11 2772   4.015   3.204   7.234 -0.4490  0.1940  0.2749
   38CHL1  H11A 2773   3.922   3.263   7.249 -0.3006 -0.0064  2.0596
   38CHL1  H11B 2774   4.093   3.269   7.190  1.7361 -1.2244  1.9500
   38CHL1    C9 2775   3.992   3.077   7.144  0.1144 -0.8904 -0.1708
   38CHL1    H9 2776   4.098   3.048   7.130  0.4404  0.1999  0.0532
   38CHL1   C10 2777   3.938   3.108   7.006  0.1957  0.3814 -0.6107
   38CHL1   C19 2778   3.804   3.184   7.009 -0.2822  0.6195 -0.2579
   38CHL1  H19A 2779   3.763   3.204   6.908  0.6461  1.8182 -0.4082
   38CHL1  H19B 2780   3.730   3.131   7.073  0.5262 -0.5894 -0.2973
   38CHL1  H19C 2781   3.815   3.286   7.051 -2.0715  0.4541  0.6673
   38CHL1    C1 2782   4.046   3.203   6.923 -0.4472  0.2513  0.4017
   38CHL1   H1A 2783   4.043   3.293   6.988 -3.0409  1.1881 -0.9212
   38CHL1   H1B 2784   4.149   3.162   6.927  0.5184  2.6342  0.2613
   38CHL1    C2 2785   4.008   3.223   6.778 -0.4319 -0.3153 -0.0781
   38CHL1   H2A 2786   4.077   3.294   6.729 -0.7655  0.3414  0.3910
   38CHL1   H2B 2787   3.914   3.283   6.770 -0.1373  0.4022  1.6134
   38CHL1   C20 2788   4.001   3.059   7.713 -0.1782  0.1855 -0.6216
   38CHL1   H20 2789   3.892   3.078   7.728  0.0966  1.5557 -0.3041
   38CHL1   C21 2790   4.072   3.196   7.734  0.3350  0.1343  0.3702
   38CHL1  H21A 2791   4.031   3.274   7.667  0.1903  0.0392  0.3490
   38CHL1  H21B 2792   4.182   3.192   7.714  0.0884  0.3920 -1.0738
   38CHL1  H21C 2793   4.050   3.228   7.837  0.0532  1.5607 -0.1330
   38CHL1   C22 2794   4.032   2.965   7.831  0.0785 -0.4761  0.5040
   38CHL1  H22A 2795   4.008   3.013   7.928 -0.7515 -0.4268  0.2804
   38CHL1  H22B 2796   3.966   2.876   7.820  0.2428 -0.5135 -0.1942
   38CHL1   C23 2797   4.176   2.917   7.843 -0.8227  0.3675 -0.4558
   38CHL1  H23A 2798   4.213   2.879   7.745  0.3698 -0.5182  0.3146
   38CHL1  H23B 2799   4.247   3.002   7.856  0.0876 -0.0464 -2.4052
   38CHL1   C24 2800   4.188   2.806   7.947 -0.6189  0.1244 -0.0091
   38CHL1  H24A 2801   4.191   2.855   8.047  1.4227  1.5505 -0.7269
   38CHL1  H24B 2802   4.095   2.745   7.952  0.9992 -2.4093 -0.1016
   38CHL1   C25 2803   4.312   2.716   7.934  0.3973  0.1284 -0.2950
   38CHL1   H25 2804   4.396   2.786   7.914  0.1241  0.8631  1.0403
   38CHL1   C26 2805   4.340   2.644   8.067  0.0417 -0.1302 -0.1548
   38CHL1  H26A 2806   4.412   2.560   8.054  0.7595  0.6906 -1.6623
   38CHL1  H26B 2807   4.381   2.721   8.135 -1.0506  0.8027 -0.5478
   38CHL1  H26C 2808   4.245   2.603   8.110 -0.9446  2.8129  0.5458
   38CHL1   C27 2809   4.303   2.615   7.826  0.0447 -0.0030  0.0758
   38CHL1  H27A 2810   4.387   2.543   7.835  2.7002  2.9157 -0.5977
   38CHL1  H27B 2811   4.213   2.551   7.836  0.1306  0.0513  1.1696
   38CHL1  H27C 2812   4.286   2.654   7.723  2.2135  0.9216  0.0477
   39CHL1    C3 2813   3.562   2.017   6.740  0.1510  0.1175 -0.3700
   39CHL1    H3 2814   3.596   1.911   6.738 -0.8299 -0.2264  0.9377
   39CHL1    O3 2815   3.586   2.064   6.608 -0.1902 -0.2237 -0.7017
   39CHL1   H3' 2816   3.601   1.983   6.558 -2.2026 -1.5154  0.6915
   39CHL1    C4 2817   3.417   2.006   6.771 -0.7677 -0.1375  0.9073
   39CHL1   H4A 2818   3.379   2.108   6.748 -1.7865 -0.6332  0.3671
   39CHL1   H4B 2819   3.360   1.941   6.701 -1.2248  2.1140 -0.8557
   39CHL1    C5 2820   3.380   1.973   6.913 -0.4623  0.8523  0.1196
   39CHL1    C6 2821   3.283   1.883   6.944  0.0957 -0.4514  0.2061
   39CHL1    H6 2822   3.227   1.824   6.869 -0.5530  0.8713 -0.3637
   39CHL1    C7 2823   3.234   1.873   7.091 -0.3405 -0.1806 -0.1461
   39CHL1   H7A 2824   3.124   1.884   7.096 -0.5498 -1.9616 -0.5586
   39CHL1   H7B 2825   3.261   1.768   7.117  1.2332  0.7495  2.1655
   39CHL1    C8 2826   3.300   1.965   7.198  0.3458  0.5340  0.8597
   39CHL1    H8 2827   3.244   2.061   7.191 -1.5141 -0.5604  0.4348
   39CHL1   C14 2828   3.279   1.920   7.337 -0.3704 -0.4234  0.1029
   39CHL1   H14 2829   3.349   1.834   7.337 -1.5508 -1.4188  1.6672
   39CHL1   C15 2830   3.150   1.852   7.383 -0.2110 -0.1461 -0.3080
   39CHL1  H15A 2831   3.055   1.898   7.349 -0.4814  0.2580  0.9840
   39CHL1  H15B 2832   3.148   1.745   7.352  1.0947  0.1401 -1.4338
   39CHL1   C16 2833   3.155   1.860   7.537  0.0348 -0.3537  0.0719
   39CHL1  H16A 2834   3.071   1.921   7.579 -0.2360  0.5966 -1.7695
   39CHL1  H16B 2835   3.142   1.760   7.583 -1.6139  0.3309  1.1790
   39CHL1   C17 2836   3.295   1.918   7.574  0.8095  0.4177 -0.5327
   39CHL1   H17 2837   3.379   1.848   7.596 -0.0885 -0.2478  0.8435
   39CHL1   C13 2838   3.327   2.008   7.452  0.0557  0.5922  0.2275
   39CHL1   C18 2839   3.246   2.141   7.441  0.5390 -0.3605  0.2314
   39CHL1  H18A 2840   3.282   2.203   7.356 -0.8868  0.1639 -0.0003
   39CHL1  H18B 2841   3.140   2.114   7.422  0.3684  0.4243  0.0835
   39CHL1  H18C 2842   3.246   2.190   7.541  0.7382  1.0091 -0.4342
   39CHL1   C12 2843   3.477   2.036   7.421  0.0768  0.2359  0.2004
   39CHL1  H12A 2844   3.514   2.117   7.488  2.4612 -1.3974  0.9324
   39CHL1  H12B 2845   3.539   1.944   7.432  1.8053  1.5039  1.2706
   39CHL1   C11 2846   3.506   2.093   7.283 -0.3891  0.0603  0.5481
   39CHL1  H11A 2847   3.465   2.196   7.276 -1.6165 -0.4550  0.0299
   39CHL1  H11B 2848   3.614   2.115   7.273 -0.3159 -0.9162 -1.0574
   39CHL1    C9 2849   3.445   2.004   7.170  0.3840  0.2972  0.4635
   39CHL1    H9 2850   3.508   1.913   7.180 -0.6703 -0.6609 -1.4712
   39CHL1   C10 2851   3.458   2.053   7.025  0.6006  0.8361  0.0530
   39CHL1   C19 2852   3.397   2.198   7.021  0.5433  0.1443  0.5555
   39CHL1  H19A 2853   3.410   2.235   6.917 -0.0846 -3.8990 -1.0746
   39CHL1  H19B 2854   3.291   2.204   7.053  0.4355  1.4857 -0.0364
   39CHL1  H19C 2855   3.451   2.262   7.094 -0.6516 -0.2683  1.8169
   39CHL1    C1 2856   3.607   2.055   6.994 -0.5527  0.5918 -0.1365
   39CHL1   H1A 2857   3.653   2.145   7.042  2.2062  0.2387 -2.0054
   39CHL1   H1B 2858   3.664   1.967   7.030  0.6890  1.2228 -0.5334
   39CHL1    C2 2859   3.644   2.090   6.845 -0.1693 -0.4045  0.3493
   39CHL1   H2A 2860   3.752   2.064   6.837  1.1988  4.4046  1.5111
   39CHL1   H2B 2861   3.637   2.199   6.821 -0.1094 -0.4499  0.1267
   39CHL1   C20 2862   3.293   1.995   7.713 -0.6409 -0.5084  0.5295
   39CHL1   H20 2863   3.210   2.069   7.706 -0.2929  0.0007  1.6873
   39CHL1   C21 2864   3.421   2.072   7.748 -0.7764 -0.1656 -0.1360
   39CHL1  H21A 2865   3.435   2.169   7.695 -0.6454  0.8244  1.6799
   39CHL1  H21B 2866   3.518   2.017   7.737 -1.6709 -1.8017 -0.0471
   39CHL1  H21C 2867   3.414   2.120   7.848  3.6950  1.3269 -0.4181
   39CHL1   C22 2868   3.260   1.899   7.828  0.5724 -0.0902 -0.6250
   39CHL1  H22A 2869   3.190   1.815   7.805  1.4992 -1.0237 -0.0714
   39CHL1  H22B 2870   3.358   1.857   7.857  1.5154  0.4276 -2.9229
   39CHL1   C23 2871   3.199   1.971   7.956 -0.3004 -0.2948  0.6329
   39CHL1  H23A 2872   3.237   2.074   7.972 -0.4462  0.1495 -1.6619
   39CHL1  H23B 2873   3.097   2.001   7.921  0.0153  0.4924  0.3687
   39CHL1   C24 2874   3.214   1.890   8.084  0.1985 -0.4059 -0.1454
   39CHL1  H24A 2875   3.160   1.796   8.061  0.0378 -0.0591 -1.2172
   39CHL1  H24B 2876   3.322   1.874   8.103 -0.0856 -1.5741  0.5827
   39CHL1   C25 2877   3.181   1.972   8.207  0.3358  0.4315 -0.2906
   39CHL1   H25 2878   3.251   2.057   8.224  0.3069  0.5241 -0.6220
   39CHL1   C26 2879   3.043   2.034   8.184 -0.0885  0.9388  0.3001
   39CHL1  H26A 2880   2.964   1.966   8.147  3.2173 -0.8757 -3.8033
   39CHL1  H26B 2881   3.008   2.094   8.271 -0.0791 -0.3766  1.2133
   39CHL1  H26C 2882   3.067   2.114   8.111  0.4544  0.6551  0.1612
   39CHL1   C27 2883   3.180   1.886   8.335  0.3773 -0.6939  0.6335
   39CHL1  H27A 2884   3.278   1.835   8.341 -0.4652 -2.2153  1.9696
   39CHL1  H27B 2885   3.153   1.950   8.421 -1.3196  0.8503 -0.9985
   39CHL1  H27C 2886   3.106   1.803   8.332 -1.5724  0.9401  1.9232
   40CHL1    C3 2887   6.131   1.287   6.830  0.3629 -0.0399  0.3673
   40CHL1    H3 2888   6.025   1.254   6.842  0.1007  0.8694  0.6293
   40CHL1    O3 2889   6.148   1.296   6.691  0.4545 -0.0804  0.0842
   40CHL1   H3' 2890   6.228   1.348   6.686  0.2886  0.4181  2.2432
   40CHL1    C4 2891   6.131   1.427   6.901 -0.5506  0.4637 -0.2739
   40CHL1   H4A 2892   6.228   1.477   6.877 -0.5028  0.2791 -0.4629
   40CHL1   H4B 2893   6.048   1.484   6.854 -2.3252  1.4625  3.8500
   40CHL1    C5 2894   6.111   1.419   7.053  0.0259 -0.4340 -0.5150
   40CHL1    C6 2895   6.005   1.478   7.115  0.2556 -0.0928  0.2283
   40CHL1    H6 2896   5.932   1.525   7.048  1.1742  1.0343  0.0119
   40CHL1    C7 2897   5.974   1.462   7.259 -0.3086  0.3648 -0.1306
   40CHL1   H7A 2898   5.955   1.562   7.303 -1.6238  0.0251  0.1115
   40CHL1   H7B 2899   5.885   1.398   7.276  0.4633 -0.3272  1.3903
   40CHL1    C8 2900   6.098   1.412   7.339 -0.8836 -0.3780 -0.4828
   40CHL1    H8 2901   6.178   1.489   7.336 -0.8484 -0.4161 -0.5164
   40CHL1   C14 2902   6.057   1.384   7.488 -0.0024  0.1273 -0.9646
   40CHL1   H14 2903   5.986   1.298   7.480  1.5272 -1.1596 -0.9284
   40CHL1   C15 2904   5.990   1.488   7.576  0.1533 -0.3221 -0.3336
   40CHL1  H15A 2905   6.052   1.580   7.582 -1.2029  0.6345 -0.5678
   40CHL1  H15B 2906   5.888   1.525   7.550 -0.2046 -1.1575 -0.1386
   40CHL1   C16 2907   5.988   1.421   7.718 -0.5070  0.0655  0.3048
   40CHL1  H16A 2908   6.029   1.496   7.789 -0.5377 -1.0014  1.4596
   40CHL1  H16B 2909   5.884   1.391   7.743 -0.8732  0.3151 -0.8788
   40CHL1   C17 2910   6.087   1.301   7.712  0.4143 -0.2371  0.5339
   40CHL1   H17 2911   6.012   1.221   7.692  0.8859 -0.5500  0.0014
   40CHL1   C13 2912   6.162   1.320   7.576  0.7058  0.1987  0.0571
   40CHL1   C18 2913   6.290   1.410   7.600 -0.0496  0.1667  0.8403
   40CHL1  H18A 2914   6.377   1.347   7.629  0.5615  0.4562 -0.3316
   40CHL1  H18B 2915   6.316   1.465   7.507  2.1723 -3.0734 -0.5440
   40CHL1  H18C 2916   6.270   1.482   7.683 -1.8545 -0.1634  0.6990
   40CHL1   C12 2917   6.203   1.190   7.506  0.0452  0.0080 -0.4687
   40CHL1  H12A 2918   6.283   1.139   7.564 -0.1392 -1.1556 -1.2218
   40CHL1  H12B 2919   6.125   1.111   7.498 -0.4426  0.0227  3.1760
   40CHL1   C11 2920   6.265   1.228   7.372 -0.0986 -0.4032 -0.2478
   40CHL1  H11A 2921   6.356   1.291   7.378 -0.7673  0.5077  0.2892
   40CHL1  H11B 2922   6.299   1.133   7.325 -1.2200 -1.2708  0.6547
   40CHL1    C9 2923   6.160   1.289   7.277 -0.1882  1.1783  0.4912
   40CHL1    H9 2924   6.088   1.205   7.277  0.2008  0.8429 -0.0080
   40CHL1   C10 2925   6.207   1.323   7.131 -0.5007 -0.2561  0.0400
   40CHL1   C19 2926   6.349   1.395   7.128 -0.0568 -0.3085 -0.1433
   40CHL1  H19A 2927   6.380   1.418   7.024 -1.8949  0.1328 -0.6227
   40CHL1  H19B 2928   6.346   1.491   7.183  1.4429 -0.0728 -0.4599
   40CHL1  H19C 2929   6.424   1.331   7.179 -1.0855  0.8980  3.0057
   40CHL1    C1 2930   6.215   1.188   7.052  0.4337  0.5634 -0.0921
   40CHL1   H1A 2931   6.287   1.120   7.102  0.1768 -0.0752 -0.5856
   40CHL1   H1B 2932   6.111   1.150   7.063  0.7368 -0.2129  0.1318
   40CHL1    C2 2933   6.237   1.201   6.898 -0.0810  0.4902 -0.3977
   40CHL1   H2A 2934   6.250   1.106   6.843  0.0256  2.5011 -3.9946
   40CHL1   H2B 2935   6.336   1.247   6.876 -0.3753  2.3692  2.0061
   40CHL1   C20 2936   6.174   1.274   7.835  0.3278 -0.1310  0.2591
   40CHL1   H20 2937   6.221   1.373   7.855 -0.3559 -0.4007  3.4732
   40CHL1   C21 2938   6.285   1.162   7.815 -1.2763 -0.0819 -0.6086
   40CHL1  H21A 2939   6.367   1.210   7.758 -2.0985  0.9891 -0.8975
   40CHL1  H21B 2940   6.242   1.079   7.755 -0.9856 -0.4261 -0.3403
   40CHL1  H21C 2941   6.331   1.124   7.908 -0.5055 -0.4107 -1.1121
   40CHL1   C22 2942   6.082   1.233   7.953  0.1875  0.1502  0.4743
   40CHL1  H22A 2943   5.978   1.260   7.926  0.3814 -1.7277 -2.3274
   40CHL1  H22B 2944   6.074   1.123   7.965 -1.3597  0.4226  2.1174
   40CHL1   C23 2945   6.113   1.311   8.081 -0.1099  0.3103  0.2983
   40CHL1  H23A 2946   6.110   1.419   8.054  0.4169  0.1135 -0.5645
   40CHL1  H23B 2947   6.041   1.296   8.164 -1.7043  2.2116 -0.6739
   40CHL1   C24 2948   6.254   1.275   8.140 -0.5176 -0.5673  0.6176
   40CHL1  H24A 2949   6.270   1.166   8.144  2.3899 -0.2025  0.1140
   40CHL1  H24B 2950   6.330   1.300   8.063 -0.7114 -2.8235 -0.3432
   40CHL1   C25 2951   6.287   1.337   8.275 -0.8511  0.0822 -0.1541
   40CHL1   H25 2952   6.386   1.291   8.292 -0.5183  0.9424  0.2510
   40CHL1   C26 2953   6.320   1.494   8.267  0.2515  0.3694 -0.2175
   40CHL1  H26A 2954   6.356   1.501   8.162 -1.7435 -0.4986 -0.9905
   40CHL1  H26B 2955   6.219   1.538   8.255 -0.4724 -1.4378 -0.9708
   40CHL1  H26C 2956   6.391   1.522   8.348  1.9169 -1.9749 -0.7747
   40CHL1   C27 2957   6.197   1.292   8.393 -0.6707 -0.4316 -0.4166
   40CHL1  H27A 2958   6.173   1.186   8.370  0.3199 -0.7061 -0.1859
   40CHL1  H27B 2959   6.259   1.293   8.485 -0.5835  1.7413 -0.4699
   40CHL1  H27C 2960   6.105   1.353   8.405  0.2708  0.4449  2.7996
   41CHL1    C3 2961   0.375   1.133   7.028  0.0488  0.3633  0.1313
   41CHL1    H3 2962   0.466   1.192   7.052  1.8386 -3.4708  3.2642
   41CHL1    O3 2963   0.339   1.151   6.895  0.0153 -0.0797 -0.1729
   41CHL1   H3' 2964   0.415   1.128   6.841 -0.2650 -0.4874 -0.3962
   41CHL1    C4 2965   0.389   0.983   7.058  0.0420 -0.1013 -0.2304
   41CHL1   H4A 2966   0.292   0.938   7.028  0.3856 -1.3831  0.5239
   41CHL1   H4B 2967   0.480   0.950   7.003 -0.2804 -0.8851 -0.2967
   41CHL1    C5 2968   0.402   0.953   7.212 -0.3764 -0.2649 -0.0595
   41CHL1    C6 2969   0.515   0.889   7.255 -0.1595  0.3478 -0.2976
   41CHL1    H6 2970   0.595   0.858   7.186 -0.5871  1.6822 -1.4326
   41CHL1    C7 2971   0.545   0.869   7.403  0.3114 -0.8628  0.8965
   41CHL1   H7A 2972   0.583   0.765   7.413  2.3585 -0.0260  2.2612
   41CHL1   H7B 2973   0.629   0.937   7.428 -0.0544  0.1476 -0.5610
   41CHL1    C8 2974   0.424   0.886   7.496 -0.1431 -0.1250 -0.7141
   41CHL1    H8 2975   0.366   0.793   7.475  0.0320 -0.3357 -0.2761
   41CHL1   C14 2976   0.472   0.912   7.646 -0.4620  0.1725  0.6511
   41CHL1   H14 2977   0.521   1.011   7.645  0.3943 -0.2422  1.0071
   41CHL1   C15 2978   0.577   0.822   7.708 -0.0668  0.1957 -0.1754
   41CHL1  H15A 2979   0.585   0.716   7.675  1.4585 -0.8057  3.2010
   41CHL1  H15B 2980   0.676   0.869   7.693  0.1410  0.2389  1.2532
   41CHL1   C16 2981   0.550   0.826   7.857  0.3570 -0.2379 -0.0706
   41CHL1  H16A 2982   0.505   0.728   7.880 -2.0462  0.5382 -1.3002
   41CHL1  H16B 2983   0.639   0.854   7.917  2.3500 -1.2721 -2.4732
   41CHL1   C17 2984   0.443   0.933   7.883  0.5752  0.1347 -0.5284
   41CHL1   H17 2985   0.484   1.037   7.885 -1.0613  0.7858 -0.0994
   41CHL1   C13 2986   0.361   0.931   7.746 -0.5105  0.4173 -0.1437
   41CHL1   C18 2987   0.267   0.811   7.744  0.5071 -0.0658  0.0567
   41CHL1  H18A 2988   0.230   0.794   7.641 -0.1037 -0.8998  0.4167
   41CHL1  H18B 2989   0.318   0.718   7.778  1.8793  0.5039 -0.4085
   41CHL1  H18C 2990   0.191   0.835   7.821 -0.2873  0.0479 -0.7597
   41CHL1   C12 2991   0.288   1.061   7.708  0.5262 -0.5083  0.1667
   41CHL1  H12A 2992   0.199   1.077   7.771  1.9875 -0.0781  2.1686
   41CHL1  H12B 2993   0.350   1.152   7.721  1.0046 -0.2491 -3.4245
   41CHL1   C11 2994   0.241   1.050   7.561  0.0766 -0.3590  0.0557
   41CHL1  H11A 2995   0.157   0.977   7.561 -0.6791  0.4934  0.3009
   41CHL1  H11B 2996   0.199   1.148   7.528 -0.8863 -0.9042 -0.3581
   41CHL1    C9 2997   0.348   1.018   7.456 -0.2254  0.7893  0.5613
   41CHL1    H9 2998   0.422   1.099   7.471  0.4534  0.0072  1.4834
   41CHL1   C10 2999   0.299   1.020   7.310  0.0364  0.8033  0.4355
   41CHL1   C19 3000   0.171   0.942   7.291 -0.0049 -0.4056  0.7630
   41CHL1  H19A 3001   0.098   0.976   7.367 -2.8928 -2.7945 -0.8374
   41CHL1  H19B 3002   0.125   0.954   7.191 -0.1130  1.7969  1.0546
   41CHL1  H19C 3003   0.178   0.831   7.301 -0.7314 -0.5294 -0.1340
   41CHL1    C1 3004   0.285   1.175   7.265  0.4263 -0.1649  0.3646
   41CHL1   H1A 3005   0.206   1.223   7.327 -1.2002  0.4509 -2.0714
   41CHL1   H1B 3006   0.386   1.220   7.275  0.1356  0.2581  1.4080
   41CHL1    C2 3007   0.260   1.197   7.114  0.6132  0.2284  0.7220
   41CHL1   H2A 3008   0.266   1.305   7.090 -1.8147  0.0134 -1.0288
   41CHL1   H2B 3009   0.162   1.170   7.071  0.3436  0.7527  0.9994
   41CHL1   C20 3010   0.373   0.908   8.018  0.6892  0.1659 -0.2091
   41CHL1   H20 3011   0.309   0.819   8.001 -0.4161  0.6265  1.3825
   41CHL1   C21 3012   0.281   1.029   8.042 -0.0947 -0.1910  0.3059
   41CHL1  H21A 3013   0.209   1.041   7.958  1.5959  0.9661 -0.9998
   41CHL1  H21B 3014   0.329   1.126   8.066 -2.7365  1.2808 -0.1312
   41CHL1  H21C 3015   0.223   1.004   8.134  0.3011 -0.4934  0.4771
   41CHL1   C22 3016   0.476   0.886   8.136  0.1573 -0.3128 -0.2866
   41CHL1  H22A 3017   0.418   0.868   8.230 -2.5791  0.4503 -1.7842
   41CHL1  H22B 3018   0.531   0.791   8.119  0.0446 -0.6484  1.1520
   41CHL1   C23 3019   0.570   1.008   8.171 -1.0480  0.2767  0.2927
   41CHL1  H23A 3020   0.617   1.056   8.082  0.8984 -1.7437  0.1991
   41CHL1  H23B 3021   0.502   1.090   8.204 -0.6952 -0.0451  1.8348
   41CHL1   C24 3022   0.672   0.986   8.283 -0.1218  0.3090  0.1218
   41CHL1  H24A 3023   0.704   1.089   8.311 -2.5320  1.2940 -0.6713
   41CHL1  H24B 3024   0.621   0.942   8.371 -0.6888  2.0956  0.7099
   41CHL1   C25 3025   0.797   0.904   8.254 -0.0284 -0.4128 -0.5110
   41CHL1   H25 3026   0.760   0.803   8.226 -0.7543 -0.3299  0.1198
   41CHL1   C26 3027   0.878   0.966   8.136 -0.0078  0.1584  0.1986
   41CHL1  H26A 3028   0.977   0.915   8.134 -0.9211 -1.6530 -0.3270
   41CHL1  H26B 3029   0.819   0.953   8.042  0.1482 -0.3221  0.1604
   41CHL1  H26C 3030   0.896   1.075   8.147 -1.3717  0.2889  1.2684
   41CHL1   C27 3031   0.887   0.906   8.377  0.0719  0.9280  0.0710
   41CHL1  H27A 3032   0.915   1.011   8.397  0.6004  0.9650 -0.8184
   41CHL1  H27B 3033   0.844   0.860   8.468  0.0808  1.8707  0.5457
   41CHL1  H27C 3034   0.984   0.855   8.355 -0.2581  1.0513 -1.7918
   42CHL1    C3 3035   1.495   5.168   6.913  0.0722 -0.0862 -0.0177
   42CHL1    H3 3036   1.482   5.060   6.935  1.5045 -0.0921  0.9430
   42CHL1    O3 3037   1.505   5.205   6.772 -0.3994  0.2634 -0.3882
   42CHL1   H3' 3038   1.576   5.270   6.767  0.9475 -1.1343  0.0565
   42CHL1    C4 3039   1.386   5.249   6.982 -0.0890  0.7929 -0.0451
   42CHL1   H4A 3040   1.398   5.357   6.959  0.2920  0.6579 -0.4874
   42CHL1   H4B 3041   1.298   5.209   6.928 -0.3375  0.5991  0.4938
   42CHL1    C5 3042   1.380   5.229   7.129  0.6643  1.0106  0.3552
   42CHL1    C6 3043   1.265   5.197   7.188  0.0551  0.1204 -0.4915
   42CHL1    H6 3044   1.177   5.179   7.125  0.4108  0.5964 -1.1271
   42CHL1    C7 3045   1.239   5.180   7.333  0.2468 -0.4327 -0.2108
   42CHL1   H7A 3046   1.151   5.245   7.354  1.9946  1.2758  2.1268
   42CHL1   H7B 3047   1.206   5.074   7.329 -1.2237  0.0098 -0.0362
   42CHL1    C8 3048   1.355   5.223   7.423  0.1823 -0.2788 -0.6555
   42CHL1    H8 3049   1.360   5.333   7.439 -0.0924 -0.4132  0.4387
   42CHL1   C14 3050   1.347   5.149   7.560 -0.1325 -0.0194 -0.6598
   42CHL1   H14 3051   1.355   5.039   7.547  0.6548 -0.1740  1.0499
   42CHL1   C15 3052   1.217   5.174   7.637 -0.6696 -0.3218 -0.1318
   42CHL1  H15A 3053   1.180   5.279   7.631 -1.8652 -0.8060 -1.8941
   42CHL1  H15B 3054   1.133   5.112   7.598 -1.1321  1.8842 -2.8779
   42CHL1   C16 3055   1.257   5.150   7.783  0.0399  0.1636 -0.7749
   42CHL1  H16A 3056   1.225   5.225   7.858  0.1416 -1.2367  0.7010
   42CHL1  H16B 3057   1.204   5.060   7.821 -0.1239  0.4320 -0.3726
   42CHL1   C17 3058   1.412   5.122   7.787 -0.5859  0.8764 -0.5549
   42CHL1   H17 3059   1.421   5.011   7.788 -0.6162  0.8765 -0.3522
   42CHL1   C13 3060   1.466   5.186   7.646 -0.4829 -0.0618 -0.4357
   42CHL1   C18 3061   1.489   5.339   7.676 -0.0021  0.1550  0.3421
   42CHL1  H18A 3062   1.506   5.398   7.583 -2.6180  0.8899  0.2838
   42CHL1  H18B 3063   1.401   5.383   7.727  1.3624  2.3277  0.9326
   42CHL1  H18C 3064   1.579   5.355   7.739  0.8708  0.3045 -0.9168
   42CHL1   C12 3065   1.596   5.120   7.580  0.2137 -0.5198  0.0746
   42CHL1  H12A 3066   1.683   5.150   7.643  0.4994  0.7069 -0.8926
   42CHL1  H12B 3067   1.587   5.010   7.564 -0.7970 -0.3452 -0.6654
   42CHL1   C11 3068   1.615   5.182   7.439 -0.5418 -0.4368 -0.6329
   42CHL1  H11A 3069   1.664   5.280   7.455  0.7995 -1.0386 -1.0126
   42CHL1  H11B 3070   1.697   5.130   7.387  0.0463  0.7235 -0.8906
   42CHL1    C9 3071   1.488   5.176   7.352 -0.0719 -0.8388  0.3205
   42CHL1    H9 3072   1.468   5.068   7.335 -0.5800 -0.8281  0.8404
   42CHL1   C10 3073   1.518   5.237   7.208 -0.5755  0.4948 -0.4175
   42CHL1   C19 3074   1.541   5.388   7.213  0.2688 -0.3646 -0.3848
   42CHL1  H19A 3075   1.458   5.455   7.243 -0.9847 -2.6355  1.3348
   42CHL1  H19B 3076   1.625   5.402   7.285  0.9852 -1.6836 -0.9492
   42CHL1  H19C 3077   1.569   5.432   7.115  3.1928 -4.4375 -1.5310
   42CHL1    C1 3078   1.633   5.164   7.133  0.0750  0.9281  0.4398
   42CHL1   H1A 3079   1.733   5.175   7.182  0.2584 -1.1993  0.5766
   42CHL1   H1B 3080   1.608   5.056   7.132 -2.5520  1.5093 -0.6164
   42CHL1    C2 3081   1.635   5.201   6.987 -0.1704 -0.5224 -0.1173
   42CHL1   H2A 3082   1.704   5.140   6.925 -0.5378 -0.5972 -0.4599
   42CHL1   H2B 3083   1.648   5.311   6.974 -0.1391 -0.3305  1.4580
   42CHL1   C20 3084   1.480   5.168   7.913  0.0902  0.0951  0.3834
   42CHL1   H20 3085   1.491   5.278   7.925  1.8274  0.2942 -2.7387
   42CHL1   C21 3086   1.622   5.098   7.922  0.1515 -0.0904  0.0054
   42CHL1  H21A 3087   1.616   4.993   7.959 -3.7515  0.1736  0.2450
   42CHL1  H21B 3088   1.687   5.160   7.988  1.5356  0.7595 -2.0860
   42CHL1  H21C 3089   1.685   5.099   7.830  0.0991 -0.2339 -0.0311
   42CHL1   C22 3090   1.396   5.123   8.039  0.1469 -0.2310 -0.4649
   42CHL1  H22A 3091   1.294   5.167   8.046 -0.4605 -2.0052  2.6633
   42CHL1  H22B 3092   1.397   5.012   8.045 -0.7627 -0.2548 -0.6938
   42CHL1   C23 3093   1.453   5.188   8.165 -0.1503  0.9934  0.0938
   42CHL1  H23A 3094   1.555   5.147   8.181 -0.2006  0.9306  0.2593
   42CHL1  H23B 3095   1.464   5.297   8.152 -0.9122  0.9276 -1.1300
   42CHL1   C24 3096   1.366   5.184   8.292  0.1611  0.1574 -0.4340
   42CHL1  H24A 3097   1.278   5.252   8.279 -1.4393 -1.3812  1.9561
   42CHL1  H24B 3098   1.325   5.082   8.307 -0.4900  0.3601 -0.8088
   42CHL1   C25 3099   1.425   5.230   8.425 -0.5086  0.3601  0.6023
   42CHL1   H25 3100   1.427   5.340   8.413  1.6426  0.5117  2.0775
   42CHL1   C26 3101   1.335   5.195   8.546  0.1008 -0.2967 -0.0356
   42CHL1  H26A 3102   1.230   5.217   8.516  0.7924  0.5440 -1.9050
   42CHL1  H26B 3103   1.345   5.090   8.582 -0.1508 -0.4279 -0.3483
   42CHL1  H26C 3104   1.370   5.264   8.625  0.2670 -0.1363 -0.2505
   42CHL1   C27 3105   1.574   5.194   8.457 -0.2293  0.0347  0.0708
   42CHL1  H27A 3106   1.594   5.085   8.454 -0.0540 -0.0109  2.2189
   42CHL1  H27B 3107   1.606   5.253   8.546 -1.9043  1.0837 -0.0040
   42CHL1  H27C 3108   1.633   5.226   8.369  0.6615 -3.4091 -0.6577
   43CHL1    C3 3109   1.475   2.174   6.935  0.0293 -0.0664 -0.1774
   43CHL1    H3 3110   1.517   2.276   6.950  1.9541 -0.4095 -2.9078
   43CHL1    O3 3111   1.489   2.132   6.802  0.1828  0.1689  0.2836
   43CHL1   H3' 3112   1.425   2.062   6.790 -1.1488  1.5896 -1.1458
   43CHL1    C4 3113   1.561   2.075   7.013 -0.0303  0.5704  0.0404
   43CHL1   H4A 3114   1.526   1.972   6.992  2.0604  0.3197 -2.4484
   43CHL1   H4B 3115   1.667   2.078   6.980 -0.4701  0.8439 -1.3535
   43CHL1    C5 3116   1.569   2.106   7.164  0.1573 -0.4950 -1.4110
   43CHL1    C6 3117   1.682   2.133   7.235 -0.3491  0.2502 -0.6682
   43CHL1    H6 3118   1.779   2.133   7.183 -0.4033  0.3828 -0.7673
   43CHL1    C7 3119   1.674   2.186   7.379 -0.6648 -0.0643  0.1295
   43CHL1   H7A 3120   1.759   2.149   7.440  0.2224  3.3850  1.0926
   43CHL1   H7B 3121   1.697   2.294   7.372  0.1267 -0.2985 -1.1334
   43CHL1    C8 3122   1.538   2.154   7.447 -0.7810 -0.5040 -0.2778
   43CHL1    H8 3123   1.533   2.044   7.458 -0.0433 -0.4742  0.3961
   43CHL1   C14 3124   1.525   2.228   7.582  0.1850  0.9987  0.1872
   43CHL1   H14 3125   1.534   2.334   7.548  3.2045  0.7575  0.1272
   43CHL1   C15 3126   1.637   2.227   7.685 -0.4138 -0.7460  0.1809
   43CHL1  H15A 3127   1.680   2.125   7.683  0.3311 -0.3957 -2.0361
   43CHL1  H15B 3128   1.716   2.302   7.666 -1.7999  0.5626 -0.4727
   43CHL1   C16 3129   1.571   2.267   7.822 -0.2083 -0.1000 -0.3910
   43CHL1  H16A 3130   1.584   2.183   7.892 -0.0445  0.2382 -0.0156
   43CHL1  H16B 3131   1.621   2.361   7.855 -0.5270  1.5517 -4.2318
   43CHL1   C17 3132   1.425   2.292   7.785 -0.3851  0.1774  0.2631
   43CHL1   H17 3133   1.419   2.396   7.745  0.7951 -0.0014 -0.4002
   43CHL1   C13 3134   1.394   2.207   7.653 -0.2321  0.0475 -0.3671
   43CHL1   C18 3135   1.383   2.060   7.693  0.3770 -0.3668 -0.2615
   43CHL1  H18A 3136   1.476   2.035   7.748  0.2094 -0.3329  0.0397
   43CHL1  H18B 3137   1.293   2.029   7.750  0.9307 -0.5014  0.5579
   43CHL1  H18C 3138   1.384   2.000   7.600  0.6961 -2.0065  0.7690
   43CHL1   C12 3139   1.277   2.259   7.571  0.4669  1.5003  0.7231
   43CHL1  H12A 3140   1.183   2.222   7.616 -0.3075  2.3672 -0.1679
   43CHL1  H12B 3141   1.284   2.370   7.568 -1.5024  1.6069 -2.1736
   43CHL1   C11 3142   1.280   2.194   7.427 -0.5191 -0.1942 -0.0202
   43CHL1  H11A 3143   1.241   2.090   7.421 -2.8838  0.6678  0.2502
   43CHL1  H11B 3144   1.204   2.250   7.368 -0.9124 -2.1729 -1.4702
   43CHL1    C9 3145   1.419   2.197   7.356 -0.2943 -0.0906 -0.3744
   43CHL1    H9 3146   1.439   2.304   7.334 -0.5720 -0.1631 -0.9995
   43CHL1   C10 3147   1.424   2.122   7.221  0.5787 -0.2011 -0.2025
   43CHL1   C19 3148   1.373   1.969   7.247  0.7376 -0.2423 -0.1189
   43CHL1  H19A 3149   1.369   1.928   7.350  0.9391  1.0777  0.4232
   43CHL1  H19B 3150   1.271   1.946   7.209  1.1185 -0.8345 -0.7909
   43CHL1  H19C 3151   1.442   1.901   7.192 -0.1847 -0.1209 -1.4571
   43CHL1    C1 3152   1.319   2.197   7.132  0.6146 -0.5344 -0.1746
   43CHL1   H1A 3153   1.215   2.177   7.167  0.3732 -1.0591 -1.1643
   43CHL1   H1B 3154   1.333   2.306   7.146 -4.6527  0.1737  0.7271
   43CHL1    C2 3155   1.330   2.163   6.975 -0.8211 -0.6412  0.9604
   43CHL1   H2A 3156   1.251   2.223   6.925 -0.5792 -0.6273  0.5895
   43CHL1   H2B 3157   1.304   2.056   6.970 -0.6173 -0.6439 -0.5094
   43CHL1   C20 3158   1.324   2.272   7.904  0.1182  0.5511  0.3718
   43CHL1   H20 3159   1.234   2.226   7.858  1.1193 -0.5878 -0.4720
   43CHL1   C21 3160   1.281   2.410   7.945  0.5760  0.3856 -0.1810
   43CHL1  H21A 3161   1.226   2.459   7.862 -0.0175  0.8296  0.4621
   43CHL1  H21B 3162   1.360   2.479   7.984 -0.4405  1.4034  0.1289
   43CHL1  H21C 3163   1.215   2.403   8.035  1.8247 -0.7577  0.6562
   43CHL1   C22 3164   1.361   2.173   8.021  0.6644 -0.2054 -0.3837
   43CHL1  H22A 3165   1.387   2.075   7.975  0.2635 -0.7872  0.6117
   43CHL1  H22B 3166   1.453   2.204   8.075 -0.4722 -0.9682  2.0838
   43CHL1   C23 3167   1.251   2.147   8.127  0.0904  0.0053  0.3715
   43CHL1  H23A 3168   1.242   2.243   8.181  0.9217  0.2032  0.1669
   43CHL1  H23B 3169   1.156   2.115   8.079 -0.6772 -1.5905  2.8606
   43CHL1   C24 3170   1.294   2.033   8.222  0.4646  0.0994 -0.0998
   43CHL1  H24A 3171   1.264   1.930   8.191  1.9818 -0.9537  1.7251
   43CHL1  H24B 3172   1.402   2.049   8.242  0.2835 -0.1903  1.1649
   43CHL1   C25 3173   1.238   2.049   8.362 -0.6680  0.0129  0.4496
   43CHL1   H25 3174   1.229   2.156   8.392  0.4244  0.1788  0.1919
   43CHL1   C26 3175   1.099   1.987   8.367 -0.4774  0.0287  0.5466
   43CHL1  H26A 3176   1.030   2.056   8.314 -1.3016 -1.0123  0.2512
   43CHL1  H26B 3177   1.077   1.892   8.315  2.0790 -0.6027  0.5643
   43CHL1  H26C 3178   1.053   1.972   8.467  0.3584  0.3469  0.9832
   43CHL1   C27 3179   1.323   1.975   8.468  0.1753  0.1012  0.2256
   43CHL1  H27A 3180   1.419   2.027   8.489 -0.2128  0.1334  1.9509
   43CHL1  H27B 3181   1.261   1.969   8.559  0.1142  0.5127  0.2138
   43CHL1  H27C 3182   1.349   1.872   8.437  0.5216  0.5151 -0.9268
   44CHL1    C3 3183   1.381   1.060   6.717  0.0283 -0.3404 -0.0264
   44CHL1    H3 3184   1.270   1.067   6.721  0.0409 -0.1390  0.0045
   44CHL1    O3 3185   1.421   1.073   6.583  0.0560  0.3046 -0.2652
   44CHL1   H3' 3186   1.445   1.165   6.570  0.9347  0.2261  0.7006
   44CHL1    C4 3187   1.444   1.179   6.797  0.2243 -0.1401  0.1159
   44CHL1   H4A 3188   1.555   1.179   6.792  0.2548  0.2314  0.7469
   44CHL1   H4B 3189   1.402   1.273   6.756 -0.1040 -0.4504 -0.2529
   44CHL1    C5 3190   1.409   1.162   6.943  0.1279  0.0397  0.6770
   44CHL1    C6 3191   1.328   1.250   7.009  0.1682 -0.2923 -0.0963
   44CHL1    H6 3192   1.297   1.341   6.956 -0.0979 -0.4307 -0.1805
   44CHL1    C7 3193   1.296   1.247   7.151 -0.7941  0.2888 -0.1879
   44CHL1   H7A 3194   1.311   1.347   7.195 -2.0310  1.8788 -3.2354
   44CHL1   H7B 3195   1.188   1.228   7.166 -0.9266 -0.1266 -1.5523
   44CHL1    C8 3196   1.381   1.143   7.231 -0.4241  0.3779  0.2169
   44CHL1    H8 3197   1.480   1.190   7.245  0.5563 -1.0501 -1.6401
   44CHL1   C14 3198   1.317   1.120   7.367 -0.9331  0.0012  0.4148
   44CHL1   H14 3199   1.217   1.080   7.338 -0.1916 -0.5435 -1.5094
   44CHL1   C15 3200   1.295   1.246   7.452  0.3689  0.4743 -0.0823
   44CHL1  H15A 3201   1.383   1.312   7.437  0.3910 -0.0551 -2.4810
   44CHL1  H15B 3202   1.194   1.289   7.432 -0.2724 -0.1028  1.8074
   44CHL1   C16 3203   1.286   1.189   7.597 -0.5038  0.2290 -0.0870
   44CHL1  H16A 3204   1.371   1.245   7.642 -0.7801 -0.2450  1.0294
   44CHL1  H16B 3205   1.202   1.233   7.654  1.1679  0.8416  1.9825
   44CHL1   C17 3206   1.312   1.035   7.593  0.1710 -0.4472 -0.3327
   44CHL1   H17 3207   1.216   0.983   7.571  0.7568 -1.8274  0.2670
   44CHL1   C13 3208   1.394   1.021   7.459  0.4229  0.3354  0.9607
   44CHL1   C18 3209   1.539   1.066   7.492  0.8474 -0.3286  0.4749
   44CHL1  H18A 3210   1.597   1.086   7.399  1.0728  0.5499  0.7951
   44CHL1  H18B 3211   1.542   1.157   7.555 -0.4931 -0.1254  0.2504
   44CHL1  H18C 3212   1.597   0.992   7.551  0.0594  1.4289  3.5445
   44CHL1   C12 3213   1.396   0.884   7.380  0.3269  0.0319  0.0463
   44CHL1  H12A 3214   1.450   0.806   7.438  0.3927 -0.6351 -0.8960
   44CHL1  H12B 3215   1.295   0.837   7.374 -0.8284  2.4456  0.0645
   44CHL1   C11 3216   1.447   0.897   7.233 -0.3887 -0.5766 -0.1051
   44CHL1  H11A 3217   1.554   0.918   7.253 -0.3644 -1.6726  0.9311
   44CHL1  H11B 3218   1.424   0.803   7.178 -0.5230 -2.4672  3.0806
   44CHL1    C9 3219   1.385   1.008   7.152  0.3156 -0.4375 -0.1503
   44CHL1    H9 3220   1.278   0.981   7.136  0.3903 -0.7131 -0.1939
   44CHL1   C10 3221   1.457   1.026   7.011  0.3537 -0.2849  0.3681
   44CHL1   C19 3222   1.610   1.047   7.028  0.1325 -0.5182 -0.7101
   44CHL1  H19A 3223   1.666   1.079   6.938 -1.7282  0.5567 -1.5089
   44CHL1  H19B 3224   1.623   1.119   7.111 -1.1445  0.6466 -1.5052
   44CHL1  H19C 3225   1.662   0.956   7.067 -1.3192 -0.8447  0.5073
   44CHL1    C1 3226   1.420   0.899   6.922  0.0992  0.5189  0.6400
   44CHL1   H1A 3227   1.493   0.819   6.946  0.3390  0.6465  0.3463
   44CHL1   H1B 3228   1.315   0.879   6.951  0.2122 -1.7036 -0.3778
   44CHL1    C2 3229   1.436   0.922   6.769  0.7719 -0.6694  0.7481
   44CHL1   H2A 3230   1.383   0.839   6.718  0.9011  1.0468 -2.2966
   44CHL1   H2B 3231   1.544   0.920   6.743  0.6141  2.5575 -0.4628
   44CHL1   C20 3232   1.368   0.986   7.724  0.4083 -0.5056  0.1727
   44CHL1   H20 3233   1.459   1.046   7.748 -0.1101  0.9660 -1.4546
   44CHL1   C21 3234   1.400   0.833   7.712  0.3035 -0.5007  0.0201
   44CHL1  H21A 3235   1.487   0.816   7.645 -0.8594  0.6704 -1.8458
   44CHL1  H21B 3236   1.319   0.766   7.676 -0.9995  0.7645  0.5436
   44CHL1  H21C 3237   1.422   0.800   7.815  0.4714  0.1105  0.1840
   44CHL1   C22 3238   1.279   1.021   7.844  0.1341 -0.4003  0.2581
   44CHL1  H22A 3239   1.269   1.131   7.849  4.0296  0.1049 -1.0948
   44CHL1  H22B 3240   1.183   0.970   7.821 -0.5657  0.3704  1.4189
   44CHL1   C23 3241   1.340   0.978   7.983  0.2982  0.1776 -0.1797
   44CHL1  H23A 3242   1.325   0.869   8.000  2.8172  0.2653  3.0138
   44CHL1  H23B 3243   1.451   0.990   7.983  0.1500  1.6773 -0.6307
   44CHL1   C24 3244   1.285   1.061   8.106  0.2194 -0.0237 -0.1159
   44CHL1  H24A 3245   1.180   1.093   8.093 -0.2717 -2.7183 -3.2299
   44CHL1  H24B 3246   1.278   0.999   8.198  0.2762 -0.0119 -0.1028
   44CHL1   C25 3247   1.374   1.179   8.148  0.5004 -0.6228  0.3426
   44CHL1   H25 3248   1.425   1.218   8.058 -0.6854 -1.2708 -0.6328
   44CHL1   C26 3249   1.298   1.307   8.198 -0.3677  0.6124  1.3806
   44CHL1  H26A 3250   1.222   1.272   8.272  0.5785 -4.6194  0.1024
   44CHL1  H26B 3251   1.369   1.384   8.236 -0.2944  1.3966 -0.3096
   44CHL1  H26C 3252   1.241   1.355   8.116  0.4553  0.0491  0.4779
   44CHL1   C27 3253   1.475   1.140   8.250 -0.7179 -0.3611 -0.0276
   44CHL1  H27A 3254   1.547   1.224   8.262 -0.8485 -0.4773  1.7381
   44CHL1  H27B 3255   1.428   1.129   8.350 -2.9736 -0.1091 -1.0385
   44CHL1  H27C 3256   1.520   1.043   8.221 -1.1779 -0.8894  1.0069
   45CHL1    C3 3257   2.520   6.010   6.785  0.0537 -1.2783  0.0195
   45CHL1    H3 3258   2.434   5.994   6.852  0.5618  0.1263  1.0360
   45CHL1    O3 3259   2.490   6.016   6.652 -0.6765 -0.3812 -0.8463
   45CHL1   H3' 3260   2.569   6.018   6.598  0.2488  1.7349  0.5357
   45CHL1    C4 3261   2.587   6.146   6.815  0.6132  0.0581  0.3630
   45CHL1   H4A 3262   2.667   6.157   6.739  1.5741 -2.4125  0.9719
   45CHL1   H4B 3263   2.513   6.226   6.792 -1.5393 -1.3746  2.1156
   45CHL1    C5 3264   2.642   6.135   6.952  0.0474  0.1752  0.4776
   45CHL1    C6 3265   2.603   6.228   7.038  0.1477  0.4361  0.7928
   45CHL1    H6 3266   2.531   6.305   7.008  0.0698  0.1407  0.2264
   45CHL1    C7 3267   2.655   6.242   7.180 -0.3261  0.4018 -0.4061
   45CHL1   H7A 3268   2.676   6.343   7.220  0.2695 -0.3341  1.2197
   45CHL1   H7B 3269   2.576   6.197   7.243 -1.0125  1.4721 -0.5034
   45CHL1    C8 3270   2.778   6.159   7.206 -0.3830  0.1193 -0.1106
   45CHL1    H8 3271   2.865   6.211   7.161 -0.4123 -0.7895 -1.2394
   45CHL1   C14 3272   2.806   6.146   7.356 -0.2821  0.1485 -0.1278
   45CHL1   H14 3273   2.716   6.094   7.396  0.0337 -0.5200 -0.2955
   45CHL1   C15 3274   2.814   6.278   7.439  0.5473  0.0043 -0.1080
   45CHL1  H15A 3275   2.876   6.356   7.390  0.7908 -2.3654 -3.7747
   45CHL1  H15B 3276   2.718   6.330   7.456  0.2175 -1.0196  1.2437
   45CHL1   C16 3277   2.885   6.225   7.569 -0.1695  0.0969 -0.3915
   45CHL1  H16A 3278   2.981   6.277   7.591 -0.7217  1.0076 -0.1316
   45CHL1  H16B 3279   2.822   6.224   7.660  3.9789 -0.2621  2.6462
   45CHL1   C17 3280   2.923   6.076   7.550 -0.2251 -0.4390 -0.8132
   45CHL1   H17 3281   2.835   6.020   7.587 -0.0134 -0.0814  0.2381
   45CHL1   C13 3282   2.926   6.063   7.396  0.2249  0.6974 -0.0002
   45CHL1   C18 3283   3.055   6.123   7.344  0.1885 -0.2245  0.9076
   45CHL1  H18A 3284   3.069   6.121   7.234  2.2839 -0.6616  1.1655
   45CHL1  H18B 3285   3.069   6.222   7.393  2.2730 -0.4960  0.9168
   45CHL1  H18C 3286   3.132   6.054   7.385 -0.2187 -1.8920 -1.0535
   45CHL1   C12 3287   2.901   5.918   7.335 -0.5797  0.7457  0.0229
   45CHL1  H12A 3288   2.979   5.850   7.375 -3.2302 -1.3636  1.8130
   45CHL1  H12B 3289   2.806   5.883   7.381  0.5296 -0.9207  1.0738
   45CHL1   C11 3290   2.886   5.920   7.188  0.4109 -0.4703 -0.1891
   45CHL1  H11A 3291   2.986   5.946   7.147  0.5232  2.6664  1.9413
   45CHL1  H11B 3292   2.866   5.817   7.150 -0.6744 -0.7718  1.1675
   45CHL1    C9 3293   2.771   6.023   7.141  0.1159  0.2782 -0.3345
   45CHL1    H9 3294   2.686   5.971   7.192  0.3930 -0.0508 -0.2120
   45CHL1   C10 3295   2.735   6.025   6.991 -0.3588 -0.1211 -0.1107
   45CHL1   C19 3296   2.867   6.049   6.914  0.3092  0.0184 -0.1035
   45CHL1  H19A 3297   2.898   6.151   6.946 -0.3261 -0.2602  1.4030
   45CHL1  H19B 3298   2.947   5.976   6.939  0.9609  0.0408 -2.0479
   45CHL1  H19C 3299   2.853   6.061   6.804 -1.4819  1.7896  0.2751
   45CHL1    C1 3300   2.679   5.884   6.951  0.6282 -0.4529 -0.1965
   45CHL1   H1A 3301   2.764   5.813   6.946  0.4277 -0.6809 -0.3962
   45CHL1   H1B 3302   2.601   5.856   7.025 -0.7806 -1.6690 -2.0783
   45CHL1    C2 3303   2.606   5.888   6.809 -0.2298 -0.5702  0.4080
   45CHL1   H2A 3304   2.549   5.797   6.782 -4.4509  1.7130  1.2101
   45CHL1   H2B 3305   2.688   5.906   6.736  0.3409  1.1582  1.4333
   45CHL1   C20 3306   3.040   6.041   7.634 -0.2470 -0.3755  0.0626
   45CHL1   H20 3307   3.129   6.100   7.603 -0.1086 -0.8597 -0.4668
   45CHL1   C21 3308   3.088   5.894   7.608  0.7856 -0.3597  0.2745
   45CHL1  H21A 3309   3.168   5.881   7.683  0.9784  0.4367  0.2142
   45CHL1  H21B 3310   3.130   5.881   7.506 -0.1650 -0.1007 -0.1559
   45CHL1  H21C 3311   3.001   5.825   7.616  2.7346 -3.0465 -1.2083
   45CHL1   C22 3312   3.031   6.068   7.788  0.1141 -0.3000 -0.0609
   45CHL1  H22A 3313   3.122   6.028   7.838 -0.0271 -0.6885 -0.1152
   45CHL1  H22B 3314   3.032   6.179   7.801  2.2032 -0.3597  0.6016
   45CHL1   C23 3315   2.919   5.989   7.865 -0.3050 -0.0298  0.2323
   45CHL1  H23A 3316   2.826   6.005   7.806 -0.5922 -0.8299  0.4590
   45CHL1  H23B 3317   2.924   5.878   7.870 -0.2161  0.0531  2.4280
   45CHL1   C24 3318   2.883   6.046   8.006  0.1814 -0.4732  0.7429
   45CHL1  H24A 3319   2.959   6.001   8.074  0.9800  0.7758  0.6792
   45CHL1  H24B 3320   2.897   6.156   8.000 -0.3367 -0.4535 -0.2231
   45CHL1   C25 3321   2.741   6.014   8.040 -0.5719 -0.2701 -0.3341
   45CHL1   H25 3322   2.734   5.904   8.022  0.7179 -0.2529 -1.0381
   45CHL1   C26 3323   2.715   6.048   8.190 -0.2645  0.1929 -0.0571
   45CHL1  H26A 3324   2.783   5.994   8.259  2.8412  1.1901 -2.2304
   45CHL1  H26B 3325   2.738   6.157   8.195  0.9511 -0.1792  3.8189
   45CHL1  H26C 3326   2.611   6.020   8.219 -0.2567 -0.6021 -0.7645
   45CHL1   C27 3327   2.635   6.092   7.957  0.4609 -0.4800  0.7549
   45CHL1  H27A 3328   2.535   6.071   8.002 -1.1488 -1.7683 -3.1922
   45CHL1  H27B 3329   2.667   6.198   7.965 -0.3348 -0.0015 -1.8841
   45CHL1  H27C 3330   2.637   6.054   7.853  1.7763  1.4531  0.0656
   46CHL1    C3 3331   2.198   0.456   6.933  0.4308 -0.3727 -0.4009
   46CHL1    H3 3332   2.152   0.557   6.935 -0.0970 -0.6148 -0.2401
   46CHL1    O3 3333   2.210   0.431   6.788  0.4555  0.7076  0.0705
   46CHL1   H3' 3334   2.269   0.355   6.781  0.8210  0.8999  1.0161
   46CHL1    C4 3335   2.326   0.440   7.011  0.2052  0.0934  0.2002
   46CHL1   H4A 3336   2.372   0.340   6.999  1.3974  0.6053  0.5080
   46CHL1   H4B 3337   2.394   0.501   6.948  1.2578  0.7685  1.9439
   46CHL1    C5 3338   2.326   0.461   7.160 -0.3577 -0.0945 -0.1153
   46CHL1    C6 3339   2.408   0.542   7.224  0.2762 -0.0730 -0.2209
   46CHL1    H6 3340   2.486   0.601   7.172 -0.0351  1.5003  1.0597
   46CHL1    C7 3341   2.396   0.568   7.371 -0.5090 -0.6575  0.0348
   46CHL1   H7A 3342   2.496   0.562   7.419  0.0434  1.7512 -0.6983
   46CHL1   H7B 3343   2.359   0.672   7.389  1.1794 -0.0997  0.3899
   46CHL1    C8 3344   2.301   0.469   7.449  0.4941 -0.6363  0.6215
   46CHL1    H8 3345   2.356   0.372   7.459 -1.1877 -1.5548  1.1636
   46CHL1   C14 3346   2.273   0.516   7.594  0.2236  0.1695 -0.3966
   46CHL1   H14 3347   2.235   0.620   7.593 -2.0439 -0.6405 -1.2081
   46CHL1   C15 3348   2.394   0.549   7.686  0.6702  0.1830  0.1620
   46CHL1  H15A 3349   2.474   0.472   7.679  0.3885 -0.0339 -0.6675
   46CHL1  H15B 3350   2.439   0.650   7.682  0.4811  0.2671  0.1935
   46CHL1   C16 3351   2.327   0.547   7.829  0.7524  0.7012  0.7100
   46CHL1  H16A 3352   2.387   0.476   7.890  1.5669  0.9411  0.1930
   46CHL1  H16B 3353   2.326   0.647   7.877 -0.5764 -0.2739  2.7780
   46CHL1   C17 3354   2.178   0.501   7.807 -0.1252 -0.2332  0.4720
   46CHL1   H17 3355   2.126   0.597   7.787  0.4889  0.4513  2.0527
   46CHL1   C13 3356   2.176   0.430   7.674 -0.2759 -0.1673 -0.4924
   46CHL1   C18 3357   2.225   0.281   7.692 -0.6689 -0.4041  0.2464
   46CHL1  H18A 3358   2.240   0.232   7.594 -0.4798  1.6463 -0.7799
   46CHL1  H18B 3359   2.314   0.273   7.758  1.3923  1.2329 -2.2531
   46CHL1  H18C 3360   2.142   0.218   7.731 -2.2181  1.6853  0.4313
   46CHL1   C12 3361   2.042   0.451   7.596 -0.1027 -0.3570 -0.4101
   46CHL1  H12A 3362   1.961   0.386   7.636 -1.2059  0.0984 -1.8209
   46CHL1  H12B 3363   2.015   0.559   7.586 -1.0476 -0.4275  1.2044
   46CHL1   C11 3364   2.050   0.393   7.453 -0.2860  0.0556  0.0537
   46CHL1  H11A 3365   2.082   0.289   7.474  1.4853  1.2787  3.8482
   46CHL1  H11B 3366   1.952   0.404   7.401 -0.3359 -0.6545  0.0027
   46CHL1    C9 3367   2.169   0.459   7.371  0.3127  0.7948 -0.5990
   46CHL1    H9 3368   2.129   0.561   7.354  1.4010  0.8161 -3.1495
   46CHL1   C10 3369   2.203   0.405   7.230 -0.1954 -0.0160 -0.5320
   46CHL1   C19 3370   2.238   0.253   7.253  0.4488 -0.6876  0.5105
   46CHL1  H19A 3371   2.164   0.191   7.308  0.0481 -2.3983 -1.8637
   46CHL1  H19B 3372   2.256   0.212   7.151  0.0247  0.0809  0.1194
   46CHL1  H19C 3373   2.330   0.238   7.313  0.4542  0.6256  0.8419
   46CHL1    C1 3374   2.072   0.412   7.138  0.3180 -0.2419 -0.4359
   46CHL1   H1A 3375   2.001   0.335   7.176 -1.4196  2.1034  1.1437
   46CHL1   H1B 3376   2.028   0.514   7.144  2.1857  0.6378 -1.3660
   46CHL1    C2 3377   2.090   0.364   6.996  0.0758  0.3116  0.2311
   46CHL1   H2A 3378   2.003   0.394   6.934 -0.2123  0.7367  0.8337
   46CHL1   H2B 3379   2.106   0.254   7.000  0.1568  0.3647  1.5562
   46CHL1   C20 3380   2.126   0.431   7.937 -0.3052  0.8070  0.2073
   46CHL1   H20 3381   2.186   0.339   7.950 -0.6913  0.7405  1.5444
   46CHL1   C21 3382   1.978   0.392   7.919 -0.5009 -0.1819  0.2732
   46CHL1  H21A 3383   1.931   0.489   7.892  1.1908  0.4252 -0.5746
   46CHL1  H21B 3384   1.923   0.342   8.002 -4.2151 -0.5525 -2.2975
   46CHL1  H21C 3385   1.968   0.318   7.838 -1.2677  1.1882 -0.9075
   46CHL1   C22 3386   2.153   0.519   8.072  0.7500 -0.8253  0.4906
   46CHL1  H22A 3387   2.262   0.531   8.084  0.8570 -0.6367 -0.5661
   46CHL1  H22B 3388   2.102   0.617   8.060  3.1119  0.4194  0.5467
   46CHL1   C23 3389   2.092   0.460   8.195 -0.4366 -0.2905  0.7119
   46CHL1  H23A 3390   1.983   0.475   8.184 -0.5063 -2.2192 -1.4695
   46CHL1  H23B 3391   2.117   0.353   8.211  0.0074  0.1062  2.8492
   46CHL1   C24 3392   2.138   0.530   8.315 -0.0079 -0.1915 -0.2706
   46CHL1  H24A 3393   2.248   0.526   8.330 -0.2051 -0.7939  1.1799
   46CHL1  H24B 3394   2.104   0.635   8.310 -1.1643 -0.5320  0.0820
   46CHL1   C25 3395   2.069   0.482   8.457  0.7540  0.2015  0.6912
   46CHL1   H25 3396   2.125   0.528   8.542  0.5487 -0.0795  0.9796
   46CHL1   C26 3397   1.928   0.536   8.469 -0.0641  0.0266 -0.0780
   46CHL1  H26A 3398   1.871   0.495   8.383 -2.0586  1.6938  0.4007
   46CHL1  H26B 3399   1.871   0.492   8.554  0.3920  1.1002  0.8019
   46CHL1  H26C 3400   1.921   0.647   8.475 -0.1181  0.0998 -1.3661
   46CHL1   C27 3401   2.098   0.333   8.479  0.2786 -0.0049 -0.8026
   46CHL1  H27A 3402   2.037   0.283   8.401  1.7779 -0.6876 -1.5536
   46CHL1  H27B 3403   2.202   0.298   8.467  0.5987 -0.4370  2.6492
   46CHL1  H27C 3404   2.065   0.307   8.582  3.1606 -0.5820  0.0095
   47CHL1    C3 3405   1.417   0.455   6.820 -0.0713 -0.3354  0.2534
   47CHL1    H3 3406   1.516   0.507   6.823  0.6845 -1.8089  1.6315
   47CHL1    O3 3407   1.379   0.445   6.683 -0.3414 -0.2054  0.1227
   47CHL1   H3' 3408   1.422   0.363   6.659  0.9520  0.1991  0.9919
   47CHL1    C4 3409   1.443   0.309   6.882 -0.1627 -0.1153 -0.0386
   47CHL1   H4A 3410   1.352   0.252   6.852 -0.5332  0.2423  0.3914
   47CHL1   H4B 3411   1.527   0.272   6.821  1.0332 -0.6093  1.8586
   47CHL1    C5 3412   1.481   0.311   7.033 -0.2399  1.1855  0.8630
   47CHL1    C6 3413   1.595   0.248   7.068 -0.2016  0.1986  0.3572
   47CHL1    H6 3414   1.651   0.209   6.982 -1.0354 -0.1941 -0.0043
   47CHL1    C7 3415   1.646   0.260   7.209 -0.0257 -0.1353  0.0291
   47CHL1   H7A 3416   1.695   0.167   7.246  0.0248  0.5303  1.6606
   47CHL1   H7B 3417   1.717   0.344   7.223 -0.6517  0.2904  0.6498
   47CHL1    C8 3418   1.528   0.298   7.305  0.3599 -0.8761 -0.1173
   47CHL1    H8 3419   1.468   0.205   7.315 -0.8654  0.1642  2.3453
   47CHL1   C14 3420   1.580   0.331   7.447 -0.4183 -0.3740 -0.4780
   47CHL1   H14 3421   1.649   0.418   7.454 -1.2058  0.0773  2.5202
   47CHL1   C15 3422   1.674   0.235   7.514  0.0578 -0.2230  0.1277
   47CHL1  H15A 3423   1.635   0.132   7.507 -1.5415  0.3694  0.0863
   47CHL1  H15B 3424   1.777   0.234   7.473  0.0737 -1.6939  0.1707
   47CHL1   C16 3425   1.674   0.279   7.662  0.0781  0.2693  0.3433
   47CHL1  H16A 3426   1.654   0.184   7.715 -1.1322 -0.4456 -1.3287
   47CHL1  H16B 3427   1.771   0.325   7.690  0.1050  0.3751  0.0790
   47CHL1   C17 3428   1.548   0.369   7.679 -0.3936 -0.1878  0.5581
   47CHL1   H17 3429   1.581   0.475   7.672  0.6685 -0.5791 -0.5117
   47CHL1   C13 3430   1.471   0.352   7.549  0.0509 -0.0930 -1.0325
   47CHL1   C18 3431   1.376   0.232   7.562  0.2678 -0.2603 -0.3835
   47CHL1  H18A 3432   1.425   0.159   7.629  0.5473 -0.1391 -0.4536
   47CHL1  H18B 3433   1.288   0.255   7.626  0.5878  0.9906 -0.3863
   47CHL1  H18C 3434   1.348   0.171   7.473  0.3610  0.0030 -0.5927
   47CHL1   C12 3435   1.397   0.480   7.496  0.0511  0.5573 -0.7948
   47CHL1  H12A 3436   1.311   0.493   7.565  0.1297  0.1206 -0.6104
   47CHL1  H12B 3437   1.463   0.569   7.508  2.5899 -1.5416  1.6119
   47CHL1   C11 3438   1.332   0.456   7.356 -0.0684 -0.0266  0.2070
   47CHL1  H11A 3439   1.258   0.375   7.367 -0.1773 -0.1249 -1.1027
   47CHL1  H11B 3440   1.284   0.550   7.322 -1.9756 -1.2458 -0.5317
   47CHL1    C9 3441   1.439   0.416   7.254 -0.2129  0.1613 -0.5765
   47CHL1    H9 3442   1.511   0.500   7.246 -0.1375  0.0261 -1.2836
   47CHL1   C10 3443   1.383   0.389   7.112  0.0784 -0.2176 -0.1238
   47CHL1   C19 3444   1.264   0.291   7.129  0.3503 -0.5909  0.0192
   47CHL1  H19A 3445   1.275   0.198   7.189 -0.3187  0.4919  1.8510
   47CHL1  H19B 3446   1.175   0.343   7.169  0.2100 -2.3612  2.0847
   47CHL1  H19C 3447   1.229   0.255   7.029 -0.4377  0.6784 -0.1620
   47CHL1    C1 3448   1.339   0.528   7.048  0.4721 -0.8399  0.1562
   47CHL1   H1A 3449   1.257   0.573   7.108  1.8032  0.7968  0.8065
   47CHL1   H1B 3450   1.428   0.594   7.050  0.1619 -0.3180 -1.8612
   47CHL1    C2 3451   1.310   0.534   6.896 -0.1604  0.4232  0.0140
   47CHL1   H2A 3452   1.297   0.636   6.855 -1.6773  1.2828  2.5802
   47CHL1   H2B 3453   1.211   0.486   6.883  1.0625 -1.9733 -0.9123
   47CHL1   C20 3454   1.481   0.341   7.820 -0.1807  0.0882 -0.1555
   47CHL1   H20 3455   1.446   0.237   7.834 -0.8776  0.0437 -2.1074
   47CHL1   C21 3456   1.365   0.445   7.840 -0.4893  0.3709 -0.4093
   47CHL1  H21A 3457   1.283   0.432   7.767 -0.8678 -1.6738  0.3580
   47CHL1  H21B 3458   1.399   0.549   7.822  1.5950 -0.3450 -0.8037
   47CHL1  H21C 3459   1.319   0.441   7.940 -0.7724  0.8542 -0.5186
   47CHL1   C22 3460   1.584   0.371   7.936  0.1742  0.7881 -0.3219
   47CHL1  H22A 3461   1.671   0.305   7.917  0.7172  1.9083 -1.8399
   47CHL1  H22B 3462   1.610   0.479   7.928  0.9215  0.6773  0.6663
   47CHL1   C23 3463   1.541   0.328   8.080 -0.1826  0.5810  0.2897
   47CHL1  H23A 3464   1.454   0.388   8.115  0.3942  1.5395  0.0923
   47CHL1  H23B 3465   1.510   0.222   8.090 -2.8756  1.1830 -1.2545
   47CHL1   C24 3466   1.647   0.345   8.191  0.8233  0.3406 -0.6095
   47CHL1  H24A 3467   1.740   0.289   8.169 -0.6475 -2.4158 -0.0643
   47CHL1  H24B 3468   1.681   0.450   8.205 -0.0167  0.5948 -0.4433
   47CHL1   C25 3469   1.597   0.286   8.328 -0.3682  0.1778 -0.3023
   47CHL1   H25 3470   1.680   0.309   8.400  0.3140  1.0918 -1.3620
   47CHL1   C26 3471   1.479   0.365   8.384  1.0306 -0.4282 -0.6576
   47CHL1  H26A 3472   1.500   0.465   8.429  1.0551 -0.7461  0.0587
   47CHL1  H26B 3473   1.396   0.371   8.311 -0.6329  1.9466  1.3188
   47CHL1  H26C 3474   1.437   0.309   8.470  0.0811  0.6626 -0.3995
   47CHL1   C27 3475   1.572   0.136   8.332 -0.5556  0.7689 -0.5875
   47CHL1  H27A 3476   1.499   0.100   8.257 -0.7609  0.3222 -0.1787
   47CHL1  H27B 3477   1.670   0.087   8.317 -0.0847  1.3636  0.4499
   47CHL1  H27C 3478   1.548   0.107   8.437  1.3079 -0.6973 -0.5364
   48CHL1    C3 3479   5.032   2.747   6.272  0.4175 -0.4592 -0.5095
   48CHL1    H3 3480   5.050   2.637   6.275  1.1341 -0.3309 -0.0012
   48CHL1    O3 3481   5.039   2.774   6.130  0.0832 -0.0953 -0.4012
   48CHL1   H3' 3482   4.972   2.842   6.123  0.1405  0.3571  2.7714
   48CHL1    C4 3483   4.895   2.783   6.330  0.4466  0.6894  0.9589
   48CHL1   H4A 3484   4.870   2.889   6.308  1.1190  0.3191 -1.7887
   48CHL1   H4B 3485   4.813   2.725   6.284  2.6520 -0.7833 -1.2134
   48CHL1    C5 3486   4.894   2.763   6.481 -0.6275  0.4885 -0.5807
   48CHL1    C6 3487   4.810   2.670   6.537  0.5935 -0.2540 -0.3837
   48CHL1    H6 3488   4.748   2.604   6.475 -0.9419  0.4896  0.3425
   48CHL1    C7 3489   4.789   2.660   6.689 -0.5614 -1.1877 -0.5339
   48CHL1   H7A 3490   4.680   2.667   6.711 -1.0345 -1.4006 -2.7304
   48CHL1   H7B 3491   4.829   2.562   6.724 -0.9292 -0.7025  1.3234
   48CHL1    C8 3492   4.857   2.782   6.763  0.5920  0.2897 -0.2208
   48CHL1    H8 3493   4.787   2.867   6.749 -0.3242 -0.7537 -2.0453
   48CHL1   C14 3494   4.866   2.755   6.918  0.1393  0.6780  0.2003
   48CHL1   H14 3495   4.925   2.662   6.931  0.1355  0.6481  0.0078
   48CHL1   C15 3496   4.735   2.734   6.996  0.5143  0.1630  0.0776
   48CHL1  H15A 3497   4.663   2.811   6.964 -0.2856 -0.7525 -0.3502
   48CHL1  H15B 3498   4.706   2.627   6.984  2.8855 -0.4681 -0.2726
   48CHL1   C16 3499   4.764   2.749   7.146 -0.1079  0.2807  0.1728
   48CHL1  H16A 3500   4.693   2.824   7.188  0.0534  1.7114 -2.0357
   48CHL1  H16B 3501   4.769   2.649   7.195  2.3566 -0.6274 -1.8131
   48CHL1   C17 3502   4.914   2.811   7.134  0.0538  0.0842  0.4994
   48CHL1   H17 3503   4.975   2.718   7.137 -2.1768 -1.5110 -1.6709
   48CHL1   C13 3504   4.936   2.873   6.989 -0.7148 -0.0339 -0.4034
   48CHL1   C18 3505   4.857   3.003   6.984 -0.1893 -0.1419 -0.2089
   48CHL1  H18A 3506   4.915   3.084   7.033  1.4303 -0.0432 -2.2163
   48CHL1  H18B 3507   4.827   3.049   6.888 -0.2515  0.6018  0.1650
   48CHL1  H18C 3508   4.764   2.987   7.042  0.4330  0.2893  0.9359
   48CHL1   C12 3509   5.080   2.891   6.945 -0.3307  0.3241  0.2557
   48CHL1  H12A 3510   5.118   2.974   7.008  0.9393  0.8411 -1.1519
   48CHL1  H12B 3511   5.140   2.800   6.966  0.4839  0.6117 -0.7727
   48CHL1   C11 3512   5.087   2.908   6.797  0.2575 -0.0295 -0.4867
   48CHL1  H11A 3513   5.042   3.009   6.790  0.5246  0.0645 -0.8476
   48CHL1  H11B 3514   5.194   2.912   6.769  0.4759 -1.2839  0.1275
   48CHL1    C9 3515   4.998   2.807   6.704  0.8458  0.0744 -0.7731
   48CHL1    H9 3516   5.042   2.705   6.712  0.1336 -0.2507 -1.0476
   48CHL1   C10 3517   4.995   2.847   6.557 -0.5766 -0.3810 -0.3797
   48CHL1   C19 3518   4.959   2.992   6.548  0.3788  0.1915  0.1422
   48CHL1  H19A 3519   5.050   3.051   6.569 -0.0574  0.4810  1.2508
   48CHL1  H19B 3520   4.944   3.021   6.441 -0.5536 -0.1872  0.1640
   48CHL1  H19C 3521   4.875   3.029   6.610 -0.6997 -0.7138 -0.7514
   48CHL1    C1 3522   5.141   2.826   6.496  0.5734 -0.5182 -1.1523
   48CHL1   H1A 3523   5.206   2.907   6.536 -1.5233  0.3610  0.5543
   48CHL1   H1B 3524   5.185   2.726   6.517  0.7062 -0.9905 -3.5707
   48CHL1    C2 3525   5.140   2.832   6.346 -0.7311  0.1613 -0.3618
   48CHL1   H2A 3526   5.239   2.804   6.303 -1.0049  0.0880 -0.9537
   48CHL1   H2B 3527   5.133   2.938   6.313  1.3864  1.0795  2.0217
   48CHL1   C20 3528   4.968   2.895   7.247  0.2420 -0.2948 -0.3986
   48CHL1   H20 3529   5.048   2.962   7.209  0.5751 -1.2111 -1.3209
   48CHL1   C21 3530   5.030   2.807   7.357 -0.6857  0.6096 -0.3245
   48CHL1  H21A 3531   5.115   2.746   7.319 -0.2742  0.7127  0.4295
   48CHL1  H21B 3532   4.961   2.733   7.404  0.9146 -1.3994 -1.0689
   48CHL1  H21C 3533   5.061   2.873   7.440 -1.7584 -2.8699  3.0085
   48CHL1   C22 3534   4.866   3.001   7.307  0.6523 -1.1653 -0.0410
   48CHL1  H22A 3535   4.791   3.032   7.231 -0.5937 -1.9641  0.8298
   48CHL1  H22B 3536   4.815   2.952   7.393 -0.8814  1.2115  0.4437
   48CHL1   C23 3537   4.923   3.131   7.355  0.4929  0.4876 -0.3981
   48CHL1  H23A 3538   4.938   3.111   7.464 -0.0009 -0.3124 -0.4699
   48CHL1  H23B 3539   5.031   3.134   7.328  0.8462 -0.1686  0.8780
   48CHL1   C24 3540   4.847   3.263   7.343 -0.2625 -0.1361 -0.7899
   48CHL1  H24A 3541   4.840   3.291   7.235 -2.3321 -0.7830 -0.8395
   48CHL1  H24B 3542   4.739   3.253   7.366  0.4440 -0.5340  2.4732
   48CHL1   C25 3543   4.901   3.385   7.417 -0.7968 -0.8287  0.5644
   48CHL1   H25 3544   5.008   3.400   7.393 -0.8057  0.5741  1.3488
   48CHL1   C26 3545   4.821   3.511   7.360  0.9114 -0.2994  0.8176
   48CHL1  H26A 3546   4.847   3.600   7.421  0.9332  0.5296 -0.3906
   48CHL1  H26B 3547   4.832   3.520   7.250 -1.1998  0.0544  0.6153
   48CHL1  H26C 3548   4.714   3.480   7.362  0.8232 -0.3528 -2.0081
   48CHL1   C27 3549   4.885   3.373   7.571 -0.1836  0.0765 -0.3767
   48CHL1  H27A 3550   4.918   3.463   7.627  1.5945 -0.2146 -0.9075
   48CHL1  H27B 3551   4.777   3.354   7.591 -0.4357 -0.0961 -1.8406
   48CHL1  H27C 3552   4.941   3.292   7.622 -1.6086 -0.1231  0.9090
   49CHL1    C3 3553   3.830   4.261   6.610  0.0132  0.1800  0.3955
   49CHL1    H3 3554   3.743   4.320   6.647  0.7363  0.6764  1.3111
   49CHL1    O3 3555   3.816   4.246   6.473 -0.0540  0.3578 -0.6683
   49CHL1   H3' 3556   3.890   4.188   6.452  1.4516  0.9971  2.5303
   49CHL1    C4 3557   3.964   4.331   6.641  0.4895 -0.3668  0.0788
   49CHL1   H4A 3558   4.040   4.279   6.580 -0.9290 -2.3909 -0.0457
   49CHL1   H4B 3559   3.948   4.434   6.605 -0.2500 -0.4732  0.0738
   49CHL1    C5 3560   4.010   4.322   6.788  0.1658  0.0910 -0.9128
   49CHL1    C6 3561   4.043   4.429   6.863  0.1655 -0.3280 -0.1588
   49CHL1    H6 3562   4.058   4.527   6.816 -0.2452 -0.8119 -1.3106
   49CHL1    C7 3563   4.086   4.415   7.007  0.5926 -0.0900  0.3420
   49CHL1   H7A 3564   4.180   4.472   7.015 -1.1919  3.5776 -2.8625
   49CHL1   H7B 3565   4.008   4.468   7.066  0.6446  0.1568  0.1871
   49CHL1    C8 3566   4.130   4.272   7.059 -0.1927  0.4621 -0.3435
   49CHL1    H8 3567   4.228   4.238   7.021  0.2353 -1.2682  2.2225
   49CHL1   C14 3568   4.118   4.268   7.211  0.5256  0.0373 -0.0577
   49CHL1   H14 3569   4.010   4.294   7.226  0.4154 -1.2489  1.5306
   49CHL1   C15 3570   4.193   4.377   7.292  0.6453  0.9150  0.2667
   49CHL1  H15A 3571   4.292   4.369   7.242  0.6757 -0.1019  0.4816
   49CHL1  H15B 3572   4.166   4.483   7.273  0.5097  1.0916  1.4476
   49CHL1   C16 3573   4.185   4.314   7.431 -0.1915  0.7327 -0.3387
   49CHL1  H16A 3574   4.289   4.314   7.468  0.5640 -2.1512 -2.2635
   49CHL1  H16B 3575   4.115   4.361   7.504  0.2718  1.8184 -0.5951
   49CHL1   C17 3576   4.128   4.166   7.420 -0.6505 -0.1606 -0.9873
   49CHL1   H17 3577   4.018   4.176   7.430 -0.7406 -1.8971 -0.1184
   49CHL1   C13 3578   4.148   4.126   7.274  0.4123 -0.1901 -0.7235
   49CHL1   C18 3579   4.294   4.076   7.246  0.8570 -0.6089 -0.1918
   49CHL1  H18A 3580   4.318   4.084   7.138  1.8890  2.6544  0.2449
   49CHL1  H18B 3581   4.359   4.156   7.288  1.0415 -1.0079  0.2915
   49CHL1  H18C 3582   4.316   3.975   7.286  0.1744 -1.0606 -0.9351
   49CHL1   C12 3583   4.040   4.029   7.226  0.3055  0.7952 -0.7110
   49CHL1  H12A 3584   4.061   3.925   7.257  0.5666  1.3860  1.2207
   49CHL1  H12B 3585   3.940   4.058   7.265  0.5012  1.3888 -0.6363
   49CHL1   C11 3586   4.042   4.024   7.069 -0.5507  0.4414 -0.2356
   49CHL1  H11A 3587   4.144   3.989   7.040 -0.6060 -0.4036  0.5534
   49CHL1  H11B 3588   3.959   3.965   7.025  0.1058 -1.7097  1.3181
   49CHL1    C9 3589   4.028   4.167   7.002 -0.3817  0.0445  0.0533
   49CHL1    H9 3590   3.929   4.206   7.033  0.2448  0.2322  1.9120
   49CHL1   C10 3591   4.009   4.173   6.844  0.2494  0.0555  1.0440
   49CHL1   C19 3592   4.121   4.091   6.774 -0.3415 -0.4470 -0.1935
   49CHL1  H19A 3593   4.104   4.085   6.665 -0.4995  1.3557 -0.2861
   49CHL1  H19B 3594   4.222   4.138   6.776 -0.7029  0.3164  0.2287
   49CHL1  H19C 3595   4.120   3.986   6.809 -2.6727 -0.2883  0.2537
   49CHL1    C1 3596   3.866   4.114   6.817 -0.1774 -0.2151 -0.2277
   49CHL1   H1A 3597   3.856   4.008   6.850 -0.2840 -0.3214 -0.5949
   49CHL1   H1B 3598   3.783   4.163   6.872 -0.9217 -1.1125 -0.5378
   49CHL1    C2 3599   3.819   4.115   6.669  0.3972 -0.1398 -0.0281
   49CHL1   H2A 3600   3.711   4.091   6.671  0.1256  1.0973  0.8100
   49CHL1   H2B 3601   3.861   4.033   6.607 -0.3355 -1.6450  1.4240
   49CHL1   C20 3602   4.181   4.081   7.533  0.3987  0.5749  0.3392
   49CHL1   H20 3603   4.291   4.090   7.534  0.3713  1.4529 -2.4724
   49CHL1   C21 3604   4.147   3.936   7.517  0.5554  0.5505 -0.1615
   49CHL1  H21A 3605   4.168   3.884   7.613  0.8713  0.7241 -0.1370
   49CHL1  H21B 3606   4.199   3.882   7.435  1.6165 -0.8988  1.4280
   49CHL1  H21C 3607   4.036   3.932   7.517  0.5504  0.7049  0.2260
   49CHL1   C22 3608   4.128   4.150   7.669 -0.2060  0.4509  0.8188
   49CHL1  H22A 3609   4.165   4.255   7.679  0.6130  0.0258  2.3222
   49CHL1  H22B 3610   4.017   4.149   7.668 -0.2733  0.1284 -4.4242
   49CHL1   C23 3611   4.168   4.075   7.795 -0.7758  0.2117  0.0573
   49CHL1  H23A 3612   4.141   3.970   7.772  0.7831 -0.4349  1.1211
   49CHL1  H23B 3613   4.279   4.076   7.791 -0.7243  2.1760  1.6848
   49CHL1   C24 3614   4.116   4.119   7.929  1.0164 -0.1487  0.7315
   49CHL1  H24A 3615   4.124   4.228   7.946 -1.8168  0.0666  1.0168
   49CHL1  H24B 3616   4.006   4.105   7.922  1.1340  0.3711 -2.9395
   49CHL1   C25 3617   4.149   4.029   8.046  0.7070 -0.9725 -0.1496
   49CHL1   H25 3618   4.120   3.923   8.027  0.5363 -1.4061  2.3449
   49CHL1   C26 3619   4.302   4.041   8.077 -0.3525 -0.3498  0.1675
   49CHL1  H26A 3620   4.331   3.978   8.164  0.0521 -0.4528 -0.0424
   49CHL1  H26B 3621   4.363   4.011   7.990 -1.2005 -0.4947 -0.3841
   49CHL1  H26C 3622   4.331   4.146   8.098 -0.7519 -0.6678  2.5369
   49CHL1   C27 3623   4.070   4.073   8.175  0.0371 -0.0786 -0.5525
   49CHL1  H27A 3624   4.068   4.184   8.179  2.0074 -0.1016  1.7908
   49CHL1  H27B 3625   3.970   4.031   8.153  0.2263 -1.1132  0.5304
   49CHL1  H27C 3626   4.113   4.020   8.262 -0.2994 -0.5431 -0.6704
   50CHL1    C3 3627   4.960   5.063   6.954  0.1812  0.3855 -0.2420
   50CHL1    H3 3628   5.047   5.132   6.953 -0.0395  0.6683 -1.8202
   50CHL1    O3 3629   4.931   5.032   6.820 -0.6482 -0.5136 -0.2993
   50CHL1   H3' 3630   4.841   4.998   6.820 -0.2348 -1.6513 -1.8361
   50CHL1    C4 3631   4.974   4.943   7.046  0.4124  0.0560  0.7796
   50CHL1   H4A 3632   4.882   4.881   7.039  1.2314 -1.5237  3.6044
   50CHL1   H4B 3633   5.057   4.879   7.009 -1.9715 -1.2275 -2.6228
   50CHL1    C5 3634   4.996   4.978   7.192  0.2617 -0.1777  0.7092
   50CHL1    C6 3635   5.102   4.940   7.256 -0.4492  0.0977 -0.0119
   50CHL1    H6 3636   5.181   4.880   7.208  0.2022  1.5978 -0.8540
   50CHL1    C7 3637   5.117   4.950   7.405  0.1109  0.4090 -0.3492
   50CHL1   H7A 3638   5.144   4.849   7.442  0.1683  0.4801 -0.1945
   50CHL1   H7B 3639   5.196   5.028   7.419  0.5605 -0.3027  1.3159
   50CHL1    C8 3640   4.987   4.996   7.474 -0.2662 -0.1467 -0.3456
   50CHL1    H8 3641   4.916   4.913   7.493  2.0012 -2.0725 -0.1433
   50CHL1   C14 3642   5.027   5.065   7.607  0.0259 -0.3340  0.4783
   50CHL1   H14 3643   5.094   5.151   7.586  0.4034 -1.1401 -1.8186
   50CHL1   C15 3644   5.107   4.973   7.706  0.0305 -0.1027  0.0486
   50CHL1  H15A 3645   5.050   4.877   7.706  0.3047 -0.2732 -0.9566
   50CHL1  H15B 3646   5.211   4.962   7.668 -0.1011  0.3567 -0.4678
   50CHL1   C16 3647   5.081   5.044   7.842  1.3204 -0.6731  0.7566
   50CHL1  H16A 3648   5.022   4.972   7.902 -1.1840 -0.6331 -1.5289
   50CHL1  H16B 3649   5.172   5.069   7.900  1.5634  0.8397 -0.2399
   50CHL1   C17 3650   4.985   5.167   7.819 -1.2401 -0.3467  0.0995
   50CHL1   H17 3651   5.050   5.255   7.800  0.3630 -1.6158 -0.3690
   50CHL1   C13 3652   4.912   5.130   7.688  0.3424 -0.5248 -0.1960
   50CHL1   C18 3653   4.796   5.035   7.706 -0.0993  1.1671 -0.3071
   50CHL1  H18A 3654   4.705   5.077   7.755 -1.1620 -1.7454  0.3359
   50CHL1  H18B 3655   4.765   4.988   7.610  0.6708  0.9620 -0.4583
   50CHL1  H18C 3656   4.830   4.957   7.778  0.0732 -0.3992 -2.0443
   50CHL1   C12 3657   4.871   5.250   7.598  0.2418 -0.7240  0.5505
   50CHL1  H12A 3658   4.793   5.308   7.651  0.8270  0.3992  0.2065
   50CHL1  H12B 3659   4.950   5.326   7.580 -0.9464 -0.2328 -2.9796
   50CHL1   C11 3660   4.829   5.203   7.463 -0.0710 -0.3228 -0.7342
   50CHL1  H11A 3661   4.732   5.151   7.477 -0.2914  0.4972  0.8885
   50CHL1  H11B 3662   4.814   5.289   7.393  3.2296  0.8853 -0.0611
   50CHL1    C9 3663   4.930   5.109   7.390  0.6978  0.0411  0.1352
   50CHL1    H9 3664   5.013   5.180   7.372 -0.8688  2.1534  1.0348
   50CHL1   C10 3665   4.881   5.055   7.247  0.0786 -0.3648  0.7019
   50CHL1   C19 3666   4.749   4.976   7.256  0.1482  0.9459  0.4785
   50CHL1  H19A 3667   4.667   5.048   7.272 -1.5535 -0.7709 -0.2913
   50CHL1  H19B 3668   4.724   4.916   7.166 -0.2819  0.6214  0.8099
   50CHL1  H19C 3669   4.740   4.903   7.340 -1.6036  0.7841  0.1715
   50CHL1    C1 3670   4.861   5.179   7.150  0.9270  1.0253  0.0508
   50CHL1   H1A 3671   4.770   5.232   7.186  0.9044  0.5009  0.7654
   50CHL1   H1B 3672   4.950   5.247   7.156 -0.3020  2.5989  1.0244
   50CHL1    C2 3673   4.837   5.143   7.004 -1.3647  0.5657  0.3169
   50CHL1   H2A 3674   4.822   5.233   6.941  1.0269  0.8797  0.1310
   50CHL1   H2B 3675   4.745   5.084   6.982 -0.5691 -1.0839  1.2852
   50CHL1   C20 3676   4.896   5.204   7.941 -0.0534 -0.0168  0.1372
   50CHL1   H20 3677   4.808   5.137   7.937  1.6678 -2.3447  0.2086
   50CHL1   C21 3678   4.842   5.344   7.933  0.8279 -0.6585  0.0586
   50CHL1  H21A 3679   4.775   5.357   7.845 -0.0416 -1.3416  0.6134
   50CHL1  H21B 3680   4.920   5.423   7.927  0.4879 -0.0535  2.8167
   50CHL1  H21C 3681   4.766   5.364   8.011 -1.1139 -0.7145 -1.7630
   50CHL1   C22 3682   4.971   5.190   8.080 -0.7407  0.0095  0.0438
   50CHL1  H22A 3683   5.030   5.097   8.097  0.7948  0.8008 -0.9030
   50CHL1  H22B 3684   5.046   5.271   8.074  0.4457 -1.1358 -1.0039
   50CHL1   C23 3685   4.876   5.212   8.205  0.5785 -0.2698  0.4091
   50CHL1  H23A 3686   4.865   5.322   8.207  2.4922  0.0041 -2.0406
   50CHL1  H23B 3687   4.775   5.164   8.201  0.3261  0.4028 -1.7082
   50CHL1   C24 3688   4.941   5.163   8.334  0.2502 -0.4280  0.1446
   50CHL1  H24A 3689   4.945   5.054   8.318  0.1864 -0.6222  1.4299
   50CHL1  H24B 3690   5.044   5.201   8.349  0.4181 -0.8004 -0.0661
   50CHL1   C25 3691   4.855   5.186   8.464 -0.4886 -0.0113  0.2106
   50CHL1   H25 3692   4.751   5.146   8.454 -0.4781 -0.2948  1.1842
   50CHL1   C26 3693   4.920   5.115   8.585  0.0313  0.5889  0.3756
   50CHL1  H26A 3694   4.860   5.143   8.674 -1.1161 -1.8470  0.4005
   50CHL1  H26B 3695   4.910   5.004   8.574  1.7405  0.7919 -4.8382
   50CHL1  H26C 3696   5.026   5.142   8.607  0.8146 -1.4193 -0.7587
   50CHL1   C27 3697   4.845   5.335   8.494  0.4202 -0.0651 -0.0342
   50CHL1  H27A 3698   4.802   5.400   8.414 -0.6757 -0.4485  0.2366
   50CHL1  H27B 3699   4.781   5.355   8.582  3.3315  1.9245  1.7152
   50CHL1  H27C 3700   4.947   5.371   8.516 -0.2938  1.2964  1.1378
   51CHL1    C3 3701   5.171   4.017   6.872  0.5507  0.4043  0.0469
   51CHL1    H3 3702   5.252   3.941   6.871  0.3970  0.2391  0.1446
   51CHL1    O3 3703   5.135   4.038   6.735  0.0031  0.7778 -0.2617
   51CHL1   H3' 3704   5.129   3.951   6.695 -2.5053  1.1821 -0.8695
   51CHL1    C4 3705   5.045   3.964   6.948 -0.7236  0.0527  0.2200
   51CHL1   H4A 3706   4.972   4.047   6.931  0.7864  1.3467 -0.0307
   51CHL1   H4B 3707   5.007   3.868   6.908  2.3846 -1.9216  1.8672
   51CHL1    C5 3708   5.072   3.948   7.100 -0.8587  0.3564  0.8319
   51CHL1    C6 3709   5.051   3.830   7.165 -0.0429 -0.3903 -0.7104
   51CHL1    H6 3710   5.011   3.744   7.109  2.9106  0.5247 -4.4387
   51CHL1    C7 3711   5.092   3.816   7.305 -1.0410 -0.1352 -0.3493
   51CHL1   H7A 3712   5.009   3.761   7.354 -3.2607  3.4890  0.1876
   51CHL1   H7B 3713   5.178   3.746   7.304 -0.3038  0.7112  1.2094
   51CHL1    C8 3714   5.134   3.932   7.392 -0.3680 -0.1084  0.7723
   51CHL1    H8 3715   5.042   3.985   7.425 -0.5697 -1.3360  2.1805
   51CHL1   C14 3716   5.199   3.886   7.518  0.7835  0.1975  0.1813
   51CHL1   H14 3717   5.282   3.826   7.476  1.2721  1.7176 -1.1199
   51CHL1   C15 3718   5.122   3.794   7.607 -0.0619  0.0213 -0.1157
   51CHL1  H15A 3719   5.021   3.840   7.621 -0.1972 -0.5816  0.8767
   51CHL1  H15B 3720   5.095   3.696   7.563 -0.4562  0.5146 -0.9886
   51CHL1   C16 3721   5.213   3.780   7.731  0.5784  0.6209 -0.3270
   51CHL1  H16A 3722   5.148   3.781   7.821 -1.6987 -0.9737 -1.8925
   51CHL1  H16B 3723   5.262   3.680   7.727  1.5240  0.9543  1.7400
   51CHL1   C17 3724   5.304   3.903   7.724 -0.3212 -0.1289 -0.2600
   51CHL1   H17 3725   5.403   3.854   7.706  0.0957  0.5650  0.1454
   51CHL1   C13 3726   5.264   3.992   7.601 -0.0649 -0.0357  0.0643
   51CHL1   C18 3727   5.159   4.097   7.638 -0.2145  0.1010  0.8127
   51CHL1  H18A 3728   5.108   4.145   7.552  2.4511  0.6546 -0.5285
   51CHL1  H18B 3729   5.089   4.058   7.715  1.1353 -2.7368  0.6682
   51CHL1  H18C 3730   5.214   4.179   7.688 -0.0711 -0.1837  1.1232
   51CHL1   C12 3731   5.376   4.054   7.504 -0.4054  0.1772 -0.5030
   51CHL1  H12A 3732   5.419   4.139   7.560 -0.0554 -1.2407  1.4542
   51CHL1  H12B 3733   5.450   3.976   7.476  0.5606 -0.2408  2.9897
   51CHL1   C11 3734   5.311   4.109   7.377  0.5176  0.1461 -0.7739
   51CHL1  H11A 3735   5.251   4.201   7.399 -2.1862 -0.9726 -3.1425
   51CHL1  H11B 3736   5.395   4.130   7.308  0.5560  2.9833  0.0495
   51CHL1    C9 3737   5.221   4.009   7.301 -0.7095  0.2896 -0.4384
   51CHL1    H9 3738   5.295   3.940   7.254  0.3908  0.7699  0.5634
   51CHL1   C10 3739   5.153   4.067   7.165 -0.4437 -0.0948 -0.3922
   51CHL1   C19 3740   5.050   4.169   7.201  0.6380  0.2281  0.4332
   51CHL1  H19A 3741   5.087   4.251   7.266 -0.3277  0.2457  0.9621
   51CHL1  H19B 3742   4.999   4.211   7.112 -2.0782 -0.6511  1.5392
   51CHL1  H19C 3743   4.967   4.132   7.264  0.2524 -1.3949 -0.9958
   51CHL1    C1 3744   5.255   4.128   7.072  0.5181  0.2942 -0.7475
   51CHL1   H1A 3745   5.307   4.222   7.101 -1.1440  0.4720  1.8779
   51CHL1   H1B 3746   5.333   4.051   7.054 -2.7247 -3.7996  1.9251
   51CHL1    C2 3747   5.214   4.148   6.933  0.0865  0.1530 -0.4232
   51CHL1   H2A 3748   5.296   4.183   6.867  2.0884 -0.1280  1.8454
   51CHL1   H2B 3749   5.131   4.221   6.925 -1.3376 -1.4708 -0.6342
   51CHL1   C20 3750   5.324   3.984   7.855  0.7909  0.6727  0.5340
   51CHL1   H20 3751   5.227   4.035   7.874 -0.7474 -2.0271  0.1768
   51CHL1   C21 3752   5.443   4.085   7.842  0.2393  0.1453 -0.0647
   51CHL1  H21A 3753   5.497   4.061   7.748  0.1022 -1.2160  0.1949
   51CHL1  H21B 3754   5.519   4.068   7.922 -1.0234  0.9885  1.3426
   51CHL1  H21C 3755   5.411   4.191   7.838 -2.1696 -0.4566  1.8433
   51CHL1   C22 3756   5.350   3.896   7.981  0.0377 -0.0074  0.5743
   51CHL1  H22A 3757   5.393   3.962   8.059  0.2723  2.3910 -1.5310
   51CHL1  H22B 3758   5.252   3.863   8.020  0.4776  0.3750  2.0335
   51CHL1   C23 3759   5.441   3.771   7.972  0.7414  0.6971  0.6206
   51CHL1  H23A 3760   5.429   3.713   8.066 -0.8848 -0.8738 -0.5066
   51CHL1  H23B 3761   5.412   3.700   7.891  0.3733  2.1759 -0.5508
   51CHL1   C24 3762   5.597   3.794   7.956 -0.7053  0.3469  0.5479
   51CHL1  H24A 3763   5.614   3.831   7.852 -1.0257 -1.5438 -0.2051
   51CHL1  H24B 3764   5.620   3.877   8.026 -1.2079  0.4897  0.5460
   51CHL1   C25 3765   5.689   3.670   7.977  0.7235 -0.2657  0.0381
   51CHL1   H25 3766   5.793   3.709   7.969  0.3958  0.6393  0.1941
   51CHL1   C26 3767   5.677   3.620   8.116  0.7017 -0.6962  0.2203
   51CHL1  H26A 3768   5.696   3.708   8.181 -1.2364  0.1625 -0.3377
   51CHL1  H26B 3769   5.583   3.575   8.151  0.5033 -1.5157 -1.3056
   51CHL1  H26C 3770   5.745   3.535   8.136  0.7321 -1.2521 -2.0844
   51CHL1   C27 3771   5.669   3.564   7.872 -0.0595  0.1945  0.3832
   51CHL1  H27A 3772   5.670   3.603   7.768 -0.8934  2.4321  1.1864
   51CHL1  H27B 3773   5.749   3.487   7.875  1.0145  1.2871  0.5250
   51CHL1  H27C 3774   5.567   3.525   7.889  0.4030 -1.9619 -1.5477
   52CHL1    C3 3775   6.759   5.234   6.909  0.0029  0.2785 -0.1559
   52CHL1    H3 3776   6.760   5.342   6.934 -0.9039  0.0390  0.9115
   52CHL1    O3 3777   6.734   5.204   6.773 -0.5345 -0.7034 -0.2136
   52CHL1   H3' 3778   6.705   5.112   6.771  1.3023 -1.2935 -1.5744
   52CHL1    C4 3779   6.892   5.167   6.948  0.0812 -0.0504  0.2243
   52CHL1   H4A 3780   6.886   5.059   6.923  0.8737 -0.1993  0.6584
   52CHL1   H4B 3781   6.976   5.199   6.882  0.0505 -0.5918 -0.0858
   52CHL1    C5 3782   6.933   5.187   7.095 -0.3002  0.1143 -0.5539
   52CHL1    C6 3783   7.049   5.246   7.130  0.4316  0.5239 -0.2575
   52CHL1    H6 3784   7.114   5.296   7.056  0.0878  0.7167 -0.4283
   52CHL1    C7 3785   7.092   5.272   7.275  0.2992 -0.1613  0.0175
   52CHL1   H7A 3786   7.200   5.253   7.295  0.6025 -1.5676 -2.6376
   52CHL1   H7B 3787   7.077   5.378   7.305 -0.2685 -0.3895  0.5315
   52CHL1    C8 3788   7.008   5.177   7.365  0.0451 -0.1358  0.3843
   52CHL1    H8 3789   7.038   5.071   7.349 -2.0539 -0.5231 -1.0858
   52CHL1   C14 3790   7.029   5.213   7.508 -0.4838  0.4890 -0.1168
   52CHL1   H14 3791   6.981   5.312   7.523  0.3484  1.4262 -3.4061
   52CHL1   C15 3792   7.175   5.234   7.560  0.5633  0.2686  0.6605
   52CHL1  H15A 3793   7.238   5.148   7.530  0.6812  0.4811  0.2897
   52CHL1  H15B 3794   7.218   5.327   7.518 -0.5356  0.0431 -1.0373
   52CHL1   C16 3795   7.160   5.239   7.717 -0.6718 -0.1113  0.6369
   52CHL1  H16A 3796   7.241   5.170   7.750 -0.5291 -0.8529 -1.1867
   52CHL1  H16B 3797   7.178   5.339   7.762  1.7554 -0.9710  1.6705
   52CHL1   C17 3798   7.021   5.193   7.749 -0.2570  0.1726  0.6061
   52CHL1   H17 3799   6.969   5.290   7.766  2.6301  1.7227  0.9584
   52CHL1   C13 3800   6.955   5.128   7.619 -0.0336  0.4574  0.4431
   52CHL1   C18 3801   6.998   4.976   7.612 -0.2369  0.1966  0.2688
   52CHL1  H18A 3802   6.968   4.924   7.705 -0.5410  0.4775  0.3335
   52CHL1  H18B 3803   6.956   4.930   7.519 -0.3521 -2.5442  1.6437
   52CHL1  H18C 3804   7.108   4.966   7.613 -0.0853  1.4751 -1.2425
   52CHL1   C12 3805   6.800   5.132   7.587 -1.0358 -0.0838 -0.0858
   52CHL1  H12A 3806   6.738   5.057   7.640  0.2288 -0.8061  0.3821
   52CHL1  H12B 3807   6.758   5.230   7.619 -0.4291  0.5374 -1.1784
   52CHL1   C11 3808   6.771   5.115   7.439  0.1404  0.0348 -0.6652
   52CHL1  H11A 3809   6.768   5.005   7.423 -0.1115 -0.0898  0.2378
   52CHL1  H11B 3810   6.669   5.148   7.409 -0.4435 -0.3085  0.9028
   52CHL1    C9 3811   6.860   5.181   7.335  0.3274  0.0720  0.1589
   52CHL1    H9 3812   6.839   5.290   7.330 -0.4160 -0.1312 -1.4314
   52CHL1   C10 3813   6.828   5.135   7.192 -0.7410 -0.4692 -0.0332
   52CHL1   C19 3814   6.844   4.982   7.178 -0.5969 -0.9153  0.6230
   52CHL1  H19A 3815   6.802   4.950   7.079  0.5801 -0.0533 -0.1652
   52CHL1  H19B 3816   6.946   4.949   7.206  0.3871  0.9209 -0.6806
   52CHL1  H19C 3817   6.776   4.933   7.251 -1.9219 -0.3634 -0.2149
   52CHL1    C1 3818   6.690   5.185   7.147 -0.3482  0.3024 -0.1968
   52CHL1   H1A 3819   6.612   5.132   7.206 -0.7786 -1.4157 -2.2117
   52CHL1   H1B 3820   6.690   5.294   7.165 -0.4976 -0.2749  3.6696
   52CHL1    C2 3821   6.655   5.173   7.001  0.2920 -0.4447 -0.3487
   52CHL1   H2A 3822   6.556   5.220   6.985  0.0535 -0.2707  1.5167
   52CHL1   H2B 3823   6.629   5.070   6.969 -0.1455 -0.7028  0.8175
   52CHL1   C20 3824   7.009   5.126   7.884 -0.6082  0.1487 -0.0426
   52CHL1   H20 3825   7.070   5.034   7.884 -1.4040 -0.3848 -0.1956
   52CHL1   C21 3826   6.859   5.079   7.904 -0.9224  0.0961  0.6560
   52CHL1  H21A 3827   6.839   5.032   8.003  4.8180  1.0263  2.4618
   52CHL1  H21B 3828   6.826   5.011   7.823 -1.7938  0.8010  0.4185
   52CHL1  H21C 3829   6.804   5.175   7.896  0.9539  1.2455  1.0470
   52CHL1   C22 3830   7.048   5.216   8.003 -0.5805 -0.2051 -0.4558
   52CHL1  H22A 3831   7.141   5.272   7.979  0.1173 -1.5909 -1.0198
   52CHL1  H22B 3832   6.970   5.294   8.010 -0.0920  0.3626 -1.1825
   52CHL1   C23 3833   7.070   5.134   8.135 -0.1893 -0.2092  0.2909
   52CHL1  H23A 3834   6.998   5.050   8.127  0.3626 -0.7532  1.0062
   52CHL1  H23B 3835   7.178   5.107   8.135 -0.2091 -0.2857  0.8090
   52CHL1   C24 3836   7.040   5.215   8.263 -0.4077  0.2960 -0.3891
   52CHL1  H24A 3837   7.113   5.298   8.260 -0.2686  0.2361  1.0080
   52CHL1  H24B 3838   6.938   5.257   8.253 -0.3955  0.5299  0.4816
   52CHL1   C25 3839   7.044   5.129   8.392 -0.4895 -0.4977  0.1452
   52CHL1   H25 3840   6.967   5.049   8.386 -0.0561 -0.8426 -0.9243
   52CHL1   C26 3841   7.170   5.059   8.434 -0.2587 -0.3948 -0.4101
   52CHL1  H26A 3842   7.197   4.989   8.353  2.5290  1.4536 -1.1932
   52CHL1  H26B 3843   7.254   5.132   8.440  0.9016 -1.8553  2.0336
   52CHL1  H26C 3844   7.156   4.994   8.523  1.2496 -2.1370 -1.4015
   52CHL1   C27 3845   7.008   5.225   8.499 -0.2201 -0.3540 -0.0086
   52CHL1  H27A 3846   7.017   5.174   8.597 -0.7466 -1.7248 -0.6607
   52CHL1  H27B 3847   7.080   5.310   8.503  0.3657 -0.7614 -1.5482
   52CHL1  H27C 3848   6.902   5.249   8.474 -0.2633 -0.7548 -0.2142
   53CHL1    C3 3849   2.574   2.104   7.086 -0.4873  0.2434  0.5385
   53CHL1    H3 3850   2.600   2.208   7.117  2.1537 -0.6851  1.6446
   53CHL1    O3 3851   2.563   2.088   6.944 -0.6288  0.2357  0.0673
   53CHL1   H3' 3852   2.473   2.116   6.927 -0.5918 -0.4585 -1.3623
   53CHL1    C4 3853   2.688   2.028   7.153 -0.5353  0.4940 -0.1944
   53CHL1   H4A 3854   2.673   1.923   7.122 -1.3079  0.0254  1.6955
   53CHL1   H4B 3855   2.776   2.070   7.100 -0.6868  2.1174  0.7970
   53CHL1    C5 3856   2.691   2.036   7.301  0.0329  0.5892 -0.3082
   53CHL1    C6 3857   2.803   2.081   7.354  0.6212 -0.4801  0.1866
   53CHL1    H6 3858   2.887   2.094   7.284  0.6326 -0.1707  0.2562
   53CHL1    C7 3859   2.810   2.115   7.501  0.1437  0.7025  0.1485
   53CHL1   H7A 3860   2.910   2.088   7.540  0.6983 -0.0670 -1.7388
   53CHL1   H7B 3861   2.797   2.225   7.506  0.6719  0.6879  2.4674
   53CHL1    C8 3862   2.701   2.040   7.584  0.2058  0.3772  0.6962
   53CHL1    H8 3863   2.736   1.934   7.589  0.1866  0.3993  1.2919
   53CHL1   C14 3864   2.687   2.101   7.729 -0.4159 -0.4787 -0.3613
   53CHL1   H14 3865   2.637   2.199   7.712 -1.1285 -0.0993  3.4934
   53CHL1   C15 3866   2.811   2.135   7.807 -0.0596 -0.4610 -0.4220
   53CHL1  H15A 3867   2.889   2.055   7.810 -1.5941 -1.9899 -0.4829
   53CHL1  H15B 3868   2.865   2.225   7.771  1.1895 -0.4818  1.3234
   53CHL1   C16 3869   2.754   2.156   7.953  0.2093  0.7994 -0.8051
   53CHL1  H16A 3870   2.827   2.096   8.011  0.8117  1.4286 -0.9093
   53CHL1  H16B 3871   2.749   2.256   8.002 -0.2983 -0.1008  1.0395
   53CHL1   C17 3872   2.614   2.096   7.960 -0.0588  0.7024  0.1376
   53CHL1   H17 3873   2.550   2.186   7.955 -0.2740  0.6861  2.1918
   53CHL1   C13 3874   2.595   2.020   7.821 -0.0283  0.1582  0.0473
   53CHL1   C18 3875   2.648   1.878   7.832 -0.5348 -0.0825  0.2512
   53CHL1  H18A 3876   2.591   1.817   7.905 -1.5877  0.8780  0.2636
   53CHL1  H18B 3877   2.639   1.823   7.736  0.0721 -1.6440  1.0794
   53CHL1  H18C 3878   2.755   1.881   7.861 -0.5692 -0.6076  0.4273
   53CHL1   C12 3879   2.452   2.031   7.758  0.3625 -0.0769 -0.7828
   53CHL1  H12A 3880   2.377   1.978   7.821  1.9284 -2.1033 -0.5484
   53CHL1  H12B 3881   2.420   2.137   7.758 -2.6284 -0.8117  3.6946
   53CHL1   C11 3882   2.453   1.982   7.611 -0.7943 -0.0658  0.8244
   53CHL1  H11A 3883   2.455   1.871   7.620  1.1649  0.0020  1.6434
   53CHL1  H11B 3884   2.349   1.995   7.574 -0.4290 -1.4235 -0.7279
   53CHL1    C9 3885   2.561   2.045   7.518 -0.3995 -0.0046  0.0558
   53CHL1    H9 3886   2.535   2.152   7.506 -0.5351 -0.0889 -0.4494
   53CHL1   C10 3887   2.552   1.999   7.373  0.3647  0.0477 -0.4388
   53CHL1   C19 3888   2.533   1.845   7.375  0.1921 -0.6451  0.0659
   53CHL1  H19A 3889   2.522   1.805   7.271 -1.0904  0.2510 -0.1532
   53CHL1  H19B 3890   2.609   1.793   7.437  0.0876  0.5708  1.2226
   53CHL1  H19C 3891   2.434   1.824   7.421 -0.0932 -0.2647 -0.3714
   53CHL1    C1 3892   2.434   2.063   7.300  0.1516  0.6565 -0.1923
   53CHL1   H1A 3893   2.334   2.038   7.341  0.9767 -0.3273  1.3038
   53CHL1   H1B 3894   2.443   2.173   7.313  0.2998  1.3114 -4.9260
   53CHL1    C2 3895   2.434   2.063   7.146 -0.6831  0.3592  0.1915
   53CHL1   H2A 3896   2.362   2.134   7.101 -0.3236  0.7811  0.2765
   53CHL1   H2B 3897   2.411   1.963   7.104 -2.2049  0.4307  0.7917
   53CHL1   C20 3898   2.587   2.034   8.096  0.0800 -0.2735 -0.2523
   53CHL1   H20 3899   2.647   1.942   8.112  0.0771 -0.0153  1.3448
   53CHL1   C21 3900   2.441   1.985   8.109  0.5948 -0.6797  0.3382
   53CHL1  H21A 3901   2.440   1.906   8.031 -1.0427 -0.0395 -0.3169
   53CHL1  H21B 3902   2.373   2.069   8.081 -0.1602 -0.9533  1.3218
   53CHL1  H21C 3903   2.403   1.944   8.205 -3.5066  1.6827 -0.1256
   53CHL1   C22 3904   2.612   2.124   8.214 -0.2768  0.0853  0.5461
   53CHL1  H22A 3905   2.720   2.148   8.200 -0.2612  0.4545  1.3041
   53CHL1  H22B 3906   2.556   2.217   8.193 -0.7019 -0.1249  0.7607
   53CHL1   C23 3907   2.590   2.081   8.359 -0.3397 -0.5587 -0.3951
   53CHL1  H23A 3908   2.482   2.060   8.371 -0.6137 -0.6042 -2.6857
   53CHL1  H23B 3909   2.643   1.987   8.385 -0.3317 -0.7268 -1.0175
   53CHL1   C24 3910   2.627   2.184   8.463 -0.5779  0.1974  0.3100
   53CHL1  H24A 3911   2.551   2.265   8.451 -2.4745 -1.0840  3.0702
   53CHL1  H24B 3912   2.606   2.140   8.562  0.2995 -0.7079  0.0906
   53CHL1   C25 3913   2.772   2.237   8.467 -0.5041  0.3086 -0.1097
   53CHL1   H25 3914   2.781   2.264   8.360  0.1177 -2.8632 -0.9265
   53CHL1   C26 3915   2.774   2.365   8.555  0.0608 -0.7166  0.1504
   53CHL1  H26A 3916   2.866   2.423   8.533 -1.4702  2.2005  1.1057
   53CHL1  H26B 3917   2.684   2.428   8.536 -0.4258 -1.8145 -1.2777
   53CHL1  H26C 3918   2.779   2.338   8.662  1.1578  0.4316  0.3918
   53CHL1   C27 3919   2.875   2.130   8.506  0.4653 -0.7186 -0.1670
   53CHL1  H27A 3920   2.843   2.103   8.609  0.1224  0.2481 -0.0191
   53CHL1  H27B 3921   2.869   2.044   8.436  1.4176 -1.5217  0.7067
   53CHL1  H27C 3922   2.980   2.167   8.510  0.2237 -0.0584  0.0312
   54CHL1    C3 3923   3.351   3.905   6.820 -0.2181 -0.1516 -0.0291
   54CHL1    H3 3924   3.411   3.812   6.824  1.1196  0.7207  0.3290
   54CHL1    O3 3925   3.362   3.943   6.683 -0.4951  0.3670  0.2047
   54CHL1   H3' 3926   3.343   3.862   6.635 -0.6448  1.1765 -1.1243
   54CHL1    C4 3927   3.204   3.874   6.857  0.2671  0.4241  0.0070
   54CHL1   H4A 3928   3.142   3.965   6.839 -3.9901 -1.3922  4.3078
   54CHL1   H4B 3929   3.165   3.794   6.790  1.3540 -1.6849  1.8750
   54CHL1    C5 3930   3.189   3.833   7.004 -0.5881 -0.6624  0.4177
   54CHL1    C6 3931   3.129   3.721   7.045 -0.0228 -0.2680  0.6014
   54CHL1    H6 3932   3.088   3.658   6.965 -0.6182  1.4995 -0.5151
   54CHL1    C7 3933   3.116   3.680   7.193  0.1026 -0.3666  0.4546
   54CHL1   H7A 3934   3.013   3.639   7.202 -1.2688  2.7637 -0.5101
   54CHL1   H7B 3935   3.188   3.594   7.196 -1.1404 -1.3910  1.2421
   54CHL1    C8 3936   3.151   3.789   7.293  0.2315 -0.0445  0.1042
   54CHL1    H8 3937   3.062   3.852   7.312  0.9443  0.5064  1.7041
   54CHL1   C14 3938   3.181   3.719   7.433  0.5096  0.3964  0.2998
   54CHL1   H14 3939   3.274   3.667   7.399  0.6033 -0.2119  1.4737
   54CHL1   C15 3940   3.088   3.610   7.490  0.5943 -1.1597 -0.0647
   54CHL1  H15A 3941   2.990   3.661   7.501  1.2521 -0.1816  1.4753
   54CHL1  H15B 3942   3.058   3.522   7.429  0.0127 -0.2117 -1.1576
   54CHL1   C16 3943   3.151   3.582   7.629 -0.8658 -0.6116 -0.1746
   54CHL1  H16A 3944   3.067   3.571   7.700 -2.3760 -1.6737 -2.0571
   54CHL1  H16B 3945   3.223   3.498   7.624  1.3742  1.1526  1.1241
   54CHL1   C17 3946   3.247   3.714   7.655 -0.0747 -0.8154  0.9890
   54CHL1   H17 3947   3.349   3.678   7.628 -0.5897 -1.1797 -0.4951
   54CHL1   C13 3948   3.220   3.819   7.546 -0.0989 -0.2118 -0.0868
   54CHL1   C18 3949   3.105   3.913   7.579 -0.3131 -0.1218 -0.6929
   54CHL1  H18A 3950   3.101   3.988   7.498  2.7174 -1.1500 -1.8556
   54CHL1  H18B 3951   3.011   3.854   7.590  1.6369 -3.1307  0.7416
   54CHL1  H18C 3952   3.133   3.971   7.670  0.3436  0.3041 -1.1677
   54CHL1   C12 3953   3.345   3.894   7.494 -0.6276  0.6460 -0.1100
   54CHL1  H12A 3954   3.371   3.969   7.571  1.1550 -0.0670  0.0137
   54CHL1  H12B 3955   3.431   3.823   7.500 -2.3043 -1.5931 -1.7103
   54CHL1   C11 3956   3.325   3.962   7.360  0.2479 -0.4279  0.3634
   54CHL1  H11A 3957   3.256   4.049   7.365 -1.2894 -1.5210 -1.0056
   54CHL1  H11B 3958   3.427   3.999   7.339  0.0796  0.6285  1.3673
   54CHL1    C9 3959   3.270   3.871   7.248  0.6379  0.5019  0.2082
   54CHL1    H9 3960   3.348   3.793   7.234  2.1266  1.9022  0.5096
   54CHL1   C10 3961   3.248   3.934   7.106  0.1629  0.6820 -0.7371
   54CHL1   C19 3962   3.161   4.061   7.111 -0.0220 -0.5224 -0.1095
   54CHL1  H19A 3963   3.137   4.103   7.011 -0.2296  2.2069  1.0558
   54CHL1  H19B 3964   3.063   4.039   7.159 -0.6115  3.6844  0.7893
   54CHL1  H19C 3965   3.215   4.142   7.163 -0.2319  1.4669 -2.9016
   54CHL1    C1 3966   3.396   3.967   7.062 -0.0894 -0.6555 -0.8434
   54CHL1   H1A 3967   3.440   4.051   7.120  0.2700 -1.8141  0.6050
   54CHL1   H1B 3968   3.464   3.886   7.097  0.6670  0.0255 -0.7228
   54CHL1    C2 3969   3.417   4.006   6.914  0.0603  0.9430 -0.2106
   54CHL1   H2A 3970   3.527   4.003   6.899  0.1514 -0.6409  0.6952
   54CHL1   H2B 3971   3.397   4.114   6.897 -0.2305  0.4653 -3.1286
   54CHL1   C20 3972   3.250   3.751   7.804  0.3921 -0.7541  0.2922
   54CHL1   H20 3973   3.144   3.770   7.831  0.2766 -0.4816 -0.3587
   54CHL1   C21 3974   3.331   3.881   7.829  0.1151  0.2870  0.2437
   54CHL1  H21A 3975   3.308   3.918   7.931  2.0977  1.8502  0.1729
   54CHL1  H21B 3976   3.299   3.966   7.766 -1.7134  0.7468  1.7691
   54CHL1  H21C 3977   3.441   3.871   7.813  0.5349  3.1172  1.1104
   54CHL1   C22 3978   3.293   3.631   7.887  0.3943 -0.1260  0.2227
   54CHL1  H22A 3979   3.239   3.541   7.851  1.6194 -0.4826 -0.7565
   54CHL1  H22B 3980   3.402   3.614   7.874  0.5658  2.6703 -2.4732
   54CHL1   C23 3981   3.267   3.647   8.043  0.0222  0.0336  0.0829
   54CHL1  H23A 3982   3.332   3.732   8.072  1.2021 -0.5485 -0.8330
   54CHL1  H23B 3983   3.160   3.679   8.038 -0.9462 -3.0167  0.0330
   54CHL1   C24 3984   3.283   3.521   8.130 -0.6703 -0.1173 -0.5820
   54CHL1  H24A 3985   3.214   3.443   8.093 -0.1205 -0.3744 -1.0840
   54CHL1  H24B 3986   3.384   3.477   8.114 -0.8468  0.3620 -3.2614
   54CHL1   C25 3987   3.257   3.541   8.284 -0.4357  0.0459  0.3581
   54CHL1   H25 3988   3.330   3.616   8.323 -1.3328  2.2837 -2.0825
   54CHL1   C26 3989   3.115   3.607   8.304 -0.2571 -0.4705 -0.0734
   54CHL1  H26A 3990   3.093   3.615   8.413 -0.8055 -2.2163 -0.0381
   54CHL1  H26B 3991   3.113   3.708   8.257  1.2072 -0.3909 -0.0001
   54CHL1  H26C 3992   3.029   3.568   8.247 -0.9573  0.7639  0.1141
   54CHL1   C27 3993   3.260   3.410   8.352 -0.1885  0.0161 -0.5765
   54CHL1  H27A 3994   3.201   3.334   8.297  3.1014 -0.0951 -4.1053
   54CHL1  H27B 3995   3.357   3.359   8.339 -1.4152 -2.3268 -0.6878
   54CHL1  H27C 3996   3.219   3.413   8.456  0.4254  1.2459 -0.3573
   55CHL1    C3 3997   2.555   5.539   6.989  0.5669  0.1117 -0.4363
   55CHL1    H3 3998   2.539   5.646   7.014  1.2237  0.3452 -1.0319
   55CHL1    O3 3999   2.573   5.529   6.848  0.3950 -0.3145 -0.6616
   55CHL1   H3' 4000   2.648   5.586   6.827  0.3111  0.6321  1.4770
   55CHL1    C4 4001   2.673   5.485   7.067 -0.1306  0.0546  0.0804
   55CHL1   H4A 4002   2.692   5.377   7.048 -0.4301  0.1038 -0.5204
   55CHL1   H4B 4003   2.770   5.532   7.038  0.5296 -1.5071 -0.3162
   55CHL1    C5 4004   2.656   5.513   7.214  0.4318 -0.7090 -0.1249
   55CHL1    C6 4005   2.732   5.597   7.288 -0.5739  0.2640 -0.5722
   55CHL1    H6 4006   2.816   5.643   7.235  0.2339  1.2157  1.5064
   55CHL1    C7 4007   2.710   5.631   7.433  0.1927  0.3988  0.5875
   55CHL1   H7A 4008   2.808   5.619   7.483  0.4241 -2.1280 -0.3923
   55CHL1   H7B 4009   2.672   5.736   7.435  0.3661  0.5156 -1.0224
   55CHL1    C8 4010   2.615   5.539   7.507 -0.4175  0.0371 -0.0356
   55CHL1    H8 4011   2.670   5.445   7.527  1.1808  1.0846  0.6253
   55CHL1   C14 4012   2.574   5.600   7.638  0.6466  0.0072  0.3848
   55CHL1   H14 4013   2.511   5.691   7.624  1.5028  0.4569 -0.5563
   55CHL1   C15 4014   2.688   5.649   7.731  0.4660 -0.2478  0.3267
   55CHL1  H15A 4015   2.777   5.585   7.743 -0.1866 -1.1458  0.3965
   55CHL1  H15B 4016   2.718   5.754   7.707 -1.1290  0.1700  0.0548
   55CHL1   C16 4017   2.619   5.649   7.865 -0.2299  0.3684  0.8379
   55CHL1  H16A 4018   2.676   5.596   7.944 -1.7327 -2.2371  0.2362
   55CHL1  H16B 4019   2.608   5.757   7.890  1.8839  1.0679 -1.0912
   55CHL1   C17 4020   2.474   5.592   7.852 -0.0347 -0.3545  0.4859
   55CHL1   H17 4021   2.411   5.681   7.831  1.1097  1.8229  5.3859
   55CHL1   C13 4022   2.487   5.508   7.724  0.6552  0.1760  0.1600
   55CHL1   C18 4023   2.563   5.377   7.761 -0.8102  0.3536  0.1302
   55CHL1  H18A 4024   2.492   5.335   7.835  0.1271 -0.7105  0.4475
   55CHL1  H18B 4025   2.566   5.303   7.678  2.1506 -0.4452  0.8986
   55CHL1  H18C 4026   2.666   5.380   7.803 -1.1538  1.1031  0.9212
   55CHL1   C12 4027   2.364   5.477   7.638 -0.2565  0.8400 -0.3457
   55CHL1  H12A 4028   2.299   5.401   7.687  0.0565  1.7192  1.4744
   55CHL1  H12B 4029   2.299   5.567   7.640 -0.8621  0.3902  0.6352
   55CHL1   C11 4030   2.390   5.425   7.502 -0.5011  0.4125  0.1375
   55CHL1  H11A 4031   2.420   5.319   7.516  0.8036  0.5656 -1.3591
   55CHL1  H11B 4032   2.301   5.424   7.436  1.1469 -0.5292 -2.1840
   55CHL1    C9 4033   2.495   5.510   7.426  0.4007  0.6164  1.0076
   55CHL1    H9 4034   2.434   5.601   7.409  0.0266  0.6838  2.6705
   55CHL1   C10 4035   2.525   5.457   7.287  0.0595 -0.2003  0.2147
   55CHL1   C19 4036   2.561   5.304   7.295  0.0939  0.0335  0.3878
   55CHL1  H19A 4037   2.483   5.236   7.335 -0.7043  0.5288 -0.2978
   55CHL1  H19B 4038   2.569   5.269   7.190 -1.1985  0.0569  0.2692
   55CHL1  H19C 4039   2.654   5.296   7.356 -0.3707  1.3380  1.2917
   55CHL1    C1 4040   2.405   5.487   7.183  0.8135 -0.1390 -0.8716
   55CHL1   H1A 4041   2.328   5.417   7.224  0.1826  1.8866  1.4570
   55CHL1   H1B 4042   2.381   5.593   7.203 -1.0326 -0.6821 -0.0342
   55CHL1    C2 4043   2.427   5.459   7.036  0.1568  0.1410 -0.0551
   55CHL1   H2A 4044   2.344   5.500   6.974 -0.0896  1.4093  1.0776
   55CHL1   H2B 4045   2.427   5.350   7.017 -0.4530 -0.0643  1.0732
   55CHL1   C20 4046   2.412   5.544   7.985 -0.2862  0.0109  0.4199
   55CHL1   H20 4047   2.471   5.458   8.022  2.7101  1.4788 -0.7986
   55CHL1   C21 4048   2.273   5.488   7.958  0.3904  0.2406 -0.0498
   55CHL1  H21A 4049   2.213   5.466   8.049 -0.7674 -2.1839 -1.3600
   55CHL1  H21B 4050   2.279   5.392   7.904  1.5344  0.2589  0.0436
   55CHL1  H21C 4051   2.219   5.560   7.893  1.8132  3.3063  2.0177
   55CHL1   C22 4052   2.413   5.662   8.089 -0.5268 -0.4502 -0.5583
   55CHL1  H22A 4053   2.517   5.687   8.118 -0.7045 -1.4096  0.9312
   55CHL1  H22B 4054   2.370   5.752   8.039 -1.4012 -0.9359 -0.7012
   55CHL1   C23 4055   2.328   5.634   8.211  0.8104  0.3005 -0.0033
   55CHL1  H23A 4056   2.227   5.592   8.192  0.5790  1.0041 -0.3422
   55CHL1  H23B 4057   2.388   5.554   8.260 -0.3224 -0.6344 -0.1350
   55CHL1   C24 4058   2.320   5.754   8.313 -0.3100  0.0673  0.3049
   55CHL1  H24A 4059   2.292   5.690   8.400 -2.2709 -0.2774 -0.5548
   55CHL1  H24B 4060   2.418   5.804   8.327 -1.3625  2.1846  0.1991
   55CHL1   C25 4061   2.213   5.854   8.295  0.0457 -0.1343  0.2276
   55CHL1   H25 4062   2.214   5.902   8.195 -2.7993 -1.8714 -0.6866
   55CHL1   C26 4063   2.066   5.796   8.309  0.0978  0.3275 -0.1555
   55CHL1  H26A 4064   2.052   5.750   8.409 -2.2003 -0.4512 -0.7974
   55CHL1  H26B 4065   1.994   5.881   8.301  0.6542  0.9275  1.1662
   55CHL1  H26C 4066   2.052   5.719   8.230  0.3455  0.4854 -0.3520
   55CHL1   C27 4067   2.220   5.966   8.400  0.1492 -0.3912 -0.0478
   55CHL1  H27A 4068   2.301   6.040   8.382 -0.8329  0.5879 -0.4486
   55CHL1  H27B 4069   2.129   6.029   8.406  0.6819  0.5535 -1.5632
   55CHL1  H27C 4070   2.237   5.922   8.501  1.0197 -1.3376 -0.5986
   56CHL1    C3 4071   2.479   3.313   7.022 -0.1202 -0.0875  0.0869
   56CHL1    H3 4072   2.453   3.209   7.053 -0.7996 -0.1820 -0.7753
   56CHL1    O3 4073   2.569   3.304   6.913  0.3878  0.5461  0.4327
   56CHL1   H3' 4074   2.657   3.280   6.942  0.7923  1.7939  0.2839
   56CHL1    C4 4075   2.346   3.380   6.996  0.5654  0.1736 -0.0188
   56CHL1   H4A 4076   2.363   3.488   6.974  0.9089  0.1415  0.0971
   56CHL1   H4B 4077   2.298   3.338   6.905  0.9738  0.7715 -0.5159
   56CHL1    C5 4078   2.251   3.368   7.116  0.2217  0.0348  0.4233
   56CHL1    C6 4079   2.130   3.323   7.117  0.4525 -0.4472  0.3423
   56CHL1    H6 4080   2.096   3.281   7.021  1.3175 -1.2768  0.3927
   56CHL1    C7 4081   2.031   3.322   7.227  0.1554 -0.6656  0.3372
   56CHL1   H7A 4082   1.937   3.367   7.188 -0.3128 -1.7337  0.1972
   56CHL1   H7B 4083   2.007   3.216   7.251  2.7348 -1.2102  0.6599
   56CHL1    C8 4084   2.083   3.398   7.356  0.0098 -0.2255  0.7123
   56CHL1    H8 4085   2.058   3.505   7.343 -0.3480 -0.1741  1.7540
   56CHL1   C14 4086   2.014   3.331   7.471 -0.0394  0.5610 -0.6152
   56CHL1   H14 4087   2.049   3.226   7.472 -2.8697 -0.4472 -2.6117
   56CHL1   C15 4088   1.860   3.319   7.480 -0.4138  0.2061 -0.0685
   56CHL1  H15A 4089   1.822   3.419   7.448  2.6402  1.8687  1.2054
   56CHL1  H15B 4090   1.821   3.243   7.409  0.4629 -0.1500 -0.1856
   56CHL1   C16 4091   1.830   3.290   7.632 -0.4638 -0.4789 -0.0580
   56CHL1  H16A 4092   1.751   3.358   7.671 -0.3461 -1.5997  2.2198
   56CHL1  H16B 4093   1.787   3.189   7.646 -0.2517 -0.9317 -2.3954
   56CHL1   C17 4094   1.970   3.299   7.704  0.4215 -0.1128 -0.2663
   56CHL1   H17 4095   2.006   3.195   7.691 -2.2699 -0.9741 -1.2307
   56CHL1   C13 4096   2.055   3.387   7.608  0.0065 -0.4807  0.0285
   56CHL1   C18 4097   2.023   3.543   7.626  0.5281  0.1174  0.3237
   56CHL1  H18A 4098   2.077   3.585   7.713 -0.6027 -0.6498  1.4188
   56CHL1  H18B 4099   2.061   3.600   7.539 -0.0693 -2.1358 -1.4630
   56CHL1  H18C 4100   1.912   3.546   7.637  0.4238 -0.2933 -0.5414
   56CHL1   C12 4101   2.208   3.369   7.627  0.2411  0.2087 -0.1658
   56CHL1  H12A 4102   2.235   3.424   7.720  1.3064  0.7547 -0.7819
   56CHL1  H12B 4103   2.232   3.261   7.632  4.2970  1.0519  1.0970
   56CHL1   C11 4104   2.287   3.422   7.505 -0.3807 -0.0885  0.6132
   56CHL1  H11A 4105   2.272   3.532   7.496 -2.8008 -0.3241  1.2727
   56CHL1  H11B 4106   2.396   3.404   7.514 -0.3980 -0.8940 -0.5824
   56CHL1    C9 4107   2.231   3.375   7.366  0.6492 -0.3544 -0.1810
   56CHL1    H9 4108   2.246   3.265   7.371  2.1963 -0.1225  0.3732
   56CHL1   C10 4109   2.314   3.434   7.246  0.7594  0.4843  0.0599
   56CHL1   C19 4110   2.313   3.584   7.238 -0.6627 -0.6190  1.0627
   56CHL1  H19A 4111   2.212   3.615   7.202 -1.2418 -1.8684  1.5613
   56CHL1  H19B 4112   2.343   3.635   7.331 -0.0437  2.0664 -0.5513
   56CHL1  H19C 4113   2.387   3.617   7.162 -0.6928 -1.5279  0.6337
   56CHL1    C1 4114   2.468   3.388   7.267  0.5770 -0.3638  0.3576
   56CHL1   H1A 4115   2.515   3.457   7.340 -1.8516  1.7477  0.0118
   56CHL1   H1B 4116   2.463   3.284   7.307  1.4720 -0.3241  0.5824
   56CHL1    C2 4117   2.552   3.383   7.136  0.6908  0.5299  0.3350
   56CHL1   H2A 4118   2.644   3.327   7.163  0.6262 -0.3589 -1.2138
   56CHL1   H2B 4119   2.571   3.489   7.112 -0.9948  0.5258 -1.0653
   56CHL1   C20 4120   1.953   3.328   7.859  0.2230  0.3479  0.7036
   56CHL1   H20 4121   1.910   3.429   7.874  0.7194  0.7488 -0.5014
   56CHL1   C21 4122   2.085   3.302   7.935  0.7220 -0.0780  1.0604
   56CHL1  H21A 4123   2.126   3.201   7.912 -0.0860  0.4300 -3.0127
   56CHL1  H21B 4124   2.076   3.314   8.045  2.3558 -0.0574  1.2108
   56CHL1  H21C 4125   2.168   3.367   7.898 -0.7727 -0.0851 -2.5313
   56CHL1   C22 4126   1.853   3.216   7.917  0.0091  0.1789 -0.0079
   56CHL1  H22A 4127   1.764   3.231   7.852 -0.0735 -0.0840  0.0437
   56CHL1  H22B 4128   1.896   3.115   7.904 -0.3343  0.0217  0.0807
   56CHL1   C23 4129   1.813   3.244   8.064  0.2870  0.0653 -0.4288
   56CHL1  H23A 4130   1.749   3.158   8.095  2.2491 -0.8129  1.3196
   56CHL1  H23B 4131   1.896   3.234   8.137 -0.0214  1.6361  0.1656
   56CHL1   C24 4132   1.744   3.372   8.087  0.4296 -0.1960  0.4268
   56CHL1  H24A 4133   1.817   3.455   8.088  0.2961 -0.0439 -1.0016
   56CHL1  H24B 4134   1.678   3.394   8.000  1.3436  1.4803  0.1547
   56CHL1   C25 4135   1.649   3.390   8.206  0.1607 -0.5446  0.3917
   56CHL1   H25 4136   1.576   3.306   8.205  1.0291 -1.2895 -0.7315
   56CHL1   C26 4137   1.723   3.385   8.335  0.2634 -0.6141  0.3670
   56CHL1  H26A 4138   1.662   3.352   8.422  0.5270 -4.2165 -0.7386
   56CHL1  H26B 4139   1.760   3.485   8.368  2.3236 -1.0152 -0.6408
   56CHL1  H26C 4140   1.814   3.323   8.334  2.4274  2.4264  1.0145
   56CHL1   C27 4141   1.584   3.531   8.186 -0.7695 -0.1121  0.0503
   56CHL1  H27A 4142   1.502   3.550   8.258 -0.0888  0.0643  0.7841
   56CHL1  H27B 4143   1.661   3.612   8.178 -0.3048 -0.6605 -1.2157
   56CHL1  H27C 4144   1.544   3.528   8.082  3.2395  0.7811 -1.6588
   57SAPC     N 4145   1.806   5.626  11.000  0.2290  0.5006 -0.9133
   57SAPC   C12 4146   1.778   5.761  10.931 -0.2525  0.0446 -0.1011
   57SAPC  H12A 4147   1.706   5.813  10.992  0.1289 -2.1164  2.2704
   57SAPC  H12B 4148   1.719   5.750  10.841 -0.0307  1.5525 -0.4458
   57SAPC   C13 4149   1.674   5.563  11.013 -0.2341 -0.0665 -0.3466
   57SAPC  H13A 4150   1.638   5.533  10.915 -0.8143 -1.3356  0.2430
   57SAPC  H13B 4151   1.674   5.473  11.072 -2.1663  0.0188 -0.1841
   57SAPC  H13C 4152   1.605   5.633  11.058  2.5124  2.1542  0.5140
   57SAPC   C14 4153   1.902   5.548  10.911 -0.0004 -0.4299  0.1352
   57SAPC  H14A 4154   1.868   5.541  10.809 -1.6913 -2.1906  0.8064
   57SAPC  H14B 4155   1.995   5.603  10.907 -1.3141  1.8022 -1.2862
   57SAPC  H14C 4156   1.912   5.443  10.934  1.3951 -0.0713  1.2476
   57SAPC   C15 4157   1.870   5.641  11.136 -0.8518  0.8037 -0.0561
   57SAPC  H15A 4158   1.813   5.707  11.199 -0.1878 -0.7498  2.2308
   57SAPC  H15B 4159   1.875   5.545  11.184 -1.6502 -0.4650 -2.4283
   57SAPC  H15C 4160   1.961   5.696  11.119  1.3141 -2.2054  1.4357
   57SAPC   C11 4161   1.895   5.871  10.922 -0.3728  0.0922  0.8309
   57SAPC  H11A 4162   1.915   5.891  11.030 -1.4274  0.7431  0.9098
   57SAPC  H11B 4163   1.849   5.958  10.870 -2.7157 -2.1785 -0.9949
   57SAPC     P 4164   2.085   5.913  10.746  0.5336  0.0420  0.3212
   57SAPC   O13 4165   2.225   5.874  10.757  0.4994  0.3212 -0.2772
   57SAPC   O14 4166   2.022   5.887  10.617 -0.7017 -0.0305 -0.4267
   57SAPC   O12 4167   2.009   5.819  10.853 -0.2796  0.2962 -0.4457
   57SAPC   O11 4168   2.068   6.059  10.799 -0.2495 -0.0326 -0.4222
   57SAPC    C1 4169   2.153   6.167  10.756  0.4297 -0.0519 -0.5438
   57SAPC    HA 4170   2.141   6.257  10.820 -2.4395 -2.1537  2.0280
   57SAPC    HB 4171   2.259   6.135  10.770 -0.3765 -2.1182  1.1609
   57SAPC    C2 4172   2.119   6.213  10.606 -0.3236  0.7645 -0.5132
   57SAPC    HS 4173   2.009   6.226  10.597 -0.3089  1.1739 -0.1123
   57SAPC   O21 4174   2.180   6.116  10.512 -0.0941 -0.0688 -0.1640
   57SAPC   C21 4175   2.126   6.122  10.385  0.2616  0.2672 -0.4994
   57SAPC   O22 4176   2.019   6.179  10.361 -0.1776  0.2490  0.5985
   57SAPC   C22 4177   2.198   6.022  10.293 -0.1347 -0.8661  0.4844
   57SAPC   H2R 4178   2.184   5.921  10.336 -3.9442 -0.3128  0.6575
   57SAPC   H2S 4179   2.156   6.017  10.190 -0.0522 -1.1900  0.4697
   57SAPC    C3 4180   2.177   6.353  10.580 -0.0833  0.7994  1.3082
   57SAPC    HX 4181   2.288   6.346  10.578 -0.0824  0.5740  2.1981
   57SAPC    HY 4182   2.172   6.412  10.674  2.3883  1.0682  1.2918
   57SAPC   O31 4183   2.127   6.420  10.462  0.4419  0.1146 -0.7927
   57SAPC   C31 4184   2.015   6.483  10.475 -0.7496  0.1609 -0.0232
   57SAPC   O32 4185   1.952   6.492  10.586  0.0956  0.1474 -0.4652
   57SAPC   C32 4186   1.973   6.535  10.346 -0.9155 -0.0446 -0.6382
   57SAPC   H2X 4187   2.050   6.520  10.267 -0.8028 -0.1649 -0.5065
   57SAPC   H2Y 4188   1.936   6.639  10.345 -0.1149  0.2531  0.3300
   57SAPC   C23 4189   2.356   6.038  10.274  0.7268 -0.1576 -0.5700
   57SAPC   H3R 4190   2.396   5.944  10.230 -1.4013 -0.9452 -0.8807
   57SAPC   H3S 4191   2.409   6.054  10.371  0.9906 -0.8554 -0.5936
   57SAPC   C24 4192   2.386   6.151  10.174 -0.9403 -0.5493 -0.5194
   57SAPC   H4R 4193   2.303   6.144  10.101 -0.9953 -1.4221 -0.3899
   57SAPC   H4S 4194   2.477   6.139  10.111  0.2646  3.0254  0.4478
   57SAPC   C25 4195   2.392   6.282  10.254 -0.3167 -0.4434  0.2294
   57SAPC   H5R 4196   2.469   6.290  10.332  0.0966  0.7855 -0.2935
   57SAPC   C26 4197   2.330   6.395  10.214  0.1123  0.3807  0.2027
   57SAPC   H6R 4198   2.332   6.480  10.284  1.5505 -0.6400  1.4335
   57SAPC   C27 4199   2.245   6.400  10.087 -0.1467 -0.1132 -0.0742
   57SAPC   H7R 4200   2.301   6.370   9.996  3.0027  1.6064  1.2137
   57SAPC   H7S 4201   2.241   6.511  10.076 -3.2168 -0.4387 -3.3581
   57SAPC   C28 4202   2.112   6.339  10.080 -0.1725  0.8585  0.3715
   57SAPC   H8R 4203   2.078   6.282  10.168 -0.6228 -0.6394 -0.7498
   57SAPC   C29 4204   2.034   6.313   9.976 -0.4794 -0.4985 -0.5304
   57SAPC   H9R 4205   1.938   6.261   9.985 -0.3159 -0.8352 -0.7310
   57SAPC  C210 4206   2.054   6.353   9.837 -0.4115 -0.1067  0.1336
   57SAPC  H10R 4207   2.087   6.263   9.781  1.8695  0.3625  0.6733
   57SAPC  H10S 4208   2.133   6.430   9.834  0.4423 -0.9723  0.2834
   57SAPC  C211 4209   1.943   6.418   9.768 -0.2003  0.1345  0.6981
   57SAPC  H11R 4210   1.964   6.526   9.760  0.9204 -0.1126  0.2485
   57SAPC  C212 4211   1.825   6.374   9.724  0.4789  0.3717 -0.1471
   57SAPC  H12R 4212   1.769   6.446   9.663 -0.8251  0.3740  1.0235
   57SAPC  C213 4213   1.768   6.238   9.725  0.4467  0.6599  0.3098
   57SAPC  H13R 4214   1.862   6.181   9.741 -0.6075 -1.0364  0.4454
   57SAPC  H13S 4215   1.722   6.206   9.629 -1.8101  0.4986  1.4135
   57SAPC  C214 4216   1.659   6.212   9.829 -0.4885  0.0700  0.1623
   57SAPC  H14R 4217   1.575   6.283   9.838  0.1441  0.8035  0.3473
   57SAPC  C215 4218   1.662   6.116   9.922 -0.3405  0.8138 -0.1538
   57SAPC  H15R 4219   1.587   6.117  10.003 -0.1211  1.4993  0.0462
   57SAPC  C216 4220   1.761   6.007   9.944 -0.5122 -0.2713 -0.8105
   57SAPC  H16R 4221   1.851   6.036   9.886  1.0439 -1.8572  0.7567
   57SAPC  H16S 4222   1.732   5.904   9.913  0.0374 -0.5502 -0.4016
   57SAPC  C217 4223   1.810   5.991  10.092  0.1713 -0.2681 -0.2297
   57SAPC  H17R 4224   1.725   5.976  10.161 -1.9453  2.2894 -2.1500
   57SAPC  H17S 4225   1.852   6.089  10.126 -0.5197 -0.2838  0.6747
   57SAPC  C218 4226   1.917   5.882  10.117  0.3611 -1.1075  0.0427
   57SAPC  H18R 4227   1.864   5.786  10.132 -2.1218  0.0207 -1.1697
   57SAPC  H18S 4228   1.961   5.900  10.217 -0.9650  2.4753  0.0581
   57SAPC  C219 4229   2.022   5.863  10.016  0.2144 -0.2664  0.3479
   57SAPC  H19R 4230   2.070   5.962   9.997  0.8399 -1.0058 -2.1128
   57SAPC  H19S 4231   1.990   5.826   9.916  1.5894  1.5021 -0.7836
   57SAPC  C220 4232   2.129   5.759  10.041  0.7377  0.7587  0.2338
   57SAPC  H20R 4233   2.200   5.754   9.956 -1.5814 -2.9318 -1.5920
   57SAPC  H20S 4234   2.084   5.659  10.051 -1.8878  1.8061 -0.7192
   57SAPC  H20T 4235   2.180   5.782  10.137 -1.0481  0.8443  1.1874
   57SAPC   C33 4236   1.841   6.458  10.312  0.2483 -0.0432  0.8350
   57SAPC   H3X 4237   1.757   6.477  10.383 -0.2195 -0.1415  0.3092
   57SAPC   H3Y 4238   1.867   6.350  10.314  0.8786  0.0976 -0.0075
   57SAPC   C34 4239   1.773   6.500  10.179 -0.0521  0.2192 -0.1394
   57SAPC   H4X 4240   1.681   6.440  10.164 -0.5259  0.7720  0.5294
   57SAPC   H4Y 4241   1.843   6.476  10.097 -0.2415  0.0566 -0.2542
   57SAPC   C35 4242   1.740   6.653  10.178  0.1504  0.5386 -0.3330
   57SAPC   H5X 4243   1.840   6.701  10.178 -0.4006  1.7114  0.3133
   57SAPC   H5Y 4244   1.687   6.669  10.274 -1.6779 -2.4465 -0.7807
   57SAPC   C36 4245   1.661   6.695  10.055 -0.3265 -0.2501 -0.2952
   57SAPC   H6X 4246   1.633   6.801  10.065 -1.2968 -0.6157  0.9219
   57SAPC   H6Y 4247   1.564   6.641  10.049  0.2183 -1.2081 -0.6747
   57SAPC   C37 4248   1.746   6.686   9.928 -0.0857 -0.2247  0.1044
   57SAPC   H7X 4249   1.748   6.577   9.905 -0.4497  0.0818 -1.4548
   57SAPC   H7Y 4250   1.848   6.730   9.942 -0.0832 -0.0263 -0.5251
   57SAPC   C38 4251   1.684   6.763   9.812  0.3053  0.9192 -0.0323
   57SAPC   H8X 4252   1.655   6.868   9.832 -1.3587  0.2880  0.9618
   57SAPC   H8Y 4253   1.591   6.712   9.780  0.5152 -0.5384  1.5964
   57SAPC   C39 4254   1.777   6.766   9.690  0.6824  0.8274 -0.1204
   57SAPC   H9X 4255   1.806   6.667   9.647 -1.2017 -0.3171  1.2065
   57SAPC   H9Y 4256   1.877   6.813   9.706  0.7880  1.4181 -2.2941
   57SAPC  C310 4257   1.715   6.857   9.580  0.4068  0.1004 -0.0797
   57SAPC  H10X 4258   1.714   6.956   9.632 -0.9510 -0.0291  0.1514
   57SAPC  H10Y 4259   1.608   6.832   9.564  1.0171 -3.2979  0.9094
   57SAPC  C311 4260   1.796   6.878   9.453  0.5097 -0.5883  0.7789
   57SAPC  H11X 4261   1.790   6.779   9.404  0.1785 -0.6194  0.8818
   57SAPC  H11Y 4262   1.903   6.906   9.467  0.3234  0.1168  0.8119
   57SAPC  C312 4263   1.730   6.986   9.365 -0.3035  0.5503  0.4537
   57SAPC  H12X 4264   1.756   7.083   9.413 -0.8153  1.2275 -0.6226
   57SAPC  H12Y 4265   1.621   6.967   9.352 -0.1808 -2.5636  3.4144
   57SAPC  C313 4266   1.784   6.984   9.219 -0.3370 -0.5118  0.0994
   57SAPC  H13X 4267   1.733   6.896   9.176 -2.4760  0.2973  0.9163
   57SAPC  H13Y 4268   1.894   6.966   9.215 -0.3124 -0.7337  1.6191
   57SAPC  C314 4269   1.738   7.101   9.131  0.5691  0.0339 -0.0114
   57SAPC  H14X 4270   1.714   7.191   9.191 -0.2510 -0.9354  1.1459
   57SAPC  H14Y 4271   1.648   7.079   9.069  0.8394  0.5487 -0.5959
   57SAPC  C315 4272   1.857   7.154   9.033  0.8817 -0.1867 -0.6667
   57SAPC  H15X 4273   1.876   7.071   8.963  2.3912 -1.5533  1.3016
   57SAPC  H15Y 4274   1.951   7.165   9.090  1.1978 -1.3469 -0.9503
   57SAPC  C316 4275   1.837   7.288   8.960  1.0870  0.5762 -0.0135
   57SAPC  H16X 4276   1.841   7.369   9.036 -0.7468  0.8817 -0.2173
   57SAPC  H16Y 4277   1.732   7.293   8.923  0.6015  0.3342  1.2901
   57SAPC  C317 4278   1.939   7.320   8.843  0.2786 -0.6732 -0.7064
   57SAPC  H17X 4279   1.915   7.419   8.798  1.7240 -0.0747 -0.1659
   57SAPC  H17Y 4280   1.923   7.240   8.767  2.8635 -2.4157  0.5049
   57SAPC  C318 4281   2.089   7.306   8.874  0.7423  0.4068 -0.7430
   57SAPC  H18X 4282   2.162   7.330   8.794  2.1029  1.7197  0.8727
   57SAPC  H18Y 4283   2.106   7.200   8.904 -2.8971  0.0042  0.0703
   57SAPC  H18Z 4284   2.118   7.374   8.956 -1.6888 -1.8144  2.0894
   58SAPC     N 4285   4.119   4.985  11.096  0.4828 -0.4656  0.3237
   58SAPC   C12 4286   4.192   4.886  11.000 -0.4680 -0.3174 -0.5144
   58SAPC  H12A 4287   4.133   4.795  10.993  0.0769 -0.7584  0.5000
   58SAPC  H12B 4288   4.290   4.866  11.041  0.7274  0.2653 -3.0118
   58SAPC   C13 4289   4.171   5.125  11.103  0.0031  0.0907 -0.9496
   58SAPC  H13A 4290   4.269   5.120  11.149 -1.3776 -1.9324  1.9565
   58SAPC  H13B 4291   4.182   5.168  11.005 -3.1816 -0.4876 -1.6165
   58SAPC  H13C 4292   4.108   5.194  11.157  2.6557  1.3475  0.6360
   58SAPC   C14 4293   3.978   5.007  11.049  0.3669 -0.6316  0.1572
   58SAPC  H14A 4294   3.976   5.060  10.955  1.3624  1.9478  1.5413
   58SAPC  H14B 4295   3.917   4.918  11.049  0.4392 -0.6786 -0.6296
   58SAPC  H14C 4296   3.920   5.061  11.122 -0.7464 -0.7358 -0.6460
   58SAPC   C15 4297   4.123   4.927  11.235  0.1865  0.2277  0.3675
   58SAPC  H15A 4298   4.099   4.997  11.314  0.3514 -0.4114  0.9948
   58SAPC  H15B 4299   4.049   4.848  11.242  0.6557 -0.2229  0.2700
   58SAPC  H15C 4300   4.218   4.878  11.249  0.3061  0.2853 -0.2417
   58SAPC   C11 4301   4.204   4.931  10.856  0.0867  0.8195 -0.2230
   58SAPC  H11A 4302   4.100   4.953  10.822 -1.3276 -1.5005  2.4338
   58SAPC  H11B 4303   4.241   4.850  10.790  0.5493  1.3834 -0.6715
   58SAPC     P 4304   4.439   5.042  10.820  0.0367 -0.6063  0.1740
   58SAPC   O13 4305   4.494   5.181  10.793  0.5062  0.4369  0.8230
   58SAPC   O14 4306   4.492   4.987  10.947 -0.0271 -0.1576  0.3279
   58SAPC   O12 4307   4.286   5.049  10.837 -0.1908  0.2200 -0.1623
   58SAPC   O11 4308   4.464   4.946  10.696  0.3979  0.1461 -0.3686
   58SAPC    C1 4309   4.398   4.969  10.569 -0.4279  0.1154 -0.3753
   58SAPC    HA 4310   4.289   4.987  10.578 -0.2093  1.2884  0.0901
   58SAPC    HB 4311   4.446   5.050  10.509  0.9439 -2.7418 -3.3199
   58SAPC    C2 4312   4.411   4.844  10.476  0.8645 -0.1169 -0.6221
   58SAPC    HS 4313   4.371   4.758  10.533 -2.4422  1.6578 -0.1129
   58SAPC   O21 4314   4.551   4.824  10.444  0.3281  0.0418  0.2652
   58SAPC   C21 4315   4.591   4.709  10.397 -0.1890  0.0996 -0.0043
   58SAPC   O22 4316   4.519   4.610  10.382 -0.5077  0.0521  0.2536
   58SAPC   C22 4317   4.739   4.712  10.362  0.3408 -1.1639  0.4274
   58SAPC   H2R 4318   4.765   4.799  10.300  2.6182 -1.7637  0.5173
   58SAPC   H2S 4319   4.790   4.724  10.460  0.9797  0.3119 -0.0837
   58SAPC    C3 4320   4.328   4.870  10.347  0.0490  0.2392  0.3570
   58SAPC    HX 4321   4.387   4.935  10.279 -0.6180 -1.4725 -1.9650
   58SAPC    HY 4322   4.227   4.909  10.372 -0.8327 -1.8917  0.2971
   58SAPC   O31 4323   4.292   4.744  10.278 -0.0800  0.3280 -0.3140
   58SAPC   C31 4324   4.198   4.667  10.328  1.5937 -0.2733  0.5216
   58SAPC   O32 4325   4.138   4.690  10.428 -0.0834  0.4953 -1.0282
   58SAPC   C32 4326   4.188   4.542  10.240 -0.3292  0.1738  0.2468
   58SAPC   H2X 4327   4.135   4.461  10.294  1.7828 -1.1862  0.3222
   58SAPC   H2Y 4328   4.289   4.510  10.209 -0.1532  1.6829 -0.7948
   58SAPC   C23 4329   4.800   4.589  10.298  0.9126  0.2238  1.0416
   58SAPC   H3R 4330   4.765   4.493  10.344 -0.2487 -0.0722 -0.3999
   58SAPC   H3S 4331   4.910   4.588  10.304  0.9040  0.7011  1.3500
   58SAPC   C24 4332   4.757   4.586  10.151 -0.3648  0.1885  0.1170
   58SAPC   H4R 4333   4.649   4.562  10.143 -0.3298  0.7896 -2.6366
   58SAPC   H4S 4334   4.807   4.495  10.112 -1.8639 -0.0615 -1.2703
   58SAPC   C25 4335   4.798   4.704  10.068 -0.6694 -0.5793 -1.0790
   58SAPC   H5R 4336   4.907   4.713  10.055 -0.6286 -2.0106 -1.7688
   58SAPC   C26 4337   4.727   4.796  10.004 -0.1822  0.3391  0.3426
   58SAPC   H6R 4338   4.763   4.882   9.946  1.0455 -1.0126 -0.9384
   58SAPC   C27 4339   4.577   4.811  10.008  0.2980 -0.0438 -0.1461
   58SAPC   H7R 4340   4.553   4.919   9.993 -0.4105  0.0277  1.4027
   58SAPC   H7S 4341   4.551   4.795  10.115 -1.5918 -0.3952 -0.6334
   58SAPC   C28 4342   4.501   4.723   9.915 -0.3483  0.4365 -0.1362
   58SAPC   H8R 4343   4.456   4.639   9.969  0.6134  0.2468  0.3863
   58SAPC   C29 4344   4.492   4.732   9.785  0.2842  0.0186 -0.0578
   58SAPC   H9R 4345   4.435   4.664   9.720  0.1010  1.0867 -1.0430
   58SAPC  C210 4346   4.549   4.838   9.703  0.5189 -0.6829  0.1541
   58SAPC  H10R 4347   4.594   4.921   9.763 -1.3590  1.0106 -0.7025
   58SAPC  H10S 4348   4.472   4.895   9.647  1.3959 -0.0854 -0.4530
   58SAPC  C211 4349   4.649   4.785   9.602  0.5828 -0.2111 -1.2562
   58SAPC  H11R 4350   4.736   4.740   9.651 -0.3073  0.7339  1.2955
   58SAPC  C212 4351   4.647   4.795   9.468 -0.9493 -0.0145 -0.6759
   58SAPC  H12R 4352   4.727   4.735   9.421 -1.8651 -1.3489 -0.5623
   58SAPC  C213 4353   4.547   4.861   9.383  0.6160 -0.1104 -0.2582
   58SAPC  H13R 4354   4.587   4.859   9.280  0.0049  2.8435 -0.5802
   58SAPC  H13S 4355   4.536   4.964   9.422  1.2159 -0.8009  1.8468
   58SAPC  C214 4356   4.424   4.774   9.388 -0.1706 -0.5208 -0.0025
   58SAPC  H14R 4357   4.422   4.680   9.447  1.6070 -0.1121  0.7459
   58SAPC  C215 4358   4.322   4.793   9.305  0.0083  0.2224 -0.0008
   58SAPC  H15R 4359   4.235   4.727   9.314 -1.2684  2.0615  1.5651
   58SAPC  C216 4360   4.319   4.902   9.194 -0.2894  0.6334 -0.1767
   58SAPC  H16R 4361   4.393   4.982   9.213  0.9305 -0.5504  0.0865
   58SAPC  H16S 4362   4.215   4.943   9.199 -0.8315 -0.7175 -0.1271
   58SAPC  C217 4363   4.341   4.849   9.051 -0.5036  0.1753 -0.2912
   58SAPC  H17R 4364   4.272   4.765   9.028  2.6194 -2.7524  0.5232
   58SAPC  H17S 4365   4.442   4.801   9.050 -0.7911 -0.4430 -0.1750
   58SAPC  C218 4366   4.330   4.955   8.941  0.1284 -0.7103 -0.2674
   58SAPC  H18R 4367   4.426   5.011   8.934 -1.1300  1.8126  1.7945
   58SAPC  H18S 4368   4.243   5.018   8.969  0.1820 -1.2593  1.1735
   58SAPC  C219 4369   4.306   4.908   8.796 -0.0457  0.2647  0.5767
   58SAPC  H19R 4370   4.216   4.844   8.786  0.6728 -0.4875 -1.4524
   58SAPC  H19S 4371   4.391   4.839   8.776 -0.0464  0.2614  0.5869
   58SAPC  C220 4372   4.283   5.016   8.685 -0.2171  0.0523 -0.6039
   58SAPC  H20R 4373   4.377   5.075   8.692  0.6613 -0.8850 -3.5042
   58SAPC  H20S 4374   4.199   5.085   8.710 -1.6205 -1.2223 -1.6946
   58SAPC  H20T 4375   4.277   4.961   8.588  1.5855 -1.0308 -0.1325
   58SAPC   C33 4376   4.124   4.578  10.104  0.5747  0.0711 -0.4567
   58SAPC   H3X 4377   4.189   4.654  10.056  0.0569  0.6751 -0.2063
   58SAPC   H3Y 4378   4.022   4.622  10.111  0.1155 -1.1046  0.4184
   58SAPC   C34 4379   4.104   4.447  10.016  0.6352  0.3960 -0.1328
   58SAPC   H4X 4380   4.001   4.441   9.975  0.8986 -0.6503 -0.6478
   58SAPC   H4Y 4381   4.119   4.360  10.084 -0.8023  0.2716  0.0475
   58SAPC   C35 4382   4.201   4.446   9.900  1.0523  0.3717 -0.3988
   58SAPC   H5X 4383   4.301   4.457   9.947  0.3851 -0.0173  1.1249
   58SAPC   H5Y 4384   4.180   4.534   9.835  1.7328 -0.1848 -1.3865
   58SAPC   C36 4385   4.201   4.307   9.830 -0.6534 -0.6176  0.5691
   58SAPC   H6X 4386   4.099   4.265   9.822 -0.2349 -1.6648  0.6540
   58SAPC   H6Y 4387   4.258   4.234   9.892  1.1624 -1.0796 -1.5782
   58SAPC   C37 4388   4.244   4.297   9.681  0.5794 -0.9802  0.1199
   58SAPC   H7X 4389   4.258   4.189   9.656  0.3760 -0.8665 -0.4922
   58SAPC   H7Y 4390   4.342   4.350   9.676 -0.5566  0.9006 -4.0720
   58SAPC   C38 4391   4.155   4.366   9.584 -0.2437 -0.3127 -0.0505
   58SAPC   H8X 4392   4.156   4.475   9.604 -1.7815 -0.3762  0.4012
   58SAPC   H8Y 4393   4.049   4.334   9.595  0.0199 -1.4818 -0.7993
   58SAPC   C39 4394   4.191   4.358   9.435 -0.2238 -0.3068  0.7208
   58SAPC   H9X 4395   4.201   4.253   9.399 -1.0243 -0.5590  1.2188
   58SAPC   H9Y 4396   4.292   4.400   9.418  0.0809 -1.0907  0.5715
   58SAPC  C310 4397   4.100   4.442   9.351 -0.2933 -0.1365  0.0362
   58SAPC  H10X 4398   4.123   4.545   9.385 -1.1348 -0.0475  0.3410
   58SAPC  H10Y 4399   3.992   4.419   9.364 -0.6373  0.7789 -1.0881
   58SAPC  C311 4400   4.146   4.438   9.210  0.2296 -0.7496  0.5150
   58SAPC  H11X 4401   4.257   4.437   9.212  0.2686  0.2664 -0.6306
   58SAPC  H11Y 4402   4.102   4.527   9.160 -1.4713 -1.7042  0.2741
   58SAPC  C312 4403   4.094   4.310   9.149 -0.1597 -0.4687 -0.2209
   58SAPC  H12X 4404   3.983   4.309   9.137 -0.0353  0.0669 -1.4820
   58SAPC  H12Y 4405   4.121   4.217   9.205  2.4770  1.1482  1.2873
   58SAPC  C313 4406   4.147   4.273   9.008 -0.2597  0.0156  0.3103
   58SAPC  H13X 4407   4.102   4.175   8.982  2.4671 -0.9948 -0.8263
   58SAPC  H13Y 4408   4.251   4.249   9.042  0.5655 -1.4597 -3.0354
   58SAPC  C314 4409   4.144   4.375   8.893 -0.8264 -0.3054 -0.3352
   58SAPC  H14X 4410   4.210   4.456   8.930  0.4734 -0.9374 -1.2521
   58SAPC  H14Y 4411   4.045   4.426   8.889 -0.9810 -0.6573 -1.0385
   58SAPC  C315 4412   4.195   4.334   8.753 -0.1753 -0.0912 -0.0009
   58SAPC  H15X 4413   4.157   4.232   8.732 -2.4284  0.0237  3.1192
   58SAPC  H15Y 4414   4.305   4.327   8.756 -0.0229  2.3355  1.5280
   58SAPC  C316 4415   4.166   4.427   8.629 -0.0362 -0.1959 -0.4210
   58SAPC  H16X 4416   4.058   4.433   8.605  0.2704  1.7322 -1.4824
   58SAPC  H16Y 4417   4.215   4.393   8.535 -1.6296 -3.7288 -0.0534
   58SAPC  C317 4418   4.215   4.575   8.651  0.8232 -0.2717  0.5125
   58SAPC  H17X 4419   4.325   4.563   8.667  0.6248  0.8328  2.9449
   58SAPC  H17Y 4420   4.174   4.613   8.747 -0.3328  0.1366 -0.1327
   58SAPC  C318 4421   4.181   4.660   8.535 -0.2495  0.2140  0.7502
   58SAPC  H18X 4422   4.208   4.765   8.561 -2.2750  1.7859 -3.1840
   58SAPC  H18Y 4423   4.072   4.675   8.525 -0.5042 -2.4583 -0.7145
   58SAPC  H18Z 4424   4.231   4.631   8.441 -0.6250  1.6769  0.0878
   59SAPC     N 4425   6.231   5.991  11.236 -0.1039 -0.4143 -0.0087
   59SAPC   C12 4426   6.162   6.095  11.153  0.5820  0.2519 -0.3677
   59SAPC  H12A 4427   6.222   6.171  11.105 -2.2503  4.2141  2.0513
   59SAPC  H12B 4428   6.105   6.159  11.218 -0.0164  0.3402 -0.9672
   59SAPC   C13 4429   6.294   6.054  11.354  0.5617 -0.5647 -0.5725
   59SAPC  H13A 4430   6.368   6.132  11.343 -0.2853  0.7939  2.7584
   59SAPC  H13B 4431   6.213   6.080  11.421 -0.7482  0.7070 -2.6014
   59SAPC  H13C 4432   6.336   5.975  11.414 -0.4899 -1.9203 -1.5753
   59SAPC   C14 4433   6.133   5.895  11.289 -0.2522 -0.7872 -0.3755
   59SAPC  H14A 4434   6.087   5.854  11.201  0.6994  0.7740 -1.6145
   59SAPC  H14B 4435   6.182   5.811  11.336 -1.1315 -1.1028 -0.0010
   59SAPC  H14C 4436   6.062   5.942  11.356  2.2077  0.6762  1.3019
   59SAPC   C15 4437   6.344   5.926  11.169  0.3181 -0.6779  0.5816
   59SAPC  H15A 4438   6.365   5.828  11.208 -2.6659 -1.4277  0.4573
   59SAPC  H15B 4439   6.326   5.919  11.063 -0.3650  1.8019  0.4909
   59SAPC  H15C 4440   6.426   5.996  11.167 -0.0964 -0.2152 -1.2769
   59SAPC   C11 4441   6.060   6.052  11.041  0.3406 -0.2775  0.2196
   59SAPC  H11A 4442   6.099   5.965  10.984  2.4362  0.8674 -0.1682
   59SAPC  H11B 4443   6.050   6.137  10.970  2.0783 -0.1115  0.1591
   59SAPC     P 4444   5.842   6.113  11.167 -0.2003 -0.0307  0.0081
   59SAPC   O13 4445   5.717   6.047  11.202 -0.4404  0.2138 -0.6334
   59SAPC   O14 4446   5.910   6.193  11.270  0.2833  0.0381 -0.0575
   59SAPC   O12 4447   5.937   6.010  11.101  0.1256 -0.3694  0.6453
   59SAPC   O11 4448   5.828   6.204  11.040  1.0082  0.1063 -0.3791
   59SAPC    C1 4449   5.725   6.162  10.949 -0.0327  0.9057  0.0836
   59SAPC    HA 4450   5.644   6.101  10.994  0.6126 -0.6144 -0.7588
   59SAPC    HB 4451   5.673   6.246  10.898  1.8765  1.8054 -0.3944
   59SAPC    C2 4452   5.795   6.095  10.830  0.3721  0.2568 -0.6216
   59SAPC    HS 4453   5.870   6.020  10.863 -0.9586 -0.9758 -0.3246
   59SAPC   O21 4454   5.856   6.200  10.753 -0.1848 -0.3047  0.2338
   59SAPC   C21 4455   5.961   6.167  10.676 -0.2241  0.5379 -0.6123
   59SAPC   O22 4456   6.040   6.077  10.692  0.1540  0.2278  0.3499
   59SAPC   C22 4457   5.974   6.284  10.578 -0.2900 -0.8598  0.3193
   59SAPC   H2R 4458   5.872   6.305  10.540 -0.2590 -1.0790  0.1163
   59SAPC   H2S 4459   6.002   6.378  10.631 -5.9972  0.2124  1.8126
   59SAPC    C3 4460   5.692   6.024  10.740  0.5391  0.1536 -0.2539
   59SAPC    HX 4461   5.618   6.102  10.709  1.1190  1.1722  0.8691
   59SAPC    HY 4462   5.624   5.963  10.802  3.8238 -0.4679  2.8768
   59SAPC   O31 4463   5.733   5.963  10.621 -0.1122 -0.7675 -0.1322
   59SAPC   C31 4464   5.785   5.842  10.635  0.0457  0.1094 -0.1078
   59SAPC   O32 4465   5.780   5.779  10.740  0.0755 -0.1740 -0.4368
   59SAPC   C32 4466   5.863   5.793  10.517 -0.0289 -0.0472 -0.6418
   59SAPC   H2X 4467   5.872   5.682  10.516 -0.9776 -0.1277 -0.7223
   59SAPC   H2Y 4468   5.967   5.832  10.519 -0.2029  0.3581  2.0930
   59SAPC   C23 4469   6.078   6.246  10.466  0.5726 -0.6950 -0.0075
   59SAPC   H3R 4470   6.169   6.206  10.516  1.3291 -2.2496 -2.5273
   59SAPC   H3S 4471   6.098   6.335  10.403  0.4748 -0.2490  0.5793
   59SAPC   C24 4472   6.025   6.144  10.372 -0.0869 -0.0517  0.1259
   59SAPC   H4R 4473   5.924   6.173  10.337  0.6712  1.7391 -0.6412
   59SAPC   H4S 4474   6.017   6.049  10.429 -0.4902  0.8009  1.5021
   59SAPC   C25 4475   6.120   6.121  10.259 -0.0434  0.7883  0.0391
   59SAPC   H5R 4476   6.222   6.091  10.288 -0.2944  0.0203  0.1471
   59SAPC   C26 4477   6.093   6.132  10.127  0.4655  0.1041 -0.5902
   59SAPC   H6R 4478   6.166   6.104  10.050  1.2910 -2.3874  1.0280
   59SAPC   C27 4479   5.962   6.157  10.061 -0.0954 -0.1551 -0.1538
   59SAPC   H7R 4480   5.881   6.171  10.136  1.2016  1.4294  0.9709
   59SAPC   H7S 4481   5.936   6.072   9.994  0.9219  0.1016 -0.8792
   59SAPC   C28 4482   5.962   6.285   9.979  0.0029 -0.0298  0.2871
   59SAPC   H8R 4483   5.954   6.373  10.045  0.0860 -0.3140  0.6779
   59SAPC   C29 4484   5.983   6.304   9.845 -0.5083  0.6310  0.6280
   59SAPC   H9R 4485   5.970   6.404   9.800 -0.0524  0.9213  1.1264
   59SAPC  C210 4486   6.004   6.192   9.739  0.1343 -0.5471  0.3307
   59SAPC  H10R 4487   5.911   6.189   9.679  0.9243  0.4642 -1.0026
   59SAPC  H10S 4488   6.019   6.096   9.792  1.2170 -1.1241 -1.0082
   59SAPC  C211 4489   6.132   6.223   9.650  0.3355  0.4220 -0.4156
   59SAPC  H11R 4490   6.223   6.260   9.699  0.9898  0.3718 -1.5818
   59SAPC  C212 4491   6.133   6.205   9.518 -0.3509 -0.5940 -0.2904
   59SAPC  H12R 4492   6.220   6.228   9.455 -0.5243  2.2392  0.4409
   59SAPC  C213 4493   6.026   6.146   9.428 -0.4034  0.3616  0.0279
   59SAPC  H13R 4494   5.997   6.214   9.345 -2.2894  0.1117  0.4580
   59SAPC  H13S 4495   5.939   6.128   9.493 -0.5313  0.0215 -0.2353
   59SAPC  C214 4496   6.058   6.006   9.366  0.0999  0.3281 -0.0498
   59SAPC  H14R 4497   6.134   5.949   9.420 -1.3226 -1.6685 -0.0990
   59SAPC  C215 4498   6.008   5.952   9.255  0.2808  0.3293  0.1718
   59SAPC  H15R 4499   6.039   5.847   9.242 -0.6844 -0.2196  2.0779
   59SAPC  C216 4500   5.904   6.009   9.163  0.1042  0.0521  0.0203
   59SAPC  H16R 4501   5.838   6.067   9.231  1.9650  0.1547  1.7770
   59SAPC  H16S 4502   5.847   5.923   9.122  0.2972 -0.2201  0.3203
   59SAPC  C217 4503   5.971   6.093   9.061  0.0940  0.4296  0.2050
   59SAPC  H17R 4504   6.050   6.161   9.099 -0.2180 -0.4219  2.4336
   59SAPC  H17S 4505   5.897   6.164   9.018  0.6719 -0.4102 -2.2885
   59SAPC  C218 4506   6.042   6.017   8.951  0.6055  0.0838 -0.0469
   59SAPC  H18R 4507   6.128   5.959   8.993  1.6001  0.5785 -1.3556
   59SAPC  H18S 4508   6.092   6.082   8.876 -0.1735 -0.8447 -1.4135
   59SAPC  C219 4509   5.952   5.936   8.853  0.0479 -0.8644 -0.2558
   59SAPC  H19R 4510   5.877   6.008   8.816 -0.6683 -0.5432  1.7845
   59SAPC  H19S 4511   5.899   5.856   8.909  0.6526 -2.2424 -1.5745
   59SAPC  C220 4512   6.025   5.880   8.734  0.6532  0.7463  0.3736
   59SAPC  H20R 4513   6.080   5.958   8.677  0.1446  0.2196 -0.8792
   59SAPC  H20S 4514   5.956   5.827   8.664  2.6992  0.0054 -1.1353
   59SAPC  H20T 4515   6.096   5.801   8.765  0.0787  0.9199  2.2099
   59SAPC   C33 4516   5.796   5.835  10.386 -0.5763  0.1062 -0.7731
   59SAPC   H3X 4517   5.786   5.945  10.391 -2.3366 -0.1065  0.5912
   59SAPC   H3Y 4518   5.696   5.789  10.377  0.2767 -1.5835 -2.0153
   59SAPC   C34 4519   5.881   5.771  10.271  0.2303  0.1815 -0.0113
   59SAPC   H4X 4520   5.871   5.661  10.275  2.2165 -0.0148 -0.1723
   59SAPC   H4Y 4521   5.984   5.805  10.297  0.4339 -1.3222  1.1817
   59SAPC   C35 4522   5.835   5.813  10.128  0.0652  0.7832 -0.3274
   59SAPC   H5X 4523   5.844   5.923  10.114 -0.5251  0.8867  0.0952
   59SAPC   H5Y 4524   5.728   5.805  10.101  0.2225  1.1017 -1.0558
   59SAPC   C36 4525   5.920   5.743  10.024  0.5027  0.4771 -0.7395
   59SAPC   H6X 4526   5.914   5.632  10.028 -4.7621  0.6879  0.7069
   59SAPC   H6Y 4527   6.025   5.780  10.033  1.0302 -1.1891  0.1205
   59SAPC   C37 4528   5.871   5.776   9.885 -0.1069 -0.2917 -0.0561
   59SAPC   H7X 4529   5.847   5.884   9.886  1.2844  0.0194  0.3719
   59SAPC   H7Y 4530   5.777   5.718   9.873  0.5687 -1.2680 -0.7570
   59SAPC   C38 4531   5.966   5.745   9.775 -0.5539 -0.5219 -0.0274
   59SAPC   H8X 4532   5.997   5.639   9.774  1.8475  0.1264  1.9406
   59SAPC   H8Y 4533   6.058   5.806   9.787 -1.5111  1.4090 -2.0968
   59SAPC   C39 4534   5.907   5.782   9.636 -0.3611  0.1056 -0.7808
   59SAPC   H9X 4535   5.992   5.799   9.567 -1.8482 -1.3706 -3.0562
   59SAPC   H9Y 4536   5.851   5.878   9.641  1.4137  1.2685 -2.6604
   59SAPC  C310 4537   5.814   5.668   9.582 -1.1295 -0.3068  0.3028
   59SAPC  H10X 4538   5.707   5.677   9.609 -1.2998 -2.0799  0.2836
   59SAPC  H10Y 4539   5.844   5.570   9.626  2.4553  0.3715 -0.5050
   59SAPC  C311 4540   5.832   5.664   9.430 -0.1119 -0.7521 -0.3461
   59SAPC  H11X 4541   5.942   5.655   9.418  0.0797 -0.0132  0.8299
   59SAPC  H11Y 4542   5.801   5.764   9.395 -1.4014 -0.8463  0.4995
   59SAPC  C312 4543   5.765   5.550   9.354  0.5556 -0.0263 -0.8185
   59SAPC  H12X 4544   5.659   5.579   9.340  1.0418  1.8439 -0.7522
   59SAPC  H12Y 4545   5.763   5.460   9.418 -0.5479  1.3145  1.1038
   59SAPC  C313 4546   5.830   5.538   9.217 -0.7251 -0.3273 -0.0820
   59SAPC  H13X 4547   5.938   5.522   9.232 -0.7164  1.0708  1.4908
   59SAPC  H13Y 4548   5.810   5.633   9.163  0.6282 -0.0696 -0.1391
   59SAPC  C314 4549   5.781   5.415   9.141 -0.0793  0.0813  0.7941
   59SAPC  H14X 4550   5.679   5.445   9.108 -0.1685 -0.6895  0.3715
   59SAPC  H14Y 4551   5.785   5.336   9.219  2.6466 -1.6431 -1.0291
   59SAPC  C315 4552   5.876   5.364   9.027  0.1992  0.1779  0.0846
   59SAPC  H15X 4553   5.846   5.264   8.988  0.6401  0.7834 -1.8456
   59SAPC  H15Y 4554   5.980   5.347   9.061  0.7561  0.6524 -1.3581
   59SAPC  C316 4555   5.863   5.448   8.904 -0.6534 -0.6592  0.7759
   59SAPC  H16X 4556   5.784   5.521   8.931 -0.0650 -0.1478  1.1629
   59SAPC  H16Y 4557   5.825   5.395   8.815  1.4036 -1.2918  0.2514
   59SAPC  C317 4558   5.991   5.528   8.870 -0.8128 -0.0958 -0.2444
   59SAPC  H17X 4559   6.019   5.584   8.962  1.2122  2.0024 -2.0493
   59SAPC  H17Y 4560   5.981   5.620   8.808  1.2428 -0.0785 -0.5787
   59SAPC  C318 4561   6.104   5.444   8.812  0.0158 -0.1519  0.1411
   59SAPC  H18X 4562   6.078   5.421   8.707 -1.1752 -0.1114  0.4126
   59SAPC  H18Y 4563   6.114   5.342   8.857 -3.0937 -0.1441  1.0000
   59SAPC  H18Z 4564   6.202   5.495   8.812 -0.4620  0.7870 -0.3631
   60SAPC     N 4565   0.708   4.011  10.822 -0.0738 -0.2291 -0.0192
   60SAPC   C12 4566   0.720   4.026  10.673 -0.0080  0.1213  0.6757
   60SAPC  H12A 4567   0.642   3.960  10.636  1.9989 -0.9782 -1.8229
   60SAPC  H12B 4568   0.821   4.006  10.642  0.5803  1.0340  1.9853
   60SAPC   C13 4569   0.762   3.877  10.860 -0.2428  0.8061 -0.2372
   60SAPC  H13A 4570   0.696   3.800  10.822 -1.4189  1.3554  0.6680
   60SAPC  H13B 4571   0.853   3.855  10.806 -0.0720 -0.6931  0.6071
   60SAPC  H13C 4572   0.774   3.867  10.967  2.0808 -2.8172 -0.7258
   60SAPC   C14 4573   0.792   4.113  10.901  0.9144  0.2100 -0.2065
   60SAPC  H14A 4574   0.894   4.083  10.916  0.1890 -3.4801 -2.0080
   60SAPC  H14B 4575   0.789   4.212  10.858 -1.7693  0.0853 -0.3895
   60SAPC  H14C 4576   0.751   4.116  11.002 -1.7011  0.1804 -1.2129
   60SAPC   C15 4577   0.570   4.033  10.875 -0.2280 -0.2765 -0.1265
   60SAPC  H15A 4578   0.564   4.007  10.980  1.5912  2.8335  0.8292
   60SAPC  H15B 4579   0.531   4.132  10.856  0.7900 -0.0466 -1.0522
   60SAPC  H15C 4580   0.501   3.964  10.831  0.0152 -0.5006 -0.1579
   60SAPC   C11 4581   0.688   4.154  10.596  0.0008 -0.3316  0.0254
   60SAPC  H11A 4582   0.589   4.198  10.621 -0.6352 -2.0232  0.6145
   60SAPC  H11B 4583   0.690   4.126  10.488 -0.1381 -0.9998  0.1928
   60SAPC     P 4584   0.936   4.246  10.576 -0.6721  0.0959  0.4891
   60SAPC   O13 4585   1.004   4.326  10.679 -0.2189 -0.1696 -0.2581
   60SAPC   O14 4586   0.974   4.111  10.553 -0.2478  0.1005 -0.3961
   60SAPC   O12 4587   0.785   4.254  10.620  0.1317 -0.0232  0.1724
   60SAPC   O11 4588   0.924   4.321  10.438 -0.2057  0.3967  0.0128
   60SAPC    C1 4589   0.889   4.459  10.433 -0.0238  0.2171  0.2273
   60SAPC    HA 4590   0.809   4.477  10.508 -0.4583  0.3442 -0.2670
   60SAPC    HB 4591   0.977   4.523  10.456 -1.7660  1.6224  3.1447
   60SAPC    C2 4592   0.828   4.488  10.294  0.1589 -0.4596  0.1180
   60SAPC    HS 4593   0.777   4.587  10.288 -1.2391 -1.2619 -1.9755
   60SAPC   O21 4594   0.740   4.377  10.262  0.1192 -0.9120  0.1052
   60SAPC   C21 4595   0.620   4.379  10.303  0.1951  0.5832  0.3074
   60SAPC   O22 4596   0.573   4.450  10.393  0.2070 -0.1743  0.2083
   60SAPC   C22 4597   0.548   4.261  10.233 -0.3335 -0.1447  0.0845
   60SAPC   H2R 4598   0.606   4.186  10.174 -0.2568  0.0272 -0.0592
   60SAPC   H2S 4599   0.494   4.211  10.316  1.6542 -0.7321  1.0430
   60SAPC    C3 4600   0.934   4.495  10.175 -0.5726 -0.8166  0.5039
   60SAPC    HX 4601   0.963   4.388  10.160  2.0765  0.1330 -1.3907
   60SAPC    HY 4602   1.028   4.551  10.196 -0.4462 -0.3945 -1.1079
   60SAPC   O31 4603   0.880   4.549  10.055  0.2637  0.5172  0.1367
   60SAPC   C31 4604   0.943   4.502   9.945 -0.1088 -0.4342 -0.6208
   60SAPC   O32 4605   1.018   4.410   9.945 -0.6075  0.7681  0.2390
   60SAPC   C32 4606   0.900   4.581   9.819 -0.3977 -0.4696  0.1282
   60SAPC   H2X 4607   0.901   4.690   9.838 -0.4003 -0.7218  1.6255
   60SAPC   H2Y 4608   0.792   4.571   9.793 -0.4740  0.0430  0.2447
   60SAPC   C23 4609   0.453   4.322  10.126 -0.1375  0.2237 -0.2406
   60SAPC   H3R 4610   0.511   4.358  10.039 -1.2017 -0.0922 -1.0850
   60SAPC   H3S 4611   0.409   4.410  10.179  0.0051 -0.4163  0.9529
   60SAPC   C24 4612   0.348   4.218  10.073  0.4151 -0.3881  0.0133
   60SAPC   H4R 4613   0.299   4.283   9.997 -1.9957 -1.6205  0.4646
   60SAPC   H4S 4614   0.273   4.206  10.155  0.6150 -0.1073  0.2392
   60SAPC   C25 4615   0.408   4.092  10.019  0.4135 -0.8448 -0.8774
   60SAPC   H5R 4616   0.436   4.023  10.100  0.4850  0.0281 -0.1401
   60SAPC   C26 4617   0.462   4.079   9.897  0.4958  0.8271  0.2136
   60SAPC   H6R 4618   0.510   3.982   9.875 -1.2787 -0.2647  0.9946
   60SAPC   C27 4619   0.478   4.193   9.793 -0.4605 -0.4519  0.6585
   60SAPC   H7R 4620   0.411   4.273   9.831  0.6191 -0.0336  1.7117
   60SAPC   H7S 4621   0.442   4.165   9.692  0.1512 -0.7597  0.5251
   60SAPC   C28 4622   0.626   4.228   9.796  0.4813  0.9596 -0.6278
   60SAPC   H8R 4623   0.657   4.274   9.891 -1.0615  2.8322 -0.9864
   60SAPC   C29 4624   0.718   4.217   9.696  0.8031  0.0112  0.1122
   60SAPC   H9R 4625   0.822   4.235   9.727  1.2305 -0.1255 -1.2138
   60SAPC  C210 4626   0.696   4.168   9.565 -0.2366  0.1259  0.2451
   60SAPC  H10R 4627   0.602   4.111   9.557  0.5600 -1.5129  2.1063
   60SAPC  H10S 4628   0.779   4.099   9.537 -0.8922 -0.8823  0.7616
   60SAPC  C211 4629   0.684   4.297   9.479 -0.1735 -0.3413 -0.3332
   60SAPC  H11R 4630   0.606   4.371   9.504  1.2668  0.7369  0.9935
   60SAPC  C212 4631   0.759   4.333   9.379  0.1658 -0.3258 -0.0102
   60SAPC  H12R 4632   0.746   4.429   9.326  0.1248  0.4873  1.4404
   60SAPC  C213 4633   0.868   4.248   9.314  0.7078 -0.2063  0.2811
   60SAPC  H13R 4634   0.820   4.221   9.217  0.6034  2.7884 -0.5492
   60SAPC  H13S 4635   0.895   4.158   9.374 -1.9219 -0.4908  1.0857
   60SAPC  C214 4636   0.988   4.333   9.289 -0.3702 -0.0701  0.1285
   60SAPC  H14R 4637   1.041   4.375   9.376  0.2611 -1.0892  0.2415
   60SAPC  C215 4638   1.029   4.382   9.165  0.9334  0.1877  0.5028
   60SAPC  H15R 4639   1.126   4.435   9.159  0.4268  1.0170 -0.4716
   60SAPC  C216 4640   0.962   4.359   9.027 -0.0179 -0.3772 -0.2367
   60SAPC  H16R 4641   0.892   4.444   9.008 -0.5024 -0.2264  2.0848
   60SAPC  H16S 4642   0.881   4.287   9.003 -1.5582  1.1958  0.1199
   60SAPC  C217 4643   1.061   4.344   8.912  0.1347 -0.5054  0.2201
   60SAPC  H17R 4644   1.114   4.247   8.902 -0.6460 -0.7432 -1.8962
   60SAPC  H17S 4645   1.139   4.423   8.917  0.9326 -1.3114  0.5416
   60SAPC  C218 4646   0.995   4.380   8.773  0.2333  0.1826 -0.1066
   60SAPC  H18R 4647   0.928   4.468   8.782 -2.9760 -2.1033 -1.0099
   60SAPC  H18S 4648   0.921   4.298   8.757  0.2492  0.5752 -2.3972
   60SAPC  C219 4649   1.098   4.387   8.665  0.0253 -0.8197  0.5909
   60SAPC  H19R 4650   1.038   4.375   8.573 -1.0042  1.5869  0.9089
   60SAPC  H19S 4651   1.178   4.310   8.670  0.9277 -0.0615 -1.6971
   60SAPC  C220 4652   1.175   4.519   8.644  0.2151  0.3818  0.2681
   60SAPC  H20R 4653   1.116   4.582   8.574  1.6305 -0.2246 -1.5221
   60SAPC  H20S 4654   1.271   4.503   8.591 -0.6253 -2.0588 -0.5443
   60SAPC  H20T 4655   1.186   4.573   8.741  1.5953  0.5533  0.0265
   60SAPC   C33 4656   0.980   4.543   9.690 -0.1374 -0.1727 -0.0781
   60SAPC   H3X 4657   0.926   4.585   9.602  0.2812  1.1416  0.2830
   60SAPC   H3Y 4658   0.992   4.433   9.683  0.5162 -0.1258  0.2940
   60SAPC   C34 4659   1.128   4.590   9.690  0.7429  0.1296 -0.2249
   60SAPC   H4X 4660   1.172   4.556   9.786  1.9369 -0.1818 -0.8705
   60SAPC   H4Y 4661   1.138   4.700   9.676  0.0494  0.4590  1.8019
   60SAPC   C35 4662   1.216   4.525   9.588 -1.1688 -0.0739 -0.1578
   60SAPC   H5X 4663   1.195   4.563   9.485  1.7778  1.9153 -0.1043
   60SAPC   H5Y 4664   1.201   4.415   9.595 -2.0535  0.0604  0.0607
   60SAPC   C36 4665   1.367   4.545   9.612 -0.5426  0.1903 -0.3197
   60SAPC   H6X 4666   1.405   4.452   9.660  2.0717  1.9437  1.1663
   60SAPC   H6Y 4667   1.383   4.626   9.686 -0.0625 -0.6159  0.4698
   60SAPC   C37 4668   1.447   4.562   9.475 -0.5518 -0.7785  0.2775
   60SAPC   H7X 4669   1.553   4.571   9.505 -0.0868 -0.0706 -1.5024
   60SAPC   H7Y 4670   1.416   4.661   9.435 -1.4972 -0.0867  2.6269
   60SAPC   C38 4671   1.422   4.453   9.365  0.6412  0.8199 -0.5972
   60SAPC   H8X 4672   1.315   4.455   9.335  0.7678 -0.3133 -1.1366
   60SAPC   H8Y 4673   1.430   4.356   9.418  1.2577  1.5118  0.5880
   60SAPC   C39 4674   1.507   4.447   9.233 -0.0656 -0.4291  0.1798
   60SAPC   H9X 4675   1.614   4.424   9.252  0.2617 -0.7830 -1.9626
   60SAPC   H9Y 4676   1.511   4.544   9.179  0.5977 -0.4336  0.2145
   60SAPC  C310 4677   1.450   4.342   9.134 -0.6325 -1.1284 -0.1511
   60SAPC  H10X 4678   1.340   4.356   9.121 -0.7309 -2.1623 -0.5009
   60SAPC  H10Y 4679   1.463   4.243   9.183 -1.2454 -0.5392  1.2311
   60SAPC  C311 4680   1.523   4.332   9.000  0.4552 -0.2604 -0.3905
   60SAPC  H11X 4681   1.617   4.276   9.020  0.0636 -0.4682  0.9272
   60SAPC  H11Y 4682   1.551   4.435   8.971 -0.3822  0.4449  1.2291
   60SAPC  C312 4683   1.448   4.271   8.884  0.1084  0.4545  0.6738
   60SAPC  H12X 4684   1.348   4.316   8.866 -0.7075 -0.9466  1.6115
   60SAPC  H12Y 4685   1.426   4.164   8.904  0.9499  0.1671  0.0673
   60SAPC  C313 4686   1.532   4.265   8.748  0.8505  0.4904 -0.1609
   60SAPC  H13X 4687   1.637   4.271   8.783  1.9978 -0.3690 -3.2772
   60SAPC  H13Y 4688   1.521   4.357   8.687 -4.8098 -0.1168 -0.3321
   60SAPC  C314 4689   1.490   4.137   8.677 -0.5014  0.7000  0.2712
   60SAPC  H14X 4690   1.380   4.148   8.667 -0.5828 -0.9182 -0.8014
   60SAPC  H14Y 4691   1.520   4.056   8.746 -1.4068 -0.6882 -0.9338
   60SAPC  C315 4692   1.577   4.114   8.549 -0.3006  0.2535  0.1065
   60SAPC  H15X 4693   1.539   4.032   8.485 -2.7965 -0.4352  2.4208
   60SAPC  H15Y 4694   1.674   4.083   8.594  0.7165  2.8937 -0.1089
   60SAPC  C316 4695   1.605   4.234   8.464 -1.3060  0.0310  0.3686
   60SAPC  H16X 4696   1.699   4.280   8.502 -0.1862 -1.5244 -0.4252
   60SAPC  H16Y 4697   1.520   4.305   8.468 -0.9735  0.3803  1.9187
   60SAPC  C317 4698   1.632   4.186   8.321  0.4840  0.0655 -0.2515
   60SAPC  H17X 4699   1.547   4.125   8.283  0.9317 -1.2181  0.7689
   60SAPC  H17Y 4700   1.719   4.118   8.336 -0.9970 -2.1281 -1.2341
   60SAPC  C318 4701   1.665   4.300   8.231 -0.6753 -0.1348  0.0104
   60SAPC  H18X 4702   1.565   4.340   8.203 -1.6407 -3.7894 -1.9829
   60SAPC  H18Y 4703   1.705   4.264   8.135  2.3853 -1.6037  1.7822
   60SAPC  H18Z 4704   1.741   4.373   8.267  1.0045 -1.0199 -1.6938
   61SAPC     N 4705   1.591   3.140  10.819  0.0901 -0.2094 -0.0687
   61SAPC   C12 4706   1.482   3.190  10.917  0.3697  0.5859 -0.2978
   61SAPC  H12A 4707   1.411   3.248  10.860 -1.6097 -0.5422  0.9447
   61SAPC  H12B 4708   1.538   3.253  10.985 -0.0634  1.5614 -0.8382
   61SAPC   C13 4709   1.536   3.069  10.703 -0.0568 -0.6710  0.2648
   61SAPC  H13A 4710   1.615   3.034  10.638 -2.5455 -1.0719 -2.6365
   61SAPC  H13B 4711   1.484   2.978  10.728 -3.1280  0.7483 -0.6814
   61SAPC  H13C 4712   1.469   3.126  10.640  0.8126 -0.5616 -0.5749
   61SAPC   C14 4713   1.693   3.248  10.785 -0.3780  0.0842  0.4206
   61SAPC  H14A 4714   1.644   3.333  10.741 -2.4146 -1.4584 -0.3553
   61SAPC  H14B 4715   1.740   3.288  10.874  2.1877 -0.5268 -0.6184
   61SAPC  H14C 4716   1.775   3.222  10.720  0.4095  0.1571  1.3755
   61SAPC   C15 4717   1.677   3.040  10.893 -0.8501 -0.4240  0.8683
   61SAPC  H15A 4718   1.758   2.995  10.837 -0.8859  0.9657 -0.3135
   61SAPC  H15B 4719   1.722   3.079  10.983  0.6470  0.6783 -0.3212
   61SAPC  H15C 4720   1.605   2.964  10.920 -1.0548 -0.0061  1.4939
   61SAPC   C11 4721   1.400   3.087  10.998 -0.8635 -0.0175 -0.4100
   61SAPC  H11A 4722   1.347   3.148  11.075 -3.6934 -2.8428 -0.0197
   61SAPC  H11B 4723   1.473   3.034  11.063  1.7051  2.9319 -0.7595
   61SAPC     P 4724   1.193   3.027  10.857 -0.1692  0.0750 -0.4279
   61SAPC   O13 4725   1.127   2.908  10.799  0.2517  0.0727 -0.1957
   61SAPC   O14 4726   1.115   3.096  10.959  0.1871 -0.4627  0.0629
   61SAPC   O12 4727   1.333   2.987  10.920  0.5116  0.7915  0.0989
   61SAPC   O11 4728   1.230   3.124  10.742  0.0945 -0.0691  0.2361
   61SAPC    C1 4729   1.125   3.204  10.684  0.4071  0.4788  0.8442
   61SAPC    HA 4730   1.031   3.147  10.668  0.1347  1.5170 -1.4070
   61SAPC    HB 4731   1.100   3.287  10.754  0.7104  1.4007 -0.1350
   61SAPC    C2 4732   1.173   3.260  10.548  0.0977 -0.0660  0.7377
   61SAPC    HS 4733   1.088   3.305  10.493 -0.5881 -1.6527  0.4921
   61SAPC   O21 4734   1.241   3.153  10.466  0.6323 -0.3804  1.1674
   61SAPC   C21 4735   1.168   3.061  10.406  0.1156  0.1719 -0.2747
   61SAPC   O22 4736   1.047   3.051  10.404 -0.6043  0.0906  0.1618
   61SAPC   C22 4737   1.271   2.959  10.347 -0.5604 -0.4355  0.2328
   61SAPC   H2R 4738   1.344   3.011  10.281  1.4343 -0.2570  2.4986
   61SAPC   H2S 4739   1.336   2.922  10.430 -0.7892  0.2204  0.7069
   61SAPC    C3 4740   1.274   3.363  10.579  0.0670 -0.2929 -0.2658
   61SAPC    HX 4741   1.354   3.316  10.639  0.0123  1.7196  1.4516
   61SAPC    HY 4742   1.234   3.451  10.635  2.1263  1.6602 -1.7903
   61SAPC   O31 4743   1.322   3.412  10.450 -0.1649 -0.0704  0.4330
   61SAPC   C31 4744   1.442   3.372  10.408  0.1073  0.3324 -0.1498
   61SAPC   O32 4745   1.527   3.313  10.470 -0.7898  0.1323 -0.3715
   61SAPC   C32 4746   1.484   3.430  10.273  0.5502  0.1275 -0.1838
   61SAPC   H2X 4747   1.594   3.446  10.282  0.4329  1.8580 -1.5146
   61SAPC   H2Y 4748   1.429   3.525  10.256  0.1127  0.0422  0.6989
   61SAPC   C23 4749   1.194   2.848  10.278 -1.0080  0.0786 -0.2034
   61SAPC   H3R 4750   1.148   2.897  10.189  1.0636 -0.5557 -1.6616
   61SAPC   H3S 4751   1.124   2.792  10.344 -1.8717  2.2366  0.7356
   61SAPC   C24 4752   1.295   2.741  10.225  0.6087 -0.2608  0.0669
   61SAPC   H4R 4753   1.364   2.697  10.301  1.8630  0.3451 -0.6994
   61SAPC   H4S 4754   1.354   2.803  10.154 -0.5116  0.2867 -0.3884
   61SAPC   C25 4755   1.226   2.622  10.151  0.3709 -0.3770 -0.6214
   61SAPC   H5R 4756   1.226   2.530  10.212 -1.6864 -1.1215 -1.6817
   61SAPC   C26 4757   1.178   2.611  10.026  0.3276  0.7927  0.9458
   61SAPC   H6R 4758   1.125   2.519   9.999  0.9030  0.9368 -0.7230
   61SAPC   C27 4759   1.191   2.714   9.920 -0.2981  0.2504 -0.3894
   61SAPC   H7R 4760   1.227   2.672   9.824 -0.5263 -0.7417 -0.0462
   61SAPC   H7S 4761   1.275   2.785   9.938  0.1297 -0.2951 -0.2187
   61SAPC   C28 4762   1.068   2.806   9.902  0.0831 -0.5315  0.2931
   61SAPC   H8R 4763   1.015   2.835   9.994 -1.2092 -0.2218 -0.5222
   61SAPC   C29 4764   1.019   2.859   9.790  0.3673  0.0673 -0.8722
   61SAPC   H9R 4765   0.930   2.923   9.794  0.6494  0.7295 -3.7490
   61SAPC  C210 4766   1.080   2.845   9.650 -0.1660 -0.4503  0.8577
   61SAPC  H10R 4767   1.017   2.802   9.569  3.0339 -1.4791 -1.2190
   61SAPC  H10S 4768   1.169   2.781   9.670  1.1806  1.9848  2.8967
   61SAPC  C211 4769   1.132   2.981   9.601  0.0329 -0.2553  0.3512
   61SAPC  H11R 4770   1.123   3.067   9.669 -0.4931  0.5626 -0.7251
   61SAPC  C212 4771   1.180   3.008   9.479  0.1600 -0.0467 -0.5961
   61SAPC  H12R 4772   1.211   3.111   9.458 -1.7398  1.0776  1.9891
   61SAPC  C213 4773   1.206   2.908   9.367  0.1099 -0.4648  0.2084
   61SAPC  H13R 4774   1.252   2.824   9.422  2.1665  0.1527 -0.5364
   61SAPC  H13S 4775   1.289   2.949   9.306  0.0073  1.4430  1.2892
   61SAPC  C214 4776   1.076   2.870   9.296 -0.2503  0.1421  0.3234
   61SAPC  H14R 4777   0.986   2.858   9.358 -0.3055 -0.1363  0.1897
   61SAPC  C215 4778   1.062   2.856   9.161 -0.3800  0.4288 -0.3548
   61SAPC  H15R 4779   0.967   2.830   9.111  0.3058 -1.1157 -0.8845
   61SAPC  C216 4780   1.176   2.880   9.066 -0.1284 -0.0459  0.6484
   61SAPC  H16R 4781   1.256   2.931   9.124 -0.1994 -0.8942  1.4939
   61SAPC  H16S 4782   1.135   2.958   8.998 -1.5342 -1.3473 -0.0267
   61SAPC  C217 4783   1.217   2.762   8.978  0.4966 -0.1250  0.4014
   61SAPC  H17R 4784   1.127   2.739   8.917 -0.9383 -0.8839  2.7388
   61SAPC  H17S 4785   1.237   2.678   9.048 -2.7772  0.3914  2.0309
   61SAPC  C218 4786   1.340   2.799   8.900  0.3271 -0.6935 -0.5689
   61SAPC  H18R 4787   1.404   2.860   8.967  2.6301 -0.8072 -2.6137
   61SAPC  H18S 4788   1.309   2.866   8.817  0.6231 -2.7538 -2.3857
   61SAPC  C219 4789   1.410   2.671   8.842  0.0348 -0.6585 -1.0622
   61SAPC  H19R 4790   1.337   2.635   8.767 -0.9516 -1.2869  0.1986
   61SAPC  H19S 4791   1.425   2.598   8.924  1.2120  0.6010 -0.1272
   61SAPC  C220 4792   1.540   2.711   8.768  1.0262  0.4394  0.3821
   61SAPC  H20R 4793   1.515   2.788   8.693  3.0301 -2.6155 -3.6496
   61SAPC  H20S 4794   1.590   2.622   8.724 -0.2854 -0.3096  0.4044
   61SAPC  H20T 4795   1.613   2.764   8.834  0.1558  1.1414  0.7784
   61SAPC   C33 4796   1.463   3.327  10.157 -0.0365 -0.6066  0.1641
   61SAPC   H3X 4797   1.357   3.293  10.147 -0.1125 -0.8503  1.7067
   61SAPC   H3Y 4798   1.520   3.236  10.184 -0.7586 -0.8545  0.8787
   61SAPC   C34 4799   1.503   3.383  10.023 -0.2806  0.2434 -0.2434
   61SAPC   H4X 4800   1.612   3.390  10.006 -0.8650  0.5463 -4.4459
   61SAPC   H4Y 4801   1.467   3.488  10.021 -2.4572 -0.4202  2.0939
   61SAPC   C35 4802   1.451   3.297   9.904 -0.3028 -0.3159  0.0166
   61SAPC   H5X 4803   1.346   3.265   9.919 -0.0529 -1.0712  0.2138
   61SAPC   H5Y 4804   1.515   3.206   9.902  0.5131  0.2580 -0.1870
   61SAPC   C36 4805   1.466   3.378   9.773  0.1429  0.0534  0.3643
   61SAPC   H6X 4806   1.566   3.427   9.783 -0.3355  0.8671  1.2505
   61SAPC   H6Y 4807   1.383   3.449   9.757 -1.2744 -1.6732 -0.1074
   61SAPC   C37 4808   1.458   3.293   9.642  0.2934 -0.4140 -0.1919
   61SAPC   H7X 4809   1.352   3.268   9.621 -0.1426  1.3050 -0.0578
   61SAPC   H7Y 4810   1.508   3.193   9.649  2.1631  0.1513 -4.1013
   61SAPC   C38 4811   1.497   3.364   9.518  0.0785  0.3103  0.2047
   61SAPC   H8X 4812   1.604   3.393   9.522  0.3168 -0.3474 -1.1689
   61SAPC   H8Y 4813   1.429   3.452   9.512  0.9101  1.0491  1.4204
   61SAPC   C39 4814   1.474   3.263   9.401 -0.3010 -0.3546  0.3134
   61SAPC   H9X 4815   1.367   3.236   9.387 -0.0205 -0.6478 -1.2729
   61SAPC   H9Y 4816   1.534   3.176   9.435  0.5475 -0.5180 -1.5485
   61SAPC  C310 4817   1.528   3.314   9.264 -0.3952  0.3974  0.6114
   61SAPC  H10X 4818   1.631   3.352   9.282  0.2471  0.4953 -2.8946
   61SAPC  H10Y 4819   1.456   3.392   9.230 -1.1006  0.0346  1.2652
   61SAPC  C311 4820   1.535   3.214   9.149 -0.6458  0.2922 -0.3154
   61SAPC  H11X 4821   1.431   3.191   9.116 -0.8903  1.1438 -0.1582
   61SAPC  H11Y 4822   1.577   3.114   9.169 -0.4591  0.2516 -0.8940
   61SAPC  C312 4823   1.605   3.281   9.038 -0.7971 -0.3456  0.0188
   61SAPC  H12X 4824   1.712   3.263   9.062  0.6137  5.1021 -1.5274
   61SAPC  H12Y 4825   1.585   3.390   9.043 -1.8822 -0.6167  2.3527
   61SAPC  C313 4826   1.589   3.223   8.903  1.4995 -0.2525  0.0096
   61SAPC  H13X 4827   1.627   3.119   8.900 -0.2976 -0.8727 -2.5713
   61SAPC  H13Y 4828   1.647   3.283   8.829  0.1476 -0.5374 -1.2977
   61SAPC  C314 4829   1.452   3.238   8.835 -0.0278  0.4316  0.1331
   61SAPC  H14X 4830   1.413   3.342   8.833 -0.9310  0.1438  1.5764
   61SAPC  H14Y 4831   1.380   3.169   8.884  1.5215 -0.1446  1.6631
   61SAPC  C315 4832   1.456   3.201   8.687 -0.4231  0.1254  0.2941
   61SAPC  H15X 4833   1.486   3.095   8.674  1.0559  0.6825 -0.9324
   61SAPC  H15Y 4834   1.530   3.264   8.633 -0.5529 -0.3748 -0.4736
   61SAPC  C316 4835   1.314   3.215   8.611  0.3163 -1.0105 -0.1488
   61SAPC  H16X 4836   1.333   3.227   8.502  0.6840  2.1051  0.2352
   61SAPC  H16Y 4837   1.259   3.304   8.647  3.6329  1.3589 -0.6967
   61SAPC  C317 4838   1.237   3.087   8.633  0.4574  0.8673  0.1609
   61SAPC  H17X 4839   1.218   3.072   8.741  0.6087 -1.6854 -0.1491
   61SAPC  H17Y 4840   1.300   3.003   8.600 -0.8523  0.4224 -1.2756
   61SAPC  C318 4841   1.097   3.095   8.566  0.2880  0.8808 -1.0667
   61SAPC  H18X 4842   1.018   3.142   8.628  2.4920  3.8361 -0.3978
   61SAPC  H18Y 4843   1.057   2.995   8.540 -1.5395  1.1485  0.6036
   61SAPC  H18Z 4844   1.100   3.157   8.473 -1.3272  0.9849 -1.0715
   62SAPC     N 4845   0.546   2.072  10.760  0.0214  0.2381  0.5810
   62SAPC   C12 4846   0.582   1.986  10.647  0.5302  0.1338 -0.3088
   62SAPC  H12A 4847   0.504   1.999  10.574  1.2227 -0.5436 -1.1786
   62SAPC  H12B 4848   0.575   1.884  10.684  2.2693  1.1065  2.9165
   62SAPC   C13 4849   0.634   2.063  10.882  1.0264 -0.7731 -0.0091
   62SAPC  H13A 4850   0.667   1.961  10.895  0.2624 -0.9411  0.6291
   62SAPC  H13B 4851   0.722   2.122  10.864  0.6393 -0.1004  0.2827
   62SAPC  H13C 4852   0.588   2.104  10.970  3.7043  1.9861  0.1696
   62SAPC   C14 4853   0.539   2.211  10.714 -0.5553 -0.0846  0.5079
   62SAPC  H14A 4854   0.639   2.249  10.694 -0.6221  0.2338  0.7601
   62SAPC  H14B 4855   0.470   2.237  10.636 -0.6754 -1.7281  0.0522
   62SAPC  H14C 4856   0.502   2.271  10.796  1.1406 -2.2864  2.9686
   62SAPC   C15 4857   0.405   2.027  10.799  0.2932  0.3884 -0.3421
   62SAPC  H15A 4858   0.329   2.029  10.722 -1.9518 -1.2428  1.7595
   62SAPC  H15B 4859   0.410   1.928  10.841  0.6461  0.0932 -1.0816
   62SAPC  H15C 4860   0.372   2.089  10.882  0.6205  0.8492 -0.5521
   62SAPC   C11 4861   0.716   2.020  10.578  0.8098 -0.3446  0.0322
   62SAPC  H11A 4862   0.700   2.118  10.528 -3.1304 -1.1740 -0.4385
   62SAPC  H11B 4863   0.736   1.943  10.501  0.0420  1.2424 -1.7905
   62SAPC     P 4864   0.932   2.126  10.688 -0.2778 -0.0985 -0.0080
   62SAPC   O13 4865   0.875   2.222  10.779 -0.5102  0.8287 -0.9759
   62SAPC   O14 4866   1.064   2.059  10.714  0.1999 -0.4824  0.0689
   62SAPC   O12 4867   0.826   2.015  10.667 -0.6031  0.0554  0.2130
   62SAPC   O11 4868   0.929   2.202  10.551 -0.0271 -0.0304 -0.4924
   62SAPC    C1 4869   1.038   2.190  10.460  0.0921  0.3987 -0.3190
   62SAPC    HA 4870   1.117   2.260  10.494 -1.1159  2.3075 -1.3340
   62SAPC    HB 4871   1.078   2.087  10.462 -2.2280 -0.5434 -0.4969
   62SAPC    C2 4872   0.990   2.218  10.319  0.6924  0.1229 -0.8820
   62SAPC    HS 4873   1.076   2.263  10.266 -0.0853  1.9496 -0.6175
   62SAPC   O21 4874   0.891   2.319  10.304  0.1992  0.3920  0.0886
   62SAPC   C21 4875   0.904   2.443  10.348  0.2200 -0.5247 -0.1332
   62SAPC   O22 4876   0.998   2.486  10.411 -0.2653 -0.2783 -0.1161
   62SAPC   C22 4877   0.796   2.536  10.299 -0.1377  0.2694  0.9742
   62SAPC   H2R 4878   0.710   2.482  10.254  2.2521 -0.8793 -2.4386
   62SAPC   H2S 4879   0.766   2.585  10.394 -1.6808  0.7787  0.2414
   62SAPC    C3 4880   0.932   2.089  10.260 -0.2114  0.1240 -0.0575
   62SAPC    HX 4881   0.832   2.078  10.307 -0.3146  2.4459  0.3404
   62SAPC    HY 4882   0.992   2.002  10.292 -0.7775 -0.8263 -1.5229
   62SAPC   O31 4883   0.916   2.102  10.120  0.9429  0.2426 -0.3993
   62SAPC   C31 4884   0.805   2.166  10.073  0.4605 -0.4186 -1.1123
   62SAPC   O32 4885   0.716   2.221  10.135 -0.6567 -0.1616 -0.3187
   62SAPC   C32 4886   0.803   2.137   9.926 -0.3660 -0.3761 -0.5595
   62SAPC   H2X 4887   0.772   2.031   9.922  0.0628 -0.5217 -0.1418
   62SAPC   H2Y 4888   0.907   2.146   9.889  0.2101 -2.7274  0.3984
   62SAPC   C23 4889   0.846   2.637  10.194 -0.3095 -0.2776  0.0056
   62SAPC   H3R 4890   0.885   2.597  10.098  3.1468 -2.0452  2.0645
   62SAPC   H3S 4891   0.923   2.699  10.245 -0.1349 -0.5185  0.0334
   62SAPC   C24 4892   0.739   2.746  10.157 -0.0763  0.5631 -0.0169
   62SAPC   H4R 4893   0.794   2.827  10.104 -1.5622  1.8659  0.3938
   62SAPC   H4S 4894   0.702   2.777  10.257  0.1138  0.8772 -0.0402
   62SAPC   C25 4895   0.627   2.680  10.085  0.1722  0.4277  0.3904
   62SAPC   H5R 4896   0.572   2.604  10.143  0.3393  1.5057  2.0135
   62SAPC   C26 4897   0.592   2.708   9.960  0.3473  0.3593 -0.1637
   62SAPC   H6R 4898   0.496   2.667   9.925 -0.0048  0.8884  0.1809
   62SAPC   C27 4899   0.656   2.797   9.859 -0.0527 -0.5768 -0.2447
   62SAPC   H7R 4900   0.614   2.770   9.760 -1.6316  1.9110 -0.2930
   62SAPC   H7S 4901   0.765   2.777   9.865  0.3337  0.5642 -2.9524
   62SAPC   C28 4902   0.638   2.944   9.895 -0.7456  1.1096 -0.5405
   62SAPC   H8R 4903   0.617   2.968  10.000  1.2667 -0.0102  0.1505
   62SAPC   C29 4904   0.640   3.045   9.810 -0.4164  0.2845  0.7376
   62SAPC   H9R 4905   0.623   3.149   9.841 -0.0604  0.3719  0.6448
   62SAPC  C210 4906   0.672   3.027   9.664 -0.4757  0.0360 -0.3343
   62SAPC  H10R 4907   0.726   2.936   9.631 -0.0335 -0.0236  0.5448
   62SAPC  H10S 4908   0.734   3.111   9.627 -0.5427 -0.3695 -1.3652
   62SAPC  C211 4909   0.538   3.024   9.599 -0.5192 -0.0847  0.1874
   62SAPC  H11R 4910   0.449   2.998   9.658 -0.6215  0.2989  0.2053
   62SAPC  C212 4911   0.520   3.049   9.468  0.1430  0.2688 -0.9019
   62SAPC  H12R 4912   0.415   3.055   9.435 -0.6743  1.3566  1.7656
   62SAPC  C213 4913   0.636   3.069   9.370 -0.7261 -0.4533  0.1848
   62SAPC  H13R 4914   0.639   2.980   9.304 -0.6242 -1.4846  1.5548
   62SAPC  H13S 4915   0.738   3.079   9.413 -0.3753  3.0378 -1.2792
   62SAPC  C214 4916   0.618   3.195   9.298 -0.1101 -0.0775  0.2295
   62SAPC  H14R 4917   0.676   3.280   9.337 -0.5234  1.1487 -1.7577
   62SAPC  C215 4918   0.541   3.217   9.185 -0.1657  0.0021  0.1688
   62SAPC  H15R 4919   0.526   3.320   9.151  1.4932  0.3658  0.4888
   62SAPC  C216 4920   0.471   3.100   9.109 -0.4460 -0.7995  0.0982
   62SAPC  H16R 4921   0.379   3.131   9.056  0.1562  0.6313 -0.1229
   62SAPC  H16S 4922   0.444   3.015   9.175 -0.9137 -1.1519 -0.5403
   62SAPC  C217 4923   0.566   3.045   8.994  0.3963 -0.1135  0.0016
   62SAPC  H17R 4924   0.625   3.124   8.943  0.0002 -1.7343 -3.0437
   62SAPC  H17S 4925   0.494   2.998   8.924 -1.2283 -1.4341  2.4541
   62SAPC  C218 4926   0.663   2.937   9.044  0.8118 -0.2620 -0.7995
   62SAPC  H18R 4927   0.600   2.864   9.100 -0.3331  2.2767  1.3185
   62SAPC  H18S 4928   0.737   2.979   9.115  1.4487  0.4746 -1.8848
   62SAPC  C219 4929   0.735   2.857   8.936  0.1791 -0.1741 -0.5821
   62SAPC  H19R 4930   0.650   2.803   8.890  0.5632 -1.4629  0.2035
   62SAPC  H19S 4931   0.795   2.774   8.978 -0.8684  0.2154  1.7742
   62SAPC  C220 4932   0.815   2.948   8.842 -0.5563 -0.1880 -0.8633
   62SAPC  H20R 4933   0.869   3.016   8.911  1.8698 -1.6868 -1.2111
   62SAPC  H20S 4934   0.759   3.004   8.765 -1.1227  0.6605  0.1442
   62SAPC  H20T 4935   0.892   2.884   8.795  0.9405 -0.5760  1.9692
   62SAPC   C33 4936   0.697   2.228   9.855  0.3846  0.3733  0.5554
   62SAPC   H3X 4937   0.607   2.246   9.919 -0.5851 -0.2002 -0.6342
   62SAPC   H3Y 4938   0.662   2.174   9.765 -0.0632  0.5554  0.6200
   62SAPC   C34 4939   0.757   2.353   9.786 -0.0692  0.3174 -0.1843
   62SAPC   H4X 4940   0.799   2.423   9.861 -1.3644  1.8429 -0.8653
   62SAPC   H4Y 4941   0.681   2.409   9.727 -0.4677  2.6639  2.4439
   62SAPC   C35 4942   0.879   2.316   9.692  0.8110 -0.2638  0.2212
   62SAPC   H5X 4943   0.855   2.226   9.631 -2.0820 -0.1818  1.1557
   62SAPC   H5Y 4944   0.968   2.291   9.755  0.5809 -0.1353  0.6002
   62SAPC   C36 4945   0.913   2.428   9.593  0.0534 -0.7703  0.5504
   62SAPC   H6X 4946   1.018   2.412   9.560  0.3932  0.8616  0.8162
   62SAPC   H6Y 4947   0.905   2.522   9.652  0.7285 -0.4904  0.1958
   62SAPC   C37 4948   0.818   2.439   9.469  0.0626  0.6240 -0.3521
   62SAPC   H7X 4949   0.720   2.389   9.489  0.6030 -0.7745 -1.1051
   62SAPC   H7Y 4950   0.871   2.373   9.396  0.3803  0.2819  0.1835
   62SAPC   C38 4951   0.794   2.588   9.439  0.2403 -0.4014  0.2288
   62SAPC   H8X 4952   0.893   2.628   9.471 -0.2461 -1.2019  2.8622
   62SAPC   H8Y 4953   0.725   2.632   9.513  1.4697  4.1184 -1.1459
   62SAPC   C39 4954   0.751   2.615   9.293 -0.3310  0.7237 -0.0201
   62SAPC   H9X 4955   0.843   2.624   9.232  0.0321  4.2257  0.9475
   62SAPC   H9Y 4956   0.693   2.709   9.277  3.0934  2.6370 -1.6679
   62SAPC  C310 4957   0.665   2.508   9.227 -0.5582 -0.2098  0.4699
   62SAPC  H10X 4958   0.570   2.513   9.284  0.0156 -0.0186  1.4231
   62SAPC  H10Y 4959   0.696   2.401   9.230  1.7511  0.3625 -1.5571
   62SAPC  C311 4960   0.619   2.537   9.082  0.2876  0.3186  0.2278
   62SAPC  H11X 4961   0.606   2.647   9.070  0.8092  0.1557 -1.9947
   62SAPC  H11Y 4962   0.519   2.489   9.082  0.1891  0.4733 -1.2791
   62SAPC  C312 4963   0.712   2.475   8.970  0.6224 -0.6027 -0.4800
   62SAPC  H12X 4964   0.739   2.369   8.988  2.5193 -0.1947 -0.7896
   62SAPC  H12Y 4965   0.814   2.519   8.980  1.4490 -2.5054 -0.3060
   62SAPC  C313 4966   0.649   2.504   8.831  0.3423 -0.0595  0.1960
   62SAPC  H13X 4967   0.629   2.613   8.824 -0.4106 -0.1002  1.4922
   62SAPC  H13Y 4968   0.549   2.455   8.830 -0.4028  1.4179  1.1742
   62SAPC  C314 4969   0.714   2.463   8.703 -0.7194  0.2932 -0.3111
   62SAPC  H14X 4970   0.651   2.484   8.613  1.0899 -0.8875 -1.9031
   62SAPC  H14Y 4971   0.739   2.354   8.703  0.8067  0.6383 -0.5010
   62SAPC  C315 4972   0.827   2.557   8.657  0.5312  0.2756  0.2570
   62SAPC  H15X 4973   0.913   2.537   8.723  1.8368  2.1596 -0.8120
   62SAPC  H15Y 4974   0.795   2.662   8.676  0.7883  0.4538 -0.2700
   62SAPC  C316 4975   0.872   2.548   8.512 -0.0076  0.0925 -0.5615
   62SAPC  H16X 4976   0.949   2.627   8.497  0.0502  0.0777 -0.3523
   62SAPC  H16Y 4977   0.790   2.560   8.439  0.5480 -0.1603 -1.2410
   62SAPC  C317 4978   0.946   2.424   8.474  0.3004 -0.2644 -1.3254
   62SAPC  H17X 4979   0.874   2.341   8.489  0.8611 -0.5983 -0.4724
   62SAPC  H17Y 4980   1.031   2.397   8.540  0.6447 -0.8136 -1.9919
   62SAPC  C318 4981   1.000   2.435   8.333 -0.4572  0.4575  0.7062
   62SAPC  H18X 4982   0.917   2.441   8.260 -0.7245 -0.7608  0.8902
   62SAPC  H18Y 4983   1.061   2.344   8.310  1.2019  1.7651 -0.1618
   62SAPC  H18Z 4984   1.065   2.524   8.325  2.4457 -1.3879  2.4904
   63SAPC     N 4985   4.291   1.055   6.277 -0.0680  0.4197  0.0749
   63SAPC   C12 4986   4.321   1.179   6.367 -0.1852  0.0578  0.2864
   63SAPC  H12A 4987   4.229   1.223   6.403  0.3033  1.4440 -0.1117
   63SAPC  H12B 4988   4.355   1.257   6.300  2.3583 -0.4311  0.9857
   63SAPC   C13 4989   4.411   0.995   6.225  0.0126  0.2507  0.2591
   63SAPC  H13A 4990   4.467   1.049   6.150  1.0075 -1.2572 -0.0866
   63SAPC  H13B 4991   4.482   0.989   6.306  0.6993 -0.3385 -0.3805
   63SAPC  H13C 4992   4.388   0.897   6.185 -2.2005  0.6514  0.4591
   63SAPC   C14 4993   4.214   0.957   6.365 -0.0525  0.1474  0.8555
   63SAPC  H14A 4994   4.182   0.871   6.309  0.5140  1.6325 -1.8410
   63SAPC  H14B 4995   4.276   0.914   6.442 -0.5335 -0.1401  1.0816
   63SAPC  H14C 4996   4.138   1.009   6.421  0.9867 -0.7486  3.1544
   63SAPC   C15 4997   4.195   1.094   6.171  0.0980 -0.4658  0.6067
   63SAPC  H15A 4998   4.096   1.115   6.208 -0.1597  0.6319 -0.6261
   63SAPC  H15B 4999   4.229   1.177   6.110  2.3281 -1.6767  0.1455
   63SAPC  H15C 5000   4.174   1.013   6.103 -0.8556 -0.0558  0.4065
   63SAPC   C11 5001   4.434   1.164   6.472 -0.5050 -0.1785  0.3668
   63SAPC  H11A 5002   4.415   1.063   6.514  0.4339 -1.0345 -1.2182
   63SAPC  H11B 5003   4.412   1.246   6.543 -0.1524 -0.1328  0.4231
   63SAPC     P 5004   4.654   1.279   6.370 -0.2630 -0.0752 -0.2125
   63SAPC   O13 5005   4.788   1.237   6.325 -0.4692 -0.2236  0.1774
   63SAPC   O14 5006   4.576   1.360   6.275  0.3319 -0.7060  0.0668
   63SAPC   O12 5007   4.570   1.160   6.422  0.0953  0.1767 -0.2337
   63SAPC   O11 5008   4.679   1.368   6.506  0.4687  0.2977 -0.2879
   63SAPC    C1 5009   4.680   1.511   6.497  0.2032  0.2034  0.0911
   63SAPC    HA 5010   4.677   1.559   6.397  1.3455  2.2906  1.0312
   63SAPC    HB 5011   4.594   1.545   6.558  2.2590  0.5101  2.9011
   63SAPC    C2 5012   4.801   1.553   6.587 -0.1874 -0.4641 -0.1842
   63SAPC    HS 5013   4.886   1.492   6.549  0.6903 -0.2481  1.4263
   63SAPC   O21 5014   4.762   1.531   6.723 -0.1927  0.1811 -0.1451
   63SAPC   C21 5015   4.864   1.485   6.795 -0.2599  0.1635  0.3367
   63SAPC   O22 5016   4.976   1.460   6.758  0.0470 -0.4429  0.0914
   63SAPC   C22 5017   4.822   1.467   6.943  0.1744 -0.0376  0.4850
   63SAPC   H2R 5018   4.766   1.373   6.959  0.9117 -1.0666 -2.6825
   63SAPC   H2S 5019   4.914   1.446   7.002  2.7486  0.3006 -3.2177
   63SAPC    C3 5020   4.839   1.693   6.558 -0.6588  0.0943 -0.5002
   63SAPC    HX 5021   4.746   1.752   6.568 -0.7637  0.1969 -1.9624
   63SAPC    HY 5022   4.870   1.706   6.452  0.3402 -1.1931 -0.3847
   63SAPC   O31 5023   4.933   1.755   6.651 -0.2872 -0.1331  0.4244
   63SAPC   C31 5024   5.058   1.732   6.615 -0.7648  0.5296 -0.0847
   63SAPC   O32 5025   5.089   1.661   6.520 -0.3695  0.1834  0.3808
   63SAPC   C32 5026   5.155   1.787   6.722  0.0477 -0.2218  0.3216
   63SAPC   H2X 5027   5.181   1.695   6.779  0.8826 -1.4168 -1.9577
   63SAPC   H2Y 5028   5.103   1.868   6.779 -1.0619 -0.0608 -0.9112
   63SAPC   C23 5029   4.747   1.587   7.008 -0.5766 -0.2818  0.1470
   63SAPC   H3R 5030   4.724   1.584   7.116  2.5408 -1.7750  0.8191
   63SAPC   H3S 5031   4.652   1.598   6.951 -0.8978 -0.7589  0.5885
   63SAPC   C24 5032   4.809   1.721   6.975  0.1814 -0.4855 -0.3252
   63SAPC   H4R 5033   4.738   1.803   6.998  1.9011  0.8934  0.1446
   63SAPC   H4S 5034   4.835   1.737   6.868 -2.0261  2.5274 -0.4504
   63SAPC   C25 5035   4.936   1.739   7.059 -0.1529 -0.1079 -0.0290
   63SAPC   H5R 5036   5.014   1.671   7.023 -0.9218 -1.2265  0.3592
   63SAPC   C26 5037   4.957   1.820   7.162 -0.3644 -0.2147 -0.5896
   63SAPC   H6R 5038   5.058   1.831   7.206 -0.9072  0.0163  0.6420
   63SAPC   C27 5039   4.860   1.914   7.223 -0.0596  0.7979  0.4084
   63SAPC   H7R 5040   4.827   1.986   7.145  1.3004  0.4713 -0.4853
   63SAPC   H7S 5041   4.909   1.967   7.308  2.6266  0.6473 -0.9849
   63SAPC   C28 5042   4.735   1.842   7.271 -0.6449  1.0807 -0.6395
   63SAPC   H8R 5043   4.677   1.794   7.190 -1.7138 -0.3633  0.9559
   63SAPC   C29 5044   4.683   1.847   7.399 -0.0309  0.0950  0.2038
   63SAPC   H9R 5045   4.593   1.785   7.408  1.3448 -2.0301 -0.2950
   63SAPC  C210 5046   4.738   1.922   7.519  0.3388  0.1340 -0.1169
   63SAPC  H10R 5047   4.653   1.968   7.573  0.7520  1.3971 -0.5262
   63SAPC  H10S 5048   4.799   2.007   7.482 -0.1902  1.1386  1.3159
   63SAPC  C211 5049   4.812   1.833   7.622 -0.1610  0.2487  0.2231
   63SAPC  H11R 5050   4.867   1.750   7.576  1.4265  0.7951  1.1349
   63SAPC  C212 5051   4.840   1.866   7.752 -0.3220  0.3747 -0.1581
   63SAPC  H12R 5052   4.903   1.807   7.820 -1.7190 -2.0742 -0.9434
   63SAPC  C213 5053   4.779   1.999   7.803 -0.1415  0.4226 -0.1102
   63SAPC  H13R 5054   4.678   2.021   7.764 -0.0442  2.0442  0.4828
   63SAPC  H13S 5055   4.839   2.079   7.753 -0.3022 -0.6889 -2.1194
   63SAPC  C214 5056   4.766   2.021   7.953 -0.3168  1.0718 -0.1611
   63SAPC  H14R 5057   4.715   1.936   8.000  0.8529  0.5874  0.2355
   63SAPC  C215 5058   4.808   2.120   8.028 -0.3677 -0.1707  0.2937
   63SAPC  H15R 5059   4.789   2.115   8.137  1.6526  3.0395  0.8564
   63SAPC  C216 5060   4.877   2.244   7.994 -0.4043  0.4515  0.4975
   63SAPC  H16R 5061   4.805   2.326   7.976  0.4890  0.7230 -1.9785
   63SAPC  H16S 5062   4.938   2.233   7.902 -0.7056  0.5055  0.2919
   63SAPC  C217 5063   4.986   2.294   8.095 -1.0168 -1.0232 -0.4798
   63SAPC  H17R 5064   5.031   2.385   8.049 -1.6516  0.1641  1.1973
   63SAPC  H17S 5065   5.065   2.219   8.113 -1.3068 -0.4660  3.7466
   63SAPC  C218 5066   4.933   2.333   8.229  0.0539 -0.3225  0.0080
   63SAPC  H18R 5067   4.921   2.235   8.281  0.8565  0.7665  2.2921
   63SAPC  H18S 5068   4.829   2.369   8.218 -0.2511 -1.9685 -3.3214
   63SAPC  C219 5069   5.024   2.412   8.323 -0.1368  0.3911  0.1258
   63SAPC  H19R 5070   4.965   2.418   8.417  1.6435  2.4339  1.1556
   63SAPC  H19S 5071   5.030   2.516   8.284 -1.3552  0.6883  0.7154
   63SAPC  C220 5072   5.154   2.342   8.355  0.4275 -0.0776 -0.0596
   63SAPC  H20R 5073   5.228   2.421   8.382  0.3101 -0.3303  1.0314
   63SAPC  H20S 5074   5.201   2.298   8.265 -0.8998 -1.8303  0.0819
   63SAPC  H20T 5075   5.142   2.282   8.448  0.2525 -1.3138 -0.8826
   63SAPC   C33 5076   5.295   1.837   6.668 -0.6363 -0.2752 -0.1490
   63SAPC   H3X 5077   5.285   1.939   6.624 -2.6784 -0.3657  0.0656
   63SAPC   H3Y 5078   5.327   1.766   6.588  2.1756 -0.5793  1.1812
   63SAPC   C34 5079   5.403   1.851   6.766 -0.1342 -0.3572  0.4173
   63SAPC   H4X 5080   5.502   1.844   6.717 -1.1873  1.3197 -2.0759
   63SAPC   H4Y 5081   5.398   1.768   6.840 -1.1463 -0.0909  0.6580
   63SAPC   C35 5082   5.412   1.983   6.851 -0.3076 -0.6806 -0.3346
   63SAPC   H5X 5083   5.318   2.002   6.907 -0.7873 -2.4109 -0.5077
   63SAPC   H5Y 5084   5.419   2.063   6.775 -0.0992 -0.9730 -0.6281
   63SAPC   C36 5085   5.533   1.985   6.931  0.1162  0.2591 -0.5926
   63SAPC   H6X 5086   5.570   2.088   6.951 -0.6744 -0.0799  2.9768
   63SAPC   H6Y 5087   5.619   1.942   6.875  1.0481 -0.9939  1.7183
   63SAPC   C37 5088   5.525   1.910   7.062  0.1551  0.0699 -0.0824
   63SAPC   H7X 5089   5.604   1.832   7.060  0.6299  0.5828 -2.4258
   63SAPC   H7Y 5090   5.431   1.851   7.070  0.5052 -0.3853  0.9062
   63SAPC   C38 5091   5.552   2.001   7.175 -0.1327  0.1019 -0.1534
   63SAPC   H8X 5092   5.481   2.086   7.180  0.2038  0.7193 -4.1666
   63SAPC   H8Y 5093   5.657   2.038   7.165 -0.1965  0.0641 -0.9737
   63SAPC   C39 5094   5.534   1.926   7.310 -0.1133  1.2392 -1.0837
   63SAPC   H9X 5095   5.429   1.890   7.308 -0.4173  2.0085  0.3450
   63SAPC   H9Y 5096   5.548   2.003   7.389 -0.5968 -0.3221  0.5615
   63SAPC  C310 5097   5.624   1.803   7.343  0.2939 -0.1862 -0.0423
   63SAPC  H10X 5098   5.728   1.839   7.354  0.0314  0.6824 -0.3444
   63SAPC  H10Y 5099   5.619   1.737   7.254 -1.4135 -0.9668  0.6009
   63SAPC  C311 5100   5.602   1.736   7.476  0.0157  0.8978  0.3965
   63SAPC  H11X 5101   5.653   1.638   7.465 -3.0789 -0.8958  1.3794
   63SAPC  H11Y 5102   5.494   1.720   7.497  0.2048  0.1632  0.8379
   63SAPC  C312 5103   5.664   1.809   7.593  0.8400  0.3699  1.1838
   63SAPC  H12X 5104   5.626   1.913   7.583 -0.5841 -0.1404  1.1945
   63SAPC  H12Y 5105   5.774   1.808   7.584  0.6324  0.6721 -1.9452
   63SAPC  C313 5106   5.629   1.754   7.731  0.7366  0.0051  0.1858
   63SAPC  H13X 5107   5.564   1.665   7.713  0.7670  0.3233 -1.6432
   63SAPC  H13Y 5108   5.577   1.831   7.791 -2.1699  1.6624 -4.1659
   63SAPC  C314 5109   5.751   1.699   7.805 -0.7168 -0.3386 -0.4465
   63SAPC  H14X 5110   5.826   1.779   7.822 -0.2774 -1.5065  3.7478
   63SAPC  H14Y 5111   5.798   1.619   7.744  2.6947  0.9757  0.3426
   63SAPC  C315 5112   5.716   1.661   7.951 -0.3486  0.0391 -0.1086
   63SAPC  H15X 5113   5.631   1.590   7.950 -1.9689  1.9288 -0.1869
   63SAPC  H15Y 5114   5.685   1.755   8.002 -1.7869 -1.4551  1.8634
   63SAPC  C316 5115   5.840   1.614   8.033 -0.7249 -0.1402  0.0332
   63SAPC  H16X 5116   5.908   1.702   8.037 -0.8637 -0.0786  1.2616
   63SAPC  H16Y 5117   5.896   1.536   7.977 -0.8266 -0.1741 -0.0202
   63SAPC  C317 5118   5.813   1.564   8.175 -0.6899  0.3031  1.0117
   63SAPC  H17X 5119   5.737   1.627   8.226  0.0148 -0.0582  2.5341
   63SAPC  H17Y 5120   5.904   1.560   8.239  0.7622  1.8143 -0.8906
   63SAPC  C318 5121   5.751   1.423   8.166  0.0364  0.2394 -0.5122
   63SAPC  H18X 5122   5.736   1.379   8.267 -1.3475  1.6767 -0.0579
   63SAPC  H18Y 5123   5.820   1.356   8.111  0.1884  1.4080 -1.7737
   63SAPC  H18Z 5124   5.653   1.418   8.114  1.7183 -1.6340 -3.6422
   64SAPC     N 5125   0.493   1.646   5.695  0.0283  0.0985  0.1221
   64SAPC   C12 5126   0.437   1.612   5.831 -0.9092  0.8312 -0.1288
   64SAPC  H12A 5127   0.466   1.510   5.853 -0.5994  0.5703 -1.6721
   64SAPC  H12B 5128   0.329   1.614   5.830 -0.9606  0.4585  1.7762
   64SAPC   C13 5129   0.465   1.784   5.656  0.0908  0.0926  0.0910
   64SAPC  H13A 5130   0.361   1.793   5.630  0.1313  0.7286  0.1531
   64SAPC  H13B 5131   0.470   1.842   5.747  0.5578  1.1219 -0.5836
   64SAPC  H13C 5132   0.534   1.813   5.579 -1.4976  1.8834 -0.7014
   64SAPC   C14 5133   0.645   1.628   5.691 -0.2228  0.2530 -0.6624
   64SAPC  H14A 5134   0.673   1.669   5.596  0.6852  2.7058  0.6174
   64SAPC  H14B 5135   0.693   1.680   5.772  2.5849  0.2444 -2.2694
   64SAPC  H14C 5136   0.670   1.523   5.695 -1.4488 -0.0347 -0.3574
   64SAPC   C15 5137   0.440   1.562   5.583  0.6083  0.5551  0.1126
   64SAPC  H15A 5138   0.498   1.558   5.492  0.4471  2.9744 -0.1359
   64SAPC  H15B 5139   0.439   1.457   5.608  2.1659  0.2136 -1.1402
   64SAPC  H15C 5140   0.338   1.593   5.563  1.1171  1.3316 -1.3690
   64SAPC   C11 5141   0.483   1.705   5.942  0.0371 -0.3358  0.1837
   64SAPC  H11A 5142   0.431   1.678   6.036 -1.4338 -1.6641 -0.9694
   64SAPC  H11B 5143   0.438   1.803   5.916 -0.9952 -0.8399  0.0348
   64SAPC     P 5144   0.702   1.634   6.064  0.0211 -0.3723 -0.1646
   64SAPC   O13 5145   0.673   1.492   6.043 -0.2459 -0.1020 -0.2676
   64SAPC   O14 5146   0.840   1.676   6.076 -1.0574  0.1701 -0.1931
   64SAPC   O12 5147   0.625   1.719   5.952 -0.0850  0.2496  0.5224
   64SAPC   O11 5148   0.628   1.686   6.189  0.0691  0.0182  0.6239
   64SAPC    C1 5149   0.617   1.820   6.235  0.0105  0.4494  0.0830
   64SAPC    HA 5150   0.665   1.893   6.167  1.2990  0.2317  0.7319
   64SAPC    HB 5151   0.514   1.859   6.240  0.0264  0.6239 -0.8822
   64SAPC    C2 5152   0.684   1.845   6.374 -0.3227 -0.0241  0.6787
   64SAPC    HS 5153   0.792   1.857   6.353 -0.2708 -1.5761  0.0059
   64SAPC   O21 5154   0.654   1.731   6.459 -0.6528  0.1885  0.0084
   64SAPC   C21 5155   0.731   1.722   6.568 -0.7290 -0.6601  0.8462
   64SAPC   O22 5156   0.836   1.792   6.587  0.4056 -0.2486  0.3983
   64SAPC   C22 5157   0.676   1.620   6.657 -0.0961 -0.2595 -0.4519
   64SAPC   H2R 5158   0.568   1.640   6.669  0.0837 -0.0783  0.9482
   64SAPC   H2S 5159   0.676   1.519   6.611 -0.3966 -0.9041  0.9379
   64SAPC    C3 5160   0.635   1.973   6.440  0.0504 -0.5821 -0.0747
   64SAPC    HX 5161   0.631   2.047   6.356  2.1634 -1.2120 -0.7557
   64SAPC    HY 5162   0.714   2.018   6.503 -2.1247  2.2416  0.7559
   64SAPC   O31 5163   0.501   1.960   6.492 -0.4990  0.2516 -0.5645
   64SAPC   C31 5164   0.493   1.942   6.627 -0.3555 -0.1789  0.4853
   64SAPC   O32 5165   0.575   1.975   6.710  0.0465 -0.4774  0.7411
   64SAPC   C32 5166   0.370   1.867   6.647  0.3115 -0.1796 -0.5398
   64SAPC   H2X 5167   0.388   1.775   6.587 -1.7547 -1.1559  0.3147
   64SAPC   H2Y 5168   0.288   1.922   6.597 -0.8164 -1.8446 -0.5745
   64SAPC   C23 5169   0.734   1.613   6.801  0.1796 -0.0672 -0.5050
   64SAPC   H3R 5170   0.703   1.694   6.871  0.1613  0.4518 -1.1169
   64SAPC   H3S 5171   0.844   1.610   6.795  0.3939 -0.6975  2.6674
   64SAPC   C24 5172   0.696   1.475   6.866 -0.3681 -0.8686  0.7243
   64SAPC   H4R 5173   0.750   1.485   6.963 -1.8399  0.1720  1.4524
   64SAPC   H4S 5174   0.739   1.384   6.820  0.8292 -0.4449  0.9803
   64SAPC   C25 5175   0.542   1.460   6.875 -0.4223  0.6504  0.6989
   64SAPC   H5R 5176   0.488   1.434   6.783 -2.0543  0.4024  1.7062
   64SAPC   C26 5177   0.472   1.493   6.986 -0.1873  0.1458 -0.7011
   64SAPC   H6R 5178   0.363   1.481   6.988 -0.1560 -0.5103 -1.9406
   64SAPC   C27 5179   0.533   1.547   7.114 -0.4735  0.1430 -0.4399
   64SAPC   H7R 5180   0.616   1.619   7.093  1.8902 -1.7231  2.0953
   64SAPC   H7S 5181   0.580   1.457   7.159  2.7570  1.0172 -1.8818
   64SAPC   C28 5182   0.433   1.605   7.212  0.3579  0.2695  0.0384
   64SAPC   H8R 5183   0.362   1.672   7.161 -1.3249 -0.7517  0.9825
   64SAPC   C29 5184   0.421   1.585   7.346 -0.0267  0.3248 -0.3668
   64SAPC   H9R 5185   0.351   1.647   7.402  1.1593 -0.3053  1.8832
   64SAPC  C210 5186   0.502   1.486   7.431  0.5229  0.6601 -0.3968
   64SAPC  H10R 5187   0.528   1.404   7.361 -1.3028 -0.4542  0.1961
   64SAPC  H10S 5188   0.422   1.444   7.495 -1.4342 -1.6481 -4.1629
   64SAPC  C211 5189   0.615   1.549   7.502  0.1114  0.7080  0.5081
   64SAPC  H11R 5190   0.705   1.567   7.441  0.0555  0.2059  0.2756
   64SAPC  C212 5191   0.610   1.599   7.628  0.3438 -0.0061 -0.0591
   64SAPC  H12R 5192   0.697   1.658   7.659  2.2085 -2.0987 -1.2066
   64SAPC  C213 5193   0.491   1.585   7.717  0.3224  0.1573 -0.1342
   64SAPC  H13R 5194   0.395   1.587   7.661  0.7152 -1.1168 -0.8911
   64SAPC  H13S 5195   0.495   1.657   7.801 -1.2208 -0.5838  0.5823
   64SAPC  C214 5196   0.500   1.451   7.793 -0.3053 -0.6912  0.0677
   64SAPC  H14R 5197   0.572   1.374   7.763 -1.1073 -1.5823  0.4093
   64SAPC  C215 5198   0.419   1.411   7.893  0.3504 -0.2202  0.2426
   64SAPC  H15R 5199   0.415   1.308   7.930 -1.8030 -0.3895 -0.3982
   64SAPC  C216 5200   0.310   1.484   7.963 -0.5215  0.1612 -0.3829
   64SAPC  H16R 5201   0.217   1.424   7.949  0.3547 -1.1498 -0.6982
   64SAPC  H16S 5202   0.283   1.584   7.924  0.7816  0.9093  0.5683
   64SAPC  C217 5203   0.333   1.495   8.106  0.8724  0.7228  0.7450
   64SAPC  H17R 5204   0.240   1.548   8.133 -1.4384 -1.6312 -2.2240
   64SAPC  H17S 5205   0.423   1.555   8.132  2.7913 -1.3427 -0.8865
   64SAPC  C218 5206   0.331   1.360   8.180 -0.1672  0.0977 -0.8505
   64SAPC  H18R 5207   0.433   1.321   8.160 -0.2176 -1.7003  2.1050
   64SAPC  H18S 5208   0.255   1.292   8.137  2.1717 -3.0798 -0.1228
   64SAPC  C219 5209   0.314   1.377   8.336 -0.2498  0.6689  0.0601
   64SAPC  H19R 5210   0.216   1.430   8.339 -0.6116 -0.0751  2.5103
   64SAPC  H19S 5211   0.403   1.436   8.365 -1.3749  2.6613 -0.4706
   64SAPC  C220 5212   0.324   1.253   8.419 -0.1184  0.1943 -0.3178
   64SAPC  H20R 5213   0.415   1.202   8.380 -0.5108 -0.5996 -0.2234
   64SAPC  H20S 5214   0.245   1.177   8.400  0.9772 -0.9710 -0.3026
   64SAPC  H20T 5215   0.324   1.280   8.526 -1.6383  2.9404 -0.9634
   64SAPC   C33 5216   0.334   1.853   6.794 -0.6607  0.0610 -0.7365
   64SAPC   H3X 5217   0.417   1.801   6.846  0.7713  3.2110  0.2591
   64SAPC   H3Y 5218   0.251   1.781   6.809 -2.0994  1.8025 -0.1300
   64SAPC   C34 5219   0.293   1.989   6.853  0.4899 -0.5304 -0.0393
   64SAPC   H4X 5220   0.194   2.015   6.811  1.1520  0.4586 -0.9870
   64SAPC   H4Y 5221   0.364   2.069   6.823 -0.7770  0.6523  0.0920
   64SAPC   C35 5222   0.260   1.982   7.002 -0.0509 -0.0246 -0.0874
   64SAPC   H5X 5223   0.230   2.085   7.032  2.3326  1.0586 -1.2980
   64SAPC   H5Y 5224   0.354   1.956   7.055  1.1205  1.2064 -1.5169
   64SAPC   C36 5225   0.148   1.883   7.034  0.0673 -0.5388 -0.3059
   64SAPC   H6X 5226   0.188   1.780   7.029  0.4657 -0.3617 -0.7429
   64SAPC   H6Y 5227   0.074   1.892   6.951  2.9444 -2.6350 -3.1997
   64SAPC   C37 5228   0.085   1.917   7.167  0.5771  0.3034 -1.0300
   64SAPC   H7X 5229  -0.008   1.858   7.185 -0.7718  1.7263 -3.0152
   64SAPC   H7Y 5230   0.059   2.024   7.183 -1.5257 -0.2029 -0.8583
   64SAPC   C38 5231   0.177   1.895   7.291 -0.4026  0.0466 -0.0574
   64SAPC   H8X 5232   0.266   1.962   7.288  1.1407 -1.9736 -0.6362
   64SAPC   H8Y 5233   0.221   1.794   7.275 -1.6562 -0.5955  0.5448
   64SAPC   C39 5234   0.098   1.906   7.415  0.5571 -0.5282  1.0369
   64SAPC   H9X 5235   0.035   1.815   7.421 -0.6018  0.1598 -0.3133
   64SAPC   H9Y 5236   0.022   1.987   7.407 -0.3457 -1.5525 -1.5947
   64SAPC  C310 5237   0.186   1.933   7.535  0.0379 -0.7267  0.4615
   64SAPC  H10X 5238   0.246   2.027   7.539 -0.7622 -0.1763 -0.3301
   64SAPC  H10Y 5239   0.258   1.850   7.525 -2.8485 -3.0764 -1.5724
   64SAPC  C311 5240   0.110   1.909   7.673  0.7869 -0.6437  0.1833
   64SAPC  H11X 5241   0.048   1.818   7.655 -1.2539  0.4310  1.6074
   64SAPC  H11Y 5242   0.027   1.981   7.686 -0.1541 -1.6098 -0.4542
   64SAPC  C312 5243   0.188   1.900   7.806  0.7956 -0.5193  0.7246
   64SAPC  H12X 5244   0.250   1.991   7.824  0.8900 -0.6907  1.2884
   64SAPC  H12Y 5245   0.250   1.808   7.801  0.2431 -0.7734 -1.7160
   64SAPC  C313 5246   0.089   1.891   7.925 -0.2060  0.1146 -0.4451
   64SAPC  H13X 5247   0.036   1.793   7.921 -1.1884  0.5556  1.1558
   64SAPC  H13Y 5248   0.005   1.964   7.923 -1.6545 -1.5006  0.0253
   64SAPC  C314 5249   0.153   1.895   8.064 -0.3344 -0.7390 -0.1598
   64SAPC  H14X 5250   0.193   1.998   8.081 -2.0557 -0.3319  1.6222
   64SAPC  H14Y 5251   0.230   1.815   8.063 -1.2640 -1.6437 -0.4465
   64SAPC  C315 5252   0.047   1.852   8.162 -0.1263  0.4770 -0.4052
   64SAPC  H15X 5253   0.021   1.744   8.153  0.1020  0.3658  0.2478
   64SAPC  H15Y 5254  -0.038   1.921   8.146  0.2683  1.0580 -0.0184
   64SAPC  C316 5255   0.099   1.874   8.308 -0.3321  0.3592 -0.1942
   64SAPC  H16X 5256   0.107   1.984   8.321  2.3860  0.0674  0.8544
   64SAPC  H16Y 5257   0.202   1.835   8.321 -1.3313 -2.3279  0.0674
   64SAPC  C317 5258   0.001   1.797   8.398  0.3014 -0.0860 -0.0966
   64SAPC  H17X 5259  -0.102   1.816   8.361  0.0997 -1.5432 -0.3161
   64SAPC  H17Y 5260   0.018   1.856   8.490 -0.3763 -0.6829  0.4110
   64SAPC  C318 5261   0.041   1.653   8.409  0.8262 -0.3244  1.7528
   64SAPC  H18X 5262   0.149   1.631   8.417  0.7442 -1.8178 -0.5734
   64SAPC  H18Y 5263   0.019   1.607   8.310 -1.3294 -0.8702  2.4723
   64SAPC  H18Z 5264  -0.027   1.594   8.474 -1.4645  0.6473  0.2886
   65SAPC     N 5265   0.122   3.379   6.144 -1.2168  0.2799 -0.1089
   65SAPC   C12 5266   0.251   3.419   6.068  0.7477 -0.2293 -0.2378
   65SAPC  H12A 5267   0.312   3.465   6.146  0.7004 -0.8156  0.1487
   65SAPC  H12B 5268   0.238   3.492   5.990  0.3005 -0.4365 -0.3593
   65SAPC   C13 5269   0.050   3.496   6.203 -0.1791  0.2688 -0.5793
   65SAPC  H13A 5270   0.002   3.555   6.126 -0.3419 -1.5429 -1.9098
   65SAPC  H13B 5271  -0.027   3.462   6.270 -0.9904 -2.1728 -2.6423
   65SAPC  H13C 5272   0.121   3.566   6.244  0.1195  0.4127 -1.3249
   65SAPC   C14 5273   0.021   3.304   6.060 -0.4836  0.2417 -0.6569
   65SAPC  H14A 5274  -0.007   3.357   5.970 -0.6184  0.7864 -0.2953
   65SAPC  H14B 5275   0.071   3.216   6.021 -0.6960 -0.9625  1.7188
   65SAPC  H14C 5276  -0.068   3.266   6.106 -0.5744 -0.5112 -1.4448
   65SAPC   C15 5277   0.167   3.291   6.256  0.5452  0.4345 -0.1764
   65SAPC  H15A 5278   0.087   3.247   6.313  2.6681 -1.4958  1.4194
   65SAPC  H15B 5279   0.231   3.211   6.222 -0.2424 -0.6185  0.7733
   65SAPC  H15C 5280   0.221   3.358   6.321 -1.7768  2.0881  0.0572
   65SAPC   C11 5281   0.337   3.300   6.029  0.1315  0.7324 -0.1244
   65SAPC  H11A 5282   0.404   3.332   5.946  0.2279 -2.4285 -1.3369
   65SAPC  H11B 5283   0.276   3.213   5.995  2.0526  0.0268 -1.9434
   65SAPC     P 5284   0.571   3.209   6.123  0.3673 -0.2322 -0.3019
   65SAPC   O13 5285   0.575   3.114   6.007 -0.5159 -0.1381  0.1301
   65SAPC   O14 5286   0.637   3.343   6.104  0.5127 -0.1679 -0.2590
   65SAPC   O12 5287   0.422   3.254   6.138 -0.0271  0.3986  0.2021
   65SAPC   O11 5288   0.604   3.132   6.258 -0.0108 -0.5858  0.2473
   65SAPC    C1 5289   0.497   3.078   6.327  0.0625  0.0949  0.4564
   65SAPC    HA 5290   0.409   3.069   6.260 -0.9416  0.5837  1.6814
   65SAPC    HB 5291   0.525   2.977   6.364 -1.6202 -0.1224  1.1579
   65SAPC    C2 5292   0.449   3.167   6.444  0.3996 -0.5817  0.0646
   65SAPC    HS 5293   0.417   3.265   6.405 -1.1783 -2.1319 -2.7204
   65SAPC   O21 5294   0.554   3.170   6.541  0.2106  1.2455  0.5079
   65SAPC   C21 5295   0.549   3.286   6.618  0.4086 -0.0884 -0.4126
   65SAPC   O22 5296   0.472   3.379   6.616 -0.2702  0.4929 -0.1206
   65SAPC   C22 5297   0.659   3.267   6.725 -0.7231 -0.2382  0.1415
   65SAPC   H2R 5298   0.627   3.179   6.785 -2.2879  0.0363 -0.2825
   65SAPC   H2S 5299   0.752   3.237   6.672  0.6632  2.2973  1.0912
   65SAPC    C3 5300   0.311   3.118   6.510  0.1484  0.0133  0.3797
   65SAPC    HX 5301   0.328   3.042   6.590  2.2999 -0.2496 -0.3063
   65SAPC    HY 5302   0.253   3.066   6.430 -0.6544  1.5540 -0.0546
   65SAPC   O31 5303   0.248   3.234   6.565  0.8061 -0.0341 -0.5139
   65SAPC   C31 5304   0.116   3.223   6.588 -0.0501  0.1262  0.1916
   65SAPC   O32 5305   0.041   3.132   6.545 -0.2787  0.1306  0.4412
   65SAPC   C32 5306   0.059   3.354   6.654  0.4204  0.3043 -0.7854
   65SAPC   H2X 5307   0.043   3.433   6.578 -1.1074  0.5262 -0.2489
   65SAPC   H2Y 5308   0.139   3.400   6.716 -0.2445  0.7066 -0.2165
   65SAPC   C23 5309   0.678   3.398   6.814 -0.2776 -0.2969 -0.2650
   65SAPC   H3R 5310   0.584   3.416   6.871  0.4739  1.0166  0.5909
   65SAPC   H3S 5311   0.695   3.487   6.751  0.0451 -0.1599  0.0131
   65SAPC   C24 5312   0.800   3.394   6.914 -0.5017  0.3065  0.0167
   65SAPC   H4R 5313   0.779   3.307   6.979  0.0932  0.8753  0.9903
   65SAPC   H4S 5314   0.787   3.490   6.969 -0.6959  0.0460  0.4230
   65SAPC   C25 5315   0.932   3.383   6.841 -0.0434 -0.4131  0.3550
   65SAPC   H5R 5316   0.930   3.365   6.732 -0.3262  0.5841  0.1929
   65SAPC   C26 5317   1.056   3.396   6.899 -0.7380 -0.4852  0.2122
   65SAPC   H6R 5318   1.144   3.389   6.832 -1.6374  1.0220 -1.1700
   65SAPC   C27 5319   1.084   3.423   7.044  0.4953  0.0720  0.8201
   65SAPC   H7R 5320   1.028   3.346   7.100  2.0161  0.5367  3.0649
   65SAPC   H7S 5321   1.038   3.522   7.066 -0.7618 -0.5375  0.9607
   65SAPC   C28 5322   1.228   3.418   7.094  0.2841 -0.3152  0.0503
   65SAPC   H8R 5323   1.314   3.388   7.032  0.5448 -1.4503  0.9501
   65SAPC   C29 5324   1.256   3.443   7.219  0.8138  0.2617  0.4666
   65SAPC   H9R 5325   1.361   3.455   7.249  0.8187 -0.6029  0.7920
   65SAPC  C210 5326   1.158   3.479   7.329 -0.6567 -0.0637  0.2104
   65SAPC  H10R 5327   1.147   3.402   7.408 -0.5318 -0.3714 -0.0719
   65SAPC  H10S 5328   1.049   3.488   7.309 -0.7216  0.5233  0.8020
   65SAPC  C211 5329   1.195   3.610   7.394  0.1865 -0.3080 -0.6941
   65SAPC  H11R 5330   1.173   3.704   7.342 -2.3256  1.4816  3.4155
   65SAPC  C212 5331   1.228   3.623   7.528  0.4183  0.4855 -0.0081
   65SAPC  H12R 5332   1.253   3.725   7.562 -0.7007  0.5458  0.6392
   65SAPC  C213 5333   1.239   3.515   7.620  0.3295 -0.3957 -0.0666
   65SAPC  H13R 5334   1.274   3.423   7.569 -0.8056  0.7542 -3.0853
   65SAPC  H13S 5335   1.140   3.488   7.663 -1.8618  0.1861 -4.4529
   65SAPC  C214 5336   1.339   3.550   7.726 -0.1134 -0.5733 -0.1180
   65SAPC  H14R 5337   1.420   3.611   7.683  0.3552  0.1091  1.7102
   65SAPC  C215 5338   1.334   3.521   7.857 -0.2139  0.0480  0.6659
   65SAPC  H15R 5339   1.412   3.560   7.924  0.6714 -1.2957  0.4317
   65SAPC  C216 5340   1.211   3.455   7.911 -0.0103  0.4078  1.0506
   65SAPC  H16R 5341   1.208   3.344   7.914 -0.3235  0.3064 -1.7336
   65SAPC  H16S 5342   1.115   3.492   7.870 -0.8382 -2.5010  0.1953
   65SAPC  C217 5343   1.197   3.484   8.064 -0.2852  0.7813  0.0314
   65SAPC  H17R 5344   1.194   3.593   8.086 -0.2464  0.7716  0.0848
   65SAPC  H17S 5345   1.285   3.434   8.110 -0.7316 -1.8591 -1.8293
   65SAPC  C218 5346   1.071   3.412   8.117  0.1441  0.1837 -0.2550
   65SAPC  H18R 5347   1.075   3.310   8.075  0.3145  0.2252 -0.3402
   65SAPC  H18S 5348   0.977   3.461   8.082  1.9427  2.3422 -2.2162
   65SAPC  C219 5349   1.053   3.409   8.269  0.1348 -0.2800  1.1592
   65SAPC  H19R 5350   1.130   3.342   8.313  0.0390 -1.6836 -0.7268
   65SAPC  H19S 5351   0.951   3.373   8.292  0.6870 -1.6835  1.4339
   65SAPC  C220 5352   1.059   3.552   8.332  0.0558  0.3499  0.4690
   65SAPC  H20R 5353   1.015   3.634   8.272 -0.4246  1.1514  1.8826
   65SAPC  H20S 5354   1.164   3.576   8.360 -0.3764  0.9240  1.6488
   65SAPC  H20T 5355   1.003   3.572   8.427 -0.4168  1.9298 -0.1218
   65SAPC   C33 5356  -0.069   3.334   6.749 -0.7342 -0.3810 -0.6311
   65SAPC   H3X 5357  -0.157   3.280   6.709 -0.5864 -1.9549  1.0902
   65SAPC   H3Y 5358  -0.107   3.437   6.771 -0.2933 -0.5861  1.1868
   65SAPC   C34 5359  -0.035   3.266   6.884 -0.3787 -0.5516 -0.3880
   65SAPC   H4X 5360   0.075   3.253   6.874 -0.2951 -0.5176  0.4767
   65SAPC   H4Y 5361  -0.079   3.164   6.879  1.0048 -1.1477 -0.7345
   65SAPC   C35 5362  -0.079   3.346   7.011 -0.5515  0.3406 -0.0076
   65SAPC   H5X 5363  -0.190   3.344   7.007 -0.5506  2.2848 -1.9141
   65SAPC   H5Y 5364  -0.030   3.445   7.001  0.7294 -0.3477 -0.6902
   65SAPC   C36 5365  -0.026   3.294   7.148 -0.8629 -0.3916  0.4136
   65SAPC   H6X 5366   0.075   3.335   7.170 -0.7369  0.7254 -2.1338
   65SAPC   H6Y 5367  -0.020   3.183   7.146  1.5860 -0.2756  0.0578
   65SAPC   C37 5368  -0.110   3.329   7.273 -0.2069  0.1534 -0.0835
   65SAPC   H7X 5369  -0.215   3.321   7.237 -0.5394  0.1426  0.8809
   65SAPC   H7Y 5370  -0.091   3.435   7.299  2.6603 -0.7287  1.6631
   65SAPC   C38 5371  -0.080   3.239   7.393 -0.8556 -0.1739 -1.2029
   65SAPC   H8X 5372   0.029   3.231   7.414 -1.2344  0.5987  1.1763
   65SAPC   H8Y 5373  -0.105   3.133   7.372  0.0888 -0.4815 -0.8367
   65SAPC   C39 5374  -0.150   3.291   7.518  0.5395  0.4843 -0.2990
   65SAPC   H9X 5375  -0.260   3.294   7.498  0.3219 -0.4159  0.7383
   65SAPC   H9Y 5376  -0.124   3.396   7.545  0.5595  0.3548  0.1963
   65SAPC  C310 5377  -0.125   3.205   7.647 -0.0633  0.3525  0.2322
   65SAPC  H10X 5378  -0.014   3.211   7.653  0.2113 -1.9577 -1.8001
   65SAPC  H10Y 5379  -0.164   3.104   7.626  1.5163 -0.0623 -0.8318
   65SAPC  C311 5380  -0.181   3.248   7.785  0.4480  0.6726  0.8335
   65SAPC  H11X 5381  -0.292   3.239   7.783  0.5038  0.0090  0.8700
   65SAPC  H11Y 5382  -0.179   3.359   7.798 -2.8957  0.6291  2.3903
   65SAPC  C312 5383  -0.131   3.155   7.891  0.7854 -0.4006  0.3370
   65SAPC  H12X 5384  -0.022   3.174   7.904  0.7496 -0.1663  0.3003
   65SAPC  H12Y 5385  -0.147   3.051   7.857  1.3946  0.3964 -2.5831
   65SAPC  C313 5386  -0.192   3.162   8.033  0.0869  1.1500 -0.3052
   65SAPC  H13X 5387  -0.128   3.104   8.104 -2.8169 -0.7820  0.8376
   65SAPC  H13Y 5388  -0.291   3.112   8.026  1.2195 -0.8656 -2.9000
   65SAPC  C314 5389  -0.214   3.302   8.100  0.8701 -0.5231 -0.7383
   65SAPC  H14X 5390  -0.302   3.345   8.048  1.1026  0.9515  0.0589
   65SAPC  H14Y 5391  -0.141   3.378   8.065  0.9645  0.4779  1.5148
   65SAPC  C315 5392  -0.240   3.306   8.253  0.4039  0.5356 -0.4211
   65SAPC  H15X 5393  -0.146   3.285   8.308 -0.1039  0.3128  0.3690
   65SAPC  H15Y 5394  -0.320   3.234   8.280 -0.3363  1.0434 -1.2226
   65SAPC  C316 5395  -0.274   3.436   8.332  0.1906 -0.1146  0.5206
   65SAPC  H16X 5396  -0.371   3.482   8.301 -0.3781 -0.4312  1.7922
   65SAPC  H16Y 5397  -0.192   3.505   8.302 -1.1336  1.6954  0.9215
   65SAPC  C317 5398  -0.276   3.416   8.485 -0.1492 -0.2403 -0.1172
   65SAPC  H17X 5399  -0.248   3.509   8.540  0.2613  0.5797 -1.6771
   65SAPC  H17Y 5400  -0.202   3.339   8.517 -0.1477 -0.7227 -1.2732
   65SAPC  C318 5401  -0.404   3.368   8.541 -0.0141 -0.0265  0.4513
   65SAPC  H18X 5402  -0.409   3.354   8.651 -1.1263  0.3067  0.4467
   65SAPC  H18Y 5403  -0.422   3.266   8.501 -1.8013  0.8724 -1.1426
   65SAPC  H18Z 5404  -0.491   3.436   8.526 -0.0141  0.2038  1.4898
   66SAPC     N 5405   4.195   3.180   5.612  0.1633  1.3016 -0.2908
   66SAPC   C12 5406   4.287   3.101   5.705  0.1212  0.3575  0.4708
   66SAPC  H12A 5407   4.310   3.007   5.657 -3.4052 -0.8322  0.9477
   66SAPC  H12B 5408   4.235   3.076   5.797 -0.0945 -1.3678 -0.0953
   66SAPC   C13 5409   4.064   3.098   5.595 -0.3633  0.6583 -0.4272
   66SAPC  H13A 5410   4.081   3.005   5.543  1.6178  1.1943 -0.8061
   66SAPC  H13B 5411   4.018   3.071   5.689 -1.0711 -1.1182 -1.2653
   66SAPC  H13C 5412   3.997   3.159   5.536 -0.5441 -0.6524 -1.6155
   66SAPC   C14 5413   4.163   3.312   5.667  0.1856  0.4628  0.2281
   66SAPC  H14A 5414   4.119   3.369   5.587 -1.0277  0.3196  0.7946
   66SAPC  H14B 5415   4.087   3.302   5.742  0.1808  1.0941  0.3093
   66SAPC  H14C 5416   4.249   3.375   5.687  2.2833 -1.8675 -1.0245
   66SAPC   C15 5417   4.257   3.188   5.472  0.0160  0.1890 -0.5722
   66SAPC  H15A 5418   4.360   3.221   5.473 -0.8347  3.0022  0.0977
   66SAPC  H15B 5419   4.274   3.091   5.429  2.0501  0.4726 -0.4841
   66SAPC  H15C 5420   4.196   3.255   5.414 -1.2537 -1.7415 -1.5015
   66SAPC   C11 5421   4.413   3.174   5.755 -0.5310 -0.0490  0.8054
   66SAPC  H11A 5422   4.466   3.227   5.673 -2.6841  2.0851  0.7254
   66SAPC  H11B 5423   4.492   3.106   5.792  0.8640  2.1648  2.0355
   66SAPC     P 5424   4.340   3.227   6.001  0.4448 -0.2489 -0.0799
   66SAPC   O13 5425   4.286   3.351   6.072  0.2708 -0.0269  0.3414
   66SAPC   O14 5426   4.259   3.107   5.998  0.0888  0.2972 -0.2271
   66SAPC   O12 5427   4.373   3.275   5.857  0.1455 -0.3247  0.4281
   66SAPC   O11 5428   4.478   3.195   6.059  0.0614 -0.5569  0.1355
   66SAPC    C1 5429   4.516   3.063   6.110  0.0388 -0.3420  0.0708
   66SAPC    HA 5430   4.471   2.975   6.061  1.0685  0.3994 -2.2832
   66SAPC    HB 5431   4.627   3.052   6.102  0.1672 -0.4572  1.7926
   66SAPC    C2 5432   4.499   3.044   6.260  0.1510 -0.5742 -0.1669
   66SAPC    HS 5433   4.391   3.058   6.282  0.0433 -1.9281  0.1883
   66SAPC   O21 5434   4.588   3.133   6.331  0.7469 -0.0539  0.6141
   66SAPC   C21 5435   4.520   3.231   6.397 -0.1298 -0.3061  0.4636
   66SAPC   O22 5436   4.404   3.257   6.388 -0.1561 -0.0984 -0.2373
   66SAPC   C22 5437   4.615   3.299   6.497  0.1986  0.3514  0.1112
   66SAPC   H2R 5438   4.702   3.350   6.451 -1.2840  3.9371  1.1055
   66SAPC   H2S 5439   4.563   3.381   6.551 -1.3101  1.5408 -2.9904
   66SAPC    C3 5440   4.532   2.896   6.289 -0.1807 -0.1486  0.6462
   66SAPC    HX 5441   4.642   2.882   6.286 -0.1980 -0.4331  1.3081
   66SAPC    HY 5442   4.502   2.838   6.199 -0.4006  2.2614 -0.8733
   66SAPC   O31 5443   4.467   2.850   6.411  0.0385  1.1307  0.0598
   66SAPC   C31 5444   4.345   2.801   6.386  0.6912  0.6329 -0.1253
   66SAPC   O32 5445   4.287   2.829   6.280 -0.1015  0.3368 -0.4539
   66SAPC   C32 5446   4.279   2.731   6.508 -0.1080 -0.1054 -0.0124
   66SAPC   H2X 5447   4.353   2.649   6.521  2.0488  2.0669  2.0363
   66SAPC   H2Y 5448   4.183   2.681   6.482 -0.1019 -0.1782  0.1052
   66SAPC   C23 5449   4.665   3.193   6.596  0.5507 -0.1216 -0.0754
   66SAPC   H3R 5450   4.745   3.243   6.654  0.3748 -0.5022  0.5002
   66SAPC   H3S 5451   4.707   3.110   6.535 -1.9863  0.6554 -2.9719
   66SAPC   C24 5452   4.558   3.128   6.694 -0.0871 -0.2363  0.1675
   66SAPC   H4R 5453   4.619   3.097   6.781 -1.8843  1.3378  2.0624
   66SAPC   H4S 5454   4.518   3.039   6.640  0.7092  1.1694 -2.8281
   66SAPC   C25 5455   4.448   3.221   6.739 -0.3918  0.2847 -0.1796
   66SAPC   H5R 5456   4.373   3.242   6.662  0.6646  2.8071 -0.5763
   66SAPC   C26 5457   4.430   3.269   6.862  0.2624 -0.1716  0.0194
   66SAPC   H6R 5458   4.346   3.336   6.883  0.6751 -0.1852  1.8590
   66SAPC   C27 5459   4.524   3.244   6.983  0.0110  0.0236  0.7436
   66SAPC   H7R 5460   4.540   3.349   7.016  0.2046  0.0868  0.4484
   66SAPC   H7S 5461   4.624   3.206   6.956 -0.3690 -2.5983  2.8409
   66SAPC   C28 5462   4.450   3.144   7.078  1.0257 -0.8693 -0.2357
   66SAPC   H8R 5463   4.401   3.058   7.030 -1.3045  0.4892 -0.3868
   66SAPC   C29 5464   4.421   3.173   7.212  0.4470 -0.3685  0.5716
   66SAPC   H9R 5465   4.375   3.095   7.274 -0.8849  1.4099  1.9003
   66SAPC  C210 5466   4.457   3.302   7.296 -0.0188  0.1543  1.1468
   66SAPC  H10R 5467   4.520   3.361   7.226 -1.2191 -0.7180 -0.7054
   66SAPC  H10S 5468   4.529   3.276   7.377 -1.6470  0.0386  2.5916
   66SAPC  C211 5469   4.342   3.384   7.350  0.1417 -0.1118 -0.4616
   66SAPC  H11R 5470   4.249   3.381   7.292 -0.1278 -3.3821  0.0641
   66SAPC  C212 5471   4.342   3.462   7.461  0.1421 -0.1700  0.1390
   66SAPC  H12R 5472   4.254   3.517   7.497 -0.5161 -0.7242 -0.5857
   66SAPC  C213 5473   4.462   3.492   7.544 -0.3024  0.3145  0.1627
   66SAPC  H13R 5474   4.507   3.583   7.499  0.9782  0.8073  2.3699
   66SAPC  H13S 5475   4.535   3.409   7.548 -1.6604 -0.8068  2.2795
   66SAPC  C214 5476   4.428   3.532   7.685  0.4221  0.5542  0.5691
   66SAPC  H14R 5477   4.344   3.475   7.727 -0.5687 -0.8491 -3.1559
   66SAPC  C215 5478   4.497   3.628   7.749 -0.4350  0.4428  0.4385
   66SAPC  H15R 5479   4.467   3.658   7.850 -2.1114 -0.8438  0.3611
   66SAPC  C216 5480   4.597   3.719   7.688  0.2546  0.4099 -0.2009
   66SAPC  H16R 5481   4.534   3.792   7.634  2.1696  1.8120 -0.5924
   66SAPC  H16S 5482   4.653   3.671   7.605 -0.8563 -2.2102  0.5033
   66SAPC  C217 5483   4.710   3.801   7.771  0.4854  0.4768 -0.5767
   66SAPC  H17R 5484   4.757   3.879   7.707  1.0965  0.4551 -0.1567
   66SAPC  H17S 5485   4.792   3.727   7.783 -0.1417 -0.0476  0.5012
   66SAPC  C218 5486   4.663   3.850   7.905  0.2344 -0.1418  0.2819
   66SAPC  H18R 5487   4.611   3.770   7.961 -1.5680  0.1812 -0.8810
   66SAPC  H18S 5488   4.589   3.929   7.880  1.3391  0.2560 -1.8517
   66SAPC  C219 5489   4.772   3.927   7.985  0.0629  0.5873  0.2284
   66SAPC  H19R 5490   4.719   3.957   8.078 -0.7264  0.5754 -0.2065
   66SAPC  H19S 5491   4.802   4.010   7.918 -1.2031  0.1805 -0.8567
   66SAPC  C220 5492   4.886   3.834   8.034 -0.2004 -0.0308  0.3784
   66SAPC  H20R 5493   4.979   3.890   8.059 -1.6438  3.1335 -1.0615
   66SAPC  H20S 5494   4.915   3.758   7.959 -0.4166  0.3593 -0.1030
   66SAPC  H20T 5495   4.848   3.781   8.123 -0.8926 -0.7707 -0.3515
   66SAPC   C33 5496   4.287   2.810   6.638 -0.4531  0.5913  0.1665
   66SAPC   H3X 5497   4.204   2.883   6.633  0.3546  1.7718  3.0513
   66SAPC   H3Y 5498   4.383   2.867   6.639 -0.6300  0.8774  1.0367
   66SAPC   C34 5499   4.279   2.727   6.766  0.0258  0.3656 -0.3731
   66SAPC   H4X 5500   4.346   2.639   6.773  0.4650  0.8467  2.0878
   66SAPC   H4Y 5501   4.186   2.668   6.760 -0.1342  0.4969  0.7011
   66SAPC   C35 5502   4.291   2.803   6.901  0.5768 -0.5079 -0.1821
   66SAPC   H5X 5503   4.195   2.852   6.930 -0.8983 -2.1026 -2.1758
   66SAPC   H5Y 5504   4.371   2.879   6.904  0.7592 -0.7249  0.7164
   66SAPC   C36 5505   4.311   2.714   7.027 -0.3445 -1.0111  0.2225
   66SAPC   H6X 5506   4.397   2.644   7.014  2.4656  2.5087 -0.8818
   66SAPC   H6Y 5507   4.220   2.651   7.032  0.2483 -1.9562 -0.5952
   66SAPC   C37 5508   4.344   2.786   7.162  0.0351 -0.3771  0.2859
   66SAPC   H7X 5509   4.259   2.851   7.192 -0.0411 -0.6803  0.7280
   66SAPC   H7Y 5510   4.446   2.829   7.153 -0.8326  1.7758  0.4918
   66SAPC   C38 5511   4.367   2.691   7.279 -0.0112  0.5918  0.0409
   66SAPC   H8X 5512   4.469   2.649   7.265  0.0299  0.7179 -0.0270
   66SAPC   H8Y 5513   4.311   2.595   7.287  3.1646 -1.2331  1.2033
   66SAPC   C39 5514   4.351   2.754   7.420 -0.5057  0.4946  0.4396
   66SAPC   H9X 5515   4.344   2.669   7.492 -1.1032  0.8588  0.8187
   66SAPC   H9Y 5516   4.249   2.799   7.418 -0.8914 -0.3716  0.2482
   66SAPC  C310 5517   4.467   2.847   7.452  0.7971 -0.0327 -0.2769
   66SAPC  H10X 5518   4.462   2.937   7.388 -0.9840  0.9174  1.1514
   66SAPC  H10Y 5519   4.569   2.803   7.452  1.6449  1.8843  0.7646
   66SAPC  C311 5520   4.451   2.909   7.589 -0.0450  0.2507  0.0101
   66SAPC  H11X 5521   4.433   2.836   7.671 -0.2716 -0.7248 -0.9113
   66SAPC  H11Y 5522   4.372   2.988   7.587  0.9986  1.3090  0.0979
   66SAPC  C312 5523   4.569   2.997   7.630 -0.3449 -1.0611 -0.4591
   66SAPC  H12X 5524   4.614   3.045   7.540  2.4558 -0.6422  1.0984
   66SAPC  H12Y 5525   4.650   2.925   7.656  2.2808  1.5211 -1.2006
   66SAPC  C313 5526   4.539   3.097   7.747 -0.0408  0.6802  0.2386
   66SAPC  H13X 5527   4.477   3.051   7.826  0.0152  0.4915  0.1722
   66SAPC  H13Y 5528   4.468   3.176   7.715  1.5613  2.2577  0.4820
   66SAPC  C314 5529   4.661   3.156   7.811 -0.2205  0.0226  0.2036
   66SAPC  H14X 5530   4.703   3.216   7.727  0.4640 -1.4426 -0.5127
   66SAPC  H14Y 5531   4.741   3.079   7.820 -0.4154  0.1355  3.5613
   66SAPC  C315 5532   4.637   3.242   7.936 -0.4455  0.3449  0.0412
   66SAPC  H15X 5533   4.677   3.187   8.024  1.1633  1.9188  0.3304
   66SAPC  H15Y 5534   4.528   3.262   7.945 -0.1420  1.5414  1.1078
   66SAPC  C316 5535   4.728   3.365   7.935 -0.3248  0.0125 -0.2902
   66SAPC  H16X 5536   4.691   3.416   7.843 -0.5147 -3.3674 -2.1740
   66SAPC  H16Y 5537   4.833   3.337   7.912 -0.1162  1.9448 -1.7863
   66SAPC  C317 5538   4.714   3.461   8.057 -0.3580 -0.2755 -0.1248
   66SAPC  H17X 5539   4.772   3.555   8.038 -3.2810  0.8531 -4.1736
   66SAPC  H17Y 5540   4.748   3.402   8.144 -2.8112 -0.5898  0.6461
   66SAPC  C318 5541   4.572   3.502   8.093  0.0043 -0.4080  0.1807
   66SAPC  H18X 5542   4.526   3.562   8.012 -1.8191 -2.3630 -0.2789
   66SAPC  H18Y 5543   4.592   3.556   8.189  2.4258 -1.9037  0.5603
   66SAPC  H18Z 5544   4.502   3.419   8.115 -0.1286 -1.2051 -3.0315
   67SAPC     N 5545   0.800   4.519   6.297  0.4218 -0.5581  0.1167
   67SAPC   C12 5546   0.704   4.619   6.233  0.0709  0.1449  0.0307
   67SAPC  H12A 5547   0.681   4.607   6.128 -5.0235 -0.9836  1.1154
   67SAPC  H12B 5548   0.747   4.716   6.254  0.4896  0.1273 -0.7096
   67SAPC   C13 5549   0.798   4.528   6.444 -0.4424  0.7392  0.8475
   67SAPC  H13A 5550   0.854   4.446   6.485  1.2564  1.6673  0.4272
   67SAPC  H13B 5551   0.843   4.619   6.482  1.1973  0.0920  0.4724
   67SAPC  H13C 5552   0.695   4.534   6.477 -1.3167  3.1454 -2.0165
   67SAPC   C14 5553   0.769   4.372   6.260  0.6821  0.1829 -0.1300
   67SAPC  H14A 5554   0.781   4.357   6.154  1.2160  2.1745 -0.3810
   67SAPC  H14B 5555   0.852   4.320   6.307  0.4002 -2.3306 -2.3167
   67SAPC  H14C 5556   0.675   4.336   6.300  0.4047 -0.0314 -0.9748
   67SAPC   C15 5557   0.938   4.552   6.267  0.1807 -0.3840  0.4340
   67SAPC  H15A 5558   1.003   4.469   6.292 -0.0396 -0.2430  1.4910
   67SAPC  H15B 5559   0.949   4.564   6.161 -2.3816 -1.9655 -0.0522
   67SAPC  H15C 5560   0.968   4.639   6.324 -1.4004 -1.4498  2.9875
   67SAPC   C11 5561   0.562   4.617   6.292 -0.6613 -0.7148  0.9064
   67SAPC  H11A 5562   0.525   4.512   6.287  1.3432 -1.4078  0.0049
   67SAPC  H11B 5563   0.507   4.677   6.216  3.4021  0.8861 -0.9308
   67SAPC     P 5564   0.502   4.821   6.437 -0.1081  0.0118 -0.2897
   67SAPC   O13 5565   0.588   4.915   6.361  0.3399 -0.1185  0.0677
   67SAPC   O14 5566   0.357   4.826   6.400 -0.2133  0.4003 -0.0476
   67SAPC   O12 5567   0.560   4.674   6.419  0.4013  0.2943 -0.8604
   67SAPC   O11 5568   0.506   4.860   6.590 -0.0176 -0.6335  0.2898
   67SAPC    C1 5569   0.621   4.814   6.665  0.5329  0.3417  0.1046
   67SAPC    HA 5570   0.699   4.762   6.605  1.2260 -0.0030  1.3004
   67SAPC    HB 5571   0.669   4.896   6.724  1.5589 -0.1467 -0.0446
   67SAPC    C2 5572   0.579   4.713   6.771 -0.6464  0.4593 -0.3652
   67SAPC    HS 5573   0.511   4.641   6.720 -0.3392 -1.5822  2.0177
   67SAPC   O21 5574   0.493   4.788   6.863 -0.4235 -0.7121  0.1617
   67SAPC   C21 5575   0.410   4.721   6.940 -0.2509 -0.7667 -0.0371
   67SAPC   O22 5576   0.377   4.603   6.936 -0.1936  0.2187  0.1628
   67SAPC   C22 5577   0.352   4.824   7.042 -0.4444  0.0931 -0.6538
   67SAPC   H2R 5578   0.347   4.923   6.992  1.5518  1.2961  1.3989
   67SAPC   H2S 5579   0.247   4.793   7.059 -0.1395 -1.2690 -1.2513
   67SAPC    C3 5580   0.700   4.637   6.835  0.8410  0.1032  0.5197
   67SAPC    HX 5581   0.768   4.703   6.892  0.7990  0.5034  0.1055
   67SAPC    HY 5582   0.769   4.605   6.754 -0.0129  0.5354 -0.3836
   67SAPC   O31 5583   0.656   4.529   6.918  0.1371  0.0638  0.5613
   67SAPC   C31 5584   0.616   4.417   6.863 -0.5818  1.1503 -0.5941
   67SAPC   O32 5585   0.613   4.398   6.744 -0.0771 -0.2415 -0.2579
   67SAPC   C32 5586   0.605   4.316   6.968  0.3172 -1.1969  0.2076
   67SAPC   H2X 5587   0.612   4.375   7.062  0.4495  1.5701 -1.4764
   67SAPC   H2Y 5588   0.700   4.260   6.956  0.2711 -0.9009 -1.7580
   67SAPC   C23 5589   0.447   4.833   7.174 -0.0306 -0.1291 -1.0562
   67SAPC   H3R 5590   0.396   4.897   7.249  1.1049  0.0137 -0.4066
   67SAPC   H3S 5591   0.543   4.882   7.149 -0.0764  0.1683 -0.6538
   67SAPC   C24 5592   0.465   4.696   7.245  0.4649 -0.1462  1.2723
   67SAPC   H4R 5593   0.512   4.707   7.345 -0.2290  0.8478  1.4986
   67SAPC   H4S 5594   0.529   4.642   7.172  1.0878 -0.4596  2.0399
   67SAPC   C25 5595   0.333   4.622   7.260  1.1270 -0.1991 -0.1364
   67SAPC   H5R 5596   0.299   4.571   7.168  0.6644  1.6881 -1.0524
   67SAPC   C26 5597   0.270   4.598   7.373 -0.3512  0.1114 -0.3052
   67SAPC   H6R 5598   0.180   4.535   7.371 -0.1134 -0.2529  0.4625
   67SAPC   C27 5599   0.303   4.635   7.517 -0.9803  0.3968 -0.2118
   67SAPC   H7R 5600   0.212   4.668   7.572 -1.4060 -1.9464  0.5359
   67SAPC   H7S 5601   0.376   4.720   7.515 -1.1750  0.6264  1.3831
   67SAPC   C28 5602   0.366   4.522   7.600  1.0845  0.3139 -0.5581
   67SAPC   H8R 5603   0.446   4.469   7.545  2.9429  1.7878  0.6300
   67SAPC   C29 5604   0.330   4.501   7.732 -0.0716  0.0414 -0.1589
   67SAPC   H9R 5605   0.370   4.409   7.778 -1.8987 -0.3098  0.7619
   67SAPC  C210 5606   0.229   4.581   7.818  0.8315 -0.3944  0.2214
   67SAPC  H10R 5607   0.188   4.528   7.907  0.3843 -0.4240  0.0034
   67SAPC  H10S 5608   0.141   4.619   7.761  0.3324 -1.0816  0.5160
   67SAPC  C211 5609   0.297   4.702   7.868  0.6436  0.0365  1.0411
   67SAPC  H11R 5610   0.367   4.755   7.802  2.3894  0.0400  2.8144
   67SAPC  C212 5611   0.277   4.750   7.991 -0.6312  0.1257  0.0786
   67SAPC  H12R 5612   0.340   4.837   8.013  1.6660 -1.4934  0.1980
   67SAPC  C213 5613   0.180   4.702   8.096  0.3611 -1.2261 -0.2221
   67SAPC  H13R 5614   0.212   4.600   8.123  4.2549  0.0863  0.3947
   67SAPC  H13S 5615   0.077   4.692   8.054  0.2785 -1.2310 -0.0154
   67SAPC  C214 5616   0.174   4.784   8.222  0.0330 -0.5614  0.7331
   67SAPC  H14R 5617   0.121   4.880   8.213 -0.9999 -1.1039  1.0243
   67SAPC  C215 5618   0.234   4.759   8.342  0.5907 -0.5017  0.5052
   67SAPC  H15R 5619   0.216   4.825   8.428  0.7008  1.1061 -0.6841
   67SAPC  C216 5620   0.313   4.641   8.372  0.2742 -0.0392  0.4085
   67SAPC  H16R 5621   0.407   4.649   8.314  0.2867 -1.4689  0.2087
   67SAPC  H16S 5622   0.265   4.546   8.340 -0.6842  0.3401  0.6965
   67SAPC  C217 5623   0.366   4.621   8.519 -0.1438  0.9867  0.4162
   67SAPC  H17R 5624   0.425   4.713   8.538  2.0285 -0.3033  0.1005
   67SAPC  H17S 5625   0.426   4.527   8.517 -1.1578  0.3534 -0.7839
   67SAPC  C218 5626   0.254   4.602   8.627  0.5672  0.1413  0.6612
   67SAPC  H18R 5627   0.191   4.514   8.604  2.5440 -1.1773  0.2177
   67SAPC  H18S 5628   0.189   4.693   8.622 -2.9694 -2.2613  1.1690
   67SAPC  C219 5629   0.304   4.581   8.769  0.1403 -0.1032 -0.2781
   67SAPC  H19R 5630   0.317   4.680   8.818  0.1670 -1.3888  2.3844
   67SAPC  H19S 5631   0.404   4.534   8.770  1.0612  1.8285  0.7595
   67SAPC  C220 5632   0.203   4.504   8.859  0.0210 -0.3696 -0.5242
   67SAPC  H20R 5633   0.111   4.567   8.866 -0.2420 -0.9854  2.0498
   67SAPC  H20S 5634   0.247   4.491   8.961  0.0028  1.8806 -0.1991
   67SAPC  H20T 5635   0.177   4.406   8.816  2.5738  0.0835 -3.2549
   67SAPC   C33 5636   0.481   4.230   6.968  0.3583  0.2445  0.4075
   67SAPC   H3X 5637   0.521   4.127   6.960  1.9901  0.7108  2.2730
   67SAPC   H3Y 5638   0.420   4.252   6.877 -0.6063 -2.1710  0.4221
   67SAPC   C34 5639   0.390   4.238   7.102 -0.1929  0.5760 -0.2002
   67SAPC   H4X 5640   0.297   4.180   7.090  0.6735 -0.8839  0.0523
   67SAPC   H4Y 5641   0.372   4.345   7.126  3.0022  1.0465  0.3307
   67SAPC   C35 5642   0.464   4.175   7.230 -0.1314 -0.3857  0.3931
   67SAPC   H5X 5643   0.552   4.234   7.263 -0.0286 -1.0809  1.3774
   67SAPC   H5Y 5644   0.502   4.074   7.205  0.2554 -0.2927  0.6090
   67SAPC   C36 5645   0.374   4.171   7.355 -0.2015  0.2384  0.0592
   67SAPC   H6X 5646   0.286   4.104   7.349 -0.0785 -0.2179  2.8828
   67SAPC   H6Y 5647   0.346   4.275   7.381 -2.9618 -0.8730  1.6830
   67SAPC   C37 5648   0.455   4.117   7.473  0.1529 -0.4713 -0.6413
   67SAPC   H7X 5649   0.548   4.176   7.489 -0.3413  0.2498 -0.4055
   67SAPC   H7Y 5650   0.479   4.016   7.436 -3.5143 -1.6528 -0.0318
   67SAPC   C38 5651   0.375   4.106   7.609  0.0486  0.1699  0.1525
   67SAPC   H8X 5652   0.322   4.009   7.594 -1.6081  1.3001 -1.5022
   67SAPC   H8Y 5653   0.297   4.183   7.624  0.0759  0.5031 -1.3866
   67SAPC   C39 5654   0.462   4.089   7.729 -0.0637 -0.5932 -0.1691
   67SAPC   H9X 5655   0.520   4.182   7.745  2.3634 -1.7663 -1.7791
   67SAPC   H9Y 5656   0.538   4.009   7.711  1.5791  1.1441 -1.1603
   67SAPC  C310 5657   0.396   4.050   7.863  0.2399 -0.2428 -0.6572
   67SAPC  H10X 5658   0.316   4.125   7.878  1.3934  0.9576 -0.4919
   67SAPC  H10Y 5659   0.462   4.075   7.948  0.0401  1.1596 -0.9005
   67SAPC  C311 5660   0.355   3.901   7.874  0.1459 -0.6649  0.3720
   67SAPC  H11X 5661   0.435   3.831   7.842  0.1262 -0.3798 -0.3137
   67SAPC  H11Y 5662   0.260   3.870   7.825  0.3280  1.5201 -1.4681
   67SAPC  C312 5663   0.331   3.864   8.022  0.3581 -0.3416  0.1702
   67SAPC  H12X 5664   0.427   3.858   8.077 -0.3669  2.4692  1.8097
   67SAPC  H12Y 5665   0.283   3.764   8.010  1.8071 -0.9035 -1.2096
   67SAPC  C313 5666   0.242   3.954   8.096 -0.0914  0.3153 -0.7486
   67SAPC  H13X 5667   0.147   3.962   8.039  0.4312 -0.0033 -1.6798
   67SAPC  H13Y 5668   0.293   4.053   8.097  0.8653 -0.1177  2.9911
   67SAPC  C314 5669   0.200   3.895   8.236 -0.3724  0.0319  0.5098
   67SAPC  H14X 5670   0.296   3.867   8.284  0.6414  0.6217 -1.1174
   67SAPC  H14Y 5671   0.147   3.798   8.221 -0.8156  0.1291  1.4389
   67SAPC  C315 5672   0.102   3.994   8.314 -0.3467 -0.2394  0.2234
   67SAPC  H15X 5673   0.000   3.979   8.272 -0.9353  0.7581  1.2857
   67SAPC  H15Y 5674   0.143   4.094   8.287  1.0464 -1.6078 -3.0607
   67SAPC  C316 5675   0.106   3.976   8.466  0.0170 -0.0207 -0.4289
   67SAPC  H16X 5676   0.209   3.939   8.483  0.1149 -0.0364 -1.0523
   67SAPC  H16Y 5677   0.034   3.898   8.500 -0.6949  0.5701 -0.5734
   67SAPC  C317 5678   0.088   4.101   8.555  0.7370 -0.2590  0.2282
   67SAPC  H17X 5679  -0.017   4.135   8.568  1.0081  0.0227  1.7388
   67SAPC  H17Y 5680   0.160   4.178   8.518  2.3926 -1.1574  1.5582
   67SAPC  C318 5681   0.134   4.065   8.696 -0.0949  0.1536  0.3109
   67SAPC  H18X 5682   0.139   4.162   8.750 -1.3517  1.2881 -1.5217
   67SAPC  H18Y 5683   0.233   4.015   8.693 -0.1202  0.1476 -0.5854
   67SAPC  H18Z 5684   0.063   3.992   8.739  1.1722 -2.5883 -2.0670
   68SAPC     N 5685   5.768   3.642   6.053  0.2161 -0.3796  0.7178
   68SAPC   C12 5686   5.627   3.674   6.035  0.0392 -0.4841  0.3894
   68SAPC  H12A 5687   5.581   3.588   5.989 -1.2671  0.2075  0.3804
   68SAPC  H12B 5688   5.628   3.745   5.954  0.5309 -1.0774 -0.1322
   68SAPC   C13 5689   5.837   3.642   5.920 -0.3100  0.9132 -0.4049
   68SAPC  H13A 5690   5.802   3.555   5.865 -0.0202  1.8032 -2.0233
   68SAPC  H13B 5691   5.812   3.732   5.866 -0.6319  0.6855 -0.6440
   68SAPC  H13C 5692   5.943   3.638   5.937 -0.5880 -0.6001  1.1448
   68SAPC   C14 5693   5.841   3.748   6.132  0.4274  0.4673 -0.4361
   68SAPC  H14A 5694   5.859   3.840   6.078  0.1706 -0.2111 -1.7160
   68SAPC  H14B 5695   5.802   3.765   6.231  0.4273  1.4393 -0.5947
   68SAPC  H14C 5696   5.941   3.709   6.141 -0.3635 -1.7956 -1.1831
   68SAPC   C15 5697   5.775   3.502   6.114 -0.1414  0.3732  0.4383
   68SAPC  H15A 5698   5.694   3.498   6.185  0.2066 -0.5500  0.7869
   68SAPC  H15B 5699   5.771   3.428   6.036  0.9024 -1.3081  1.9477
   68SAPC  H15C 5700   5.870   3.478   6.161 -0.3527 -0.5272  0.4015
   68SAPC   C11 5701   5.546   3.698   6.158 -0.3728  0.1619 -0.0742
   68SAPC  H11A 5702   5.450   3.729   6.112 -0.5642  1.5134  1.1777
   68SAPC  H11B 5703   5.580   3.789   6.212 -0.6411 -1.1254  2.3441
   68SAPC     P 5704   5.390   3.505   6.250 -0.0809  0.1848 -0.1518
   68SAPC   O13 5705   5.271   3.575   6.192 -0.0669  0.4109 -0.5499
   68SAPC   O14 5706   5.409   3.369   6.198 -0.0809 -0.0582  0.2058
   68SAPC   O12 5707   5.523   3.582   6.238 -0.1405  0.6873  0.0846
   68SAPC   O11 5708   5.365   3.508   6.403  0.1656 -0.1933 -0.4983
   68SAPC    C1 5709   5.337   3.628   6.479  0.6738 -0.1116 -0.6593
   68SAPC    HA 5710   5.304   3.715   6.418  2.2138 -0.3175 -1.8093
   68SAPC    HB 5711   5.255   3.602   6.549  0.1916 -0.9278 -1.5008
   68SAPC    C2 5712   5.455   3.677   6.562 -0.3979 -0.2095  0.0475
   68SAPC    HS 5713   5.543   3.694   6.496 -0.9446  0.0043 -0.6427
   68SAPC   O21 5714   5.474   3.581   6.671 -0.3836  0.4793  0.4693
   68SAPC   C21 5715   5.603   3.551   6.696 -1.4400  0.0046  1.0419
   68SAPC   O22 5716   5.702   3.581   6.630  0.0653  0.0053  0.4730
   68SAPC   C22 5717   5.618   3.471   6.832  0.8516 -0.2014 -0.2972
   68SAPC   H2R 5718   5.642   3.546   6.911 -0.1625  0.2104 -0.3749
   68SAPC   H2S 5719   5.522   3.423   6.858  1.5454 -0.1422  2.5542
   68SAPC    C3 5720   5.419   3.818   6.618 -0.2732 -0.2499 -1.0993
   68SAPC    HX 5721   5.338   3.804   6.692  0.3014 -0.4281 -0.4979
   68SAPC    HY 5722   5.388   3.893   6.543 -0.2016  0.9786  0.0933
   68SAPC   O31 5723   5.527   3.870   6.695  0.0112 -0.3132  0.5204
   68SAPC   C31 5724   5.537   3.999   6.723 -0.0933  0.7462  0.4329
   68SAPC   O32 5725   5.461   4.087   6.687 -0.0554 -0.3002  0.4997
   68SAPC   C32 5726   5.679   4.013   6.795  0.6728 -0.0054 -0.3227
   68SAPC   H2X 5727   5.661   3.981   6.899 -0.7167  1.6439 -0.0350
   68SAPC   H2Y 5728   5.705   4.121   6.792  2.2604 -0.4052 -3.0906
   68SAPC   C23 5729   5.724   3.361   6.827 -0.1685 -0.3697  0.2680
   68SAPC   H3R 5730   5.714   3.292   6.740  1.7600  1.0954 -1.1727
   68SAPC   H3S 5731   5.718   3.297   6.918 -1.7870 -1.6169 -0.6817
   68SAPC   C24 5732   5.865   3.424   6.837 -0.0680 -0.0859  0.4739
   68SAPC   H4R 5733   5.846   3.526   6.878  1.5961  0.4721 -0.1288
   68SAPC   H4S 5734   5.906   3.447   6.737 -0.8177  1.5499  0.5111
   68SAPC   C25 5735   5.967   3.345   6.919 -0.4422 -0.5278  0.4848
   68SAPC   H5R 5736   6.039   3.287   6.858 -0.3817 -0.8717  0.8775
   68SAPC   C26 5737   5.965   3.335   7.052  0.3369 -0.5277  0.3566
   68SAPC   H6R 5738   6.020   3.261   7.111  0.2995  0.7679  2.0583
   68SAPC   C27 5739   5.853   3.383   7.148 -0.3377 -0.1484  1.0752
   68SAPC   H7R 5740   5.780   3.447   7.094  0.1643  0.1933  0.8023
   68SAPC   H7S 5741   5.897   3.465   7.210  0.3816  0.5893 -0.3984
   68SAPC   C28 5742   5.798   3.267   7.228 -0.1818  0.0733  0.4125
   68SAPC   H8R 5743   5.725   3.199   7.182 -1.3889 -0.0251  2.3875
   68SAPC   C29 5744   5.839   3.230   7.349 -0.8175  0.1292 -0.2141
   68SAPC   H9R 5745   5.794   3.140   7.392 -1.3750 -0.2936 -1.6695
   68SAPC  C210 5746   5.940   3.293   7.433 -0.5966 -0.3830 -0.1013
   68SAPC  H10R 5747   6.041   3.322   7.396 -0.9351 -2.8203 -3.0984
   68SAPC  H10S 5748   5.977   3.211   7.497 -1.6597 -2.7634 -2.4633
   68SAPC  C211 5749   5.888   3.406   7.510 -0.2011 -0.0573 -0.4723
   68SAPC  H11R 5750   5.843   3.493   7.460 -0.2856  0.3375  0.2732
   68SAPC  C212 5751   5.913   3.420   7.643 -0.2990 -0.3725  0.5077
   68SAPC  H12R 5752   5.874   3.515   7.684  0.4342 -0.0445  0.4656
   68SAPC  C213 5753   5.995   3.328   7.735 -0.1726  0.2452 -0.4882
   68SAPC  H13R 5754   6.016   3.223   7.704  0.3010 -0.0764  0.8534
   68SAPC  H13S 5755   5.937   3.310   7.828 -3.0561  4.0777 -1.4258
   68SAPC  C214 5756   6.125   3.393   7.773 -0.0395 -0.0956  0.2292
   68SAPC  H14R 5757   6.197   3.413   7.692 -0.1973  1.1271  0.3749
   68SAPC  C215 5758   6.175   3.425   7.890 -0.0524 -0.2688  0.7726
   68SAPC  H15R 5759   6.274   3.473   7.889 -0.2996  0.2446  0.7575
   68SAPC  C216 5760   6.121   3.406   8.028  0.7759 -0.4853 -0.3389
   68SAPC  H16R 5761   6.183   3.343   8.096 -1.4180 -1.4619  0.7879
   68SAPC  H16S 5762   6.023   3.354   8.031  0.9108 -0.7463 -0.4016
   68SAPC  C217 5763   6.109   3.554   8.083  0.7230  0.2287 -0.2265
   68SAPC  H17R 5764   6.053   3.610   8.004 -0.5489  0.1893  0.6214
   68SAPC  H17S 5765   6.207   3.603   8.099  0.1371  1.2333  0.3106
   68SAPC  C218 5766   6.043   3.554   8.225 -0.0316 -0.4064  0.2585
   68SAPC  H18R 5767   6.093   3.480   8.292  3.6054  2.0732  0.4591
   68SAPC  H18S 5768   5.945   3.510   8.198  0.0146 -2.7370  3.5476
   68SAPC  C219 5769   6.034   3.689   8.294  0.4173 -0.0252 -0.0525
   68SAPC  H19R 5770   5.970   3.681   8.384 -0.1314  0.3807 -0.4004
   68SAPC  H19S 5771   5.987   3.763   8.226 -1.3127 -2.0215 -1.1199
   68SAPC  C220 5772   6.164   3.750   8.343  0.4003 -0.0553 -0.1164
   68SAPC  H20R 5773   6.224   3.770   8.252  0.8688 -2.5836 -0.4159
   68SAPC  H20S 5774   6.215   3.679   8.411 -0.2824  0.3386  0.8175
   68SAPC  H20T 5775   6.149   3.850   8.389 -0.5684 -1.1174  1.9737
   68SAPC   C33 5776   5.790   3.922   6.740 -0.7962 -0.8295  0.5091
   68SAPC   H3X 5777   5.824   3.955   6.639 -0.2963  3.0948  1.8670
   68SAPC   H3Y 5778   5.761   3.815   6.739 -0.3775 -0.9550  1.7678
   68SAPC   C34 5779   5.920   3.934   6.827  0.2435  0.2657  0.3598
   68SAPC   H4X 5780   5.884   3.917   6.931  1.1891  0.3203  0.6953
   68SAPC   H4Y 5781   5.949   4.041   6.818 -1.6428  0.8156  0.5650
   68SAPC   C35 5782   6.031   3.833   6.786  0.5788 -0.7501 -0.7433
   68SAPC   H5X 5783   6.092   3.884   6.709  2.2299 -1.4753  0.0521
   68SAPC   H5Y 5784   5.987   3.742   6.740  0.9812 -0.6785 -1.2782
   68SAPC   C36 5785   6.131   3.801   6.901 -0.5218  0.3819 -0.4955
   68SAPC   H6X 5786   6.180   3.894   6.935  1.1081 -1.6513  3.0815
   68SAPC   H6Y 5787   6.214   3.736   6.864  0.0255  0.3855  0.7018
   68SAPC   C37 5788   6.078   3.738   7.029 -0.2234  0.5423  0.5417
   68SAPC   H7X 5789   6.033   3.637   7.012  1.1199 -0.0622  0.5182
   68SAPC   H7Y 5790   6.011   3.808   7.083  1.8758  2.9109  0.1411
   68SAPC   C38 5791   6.195   3.715   7.133  0.3993  0.3740 -0.0039
   68SAPC   H8X 5792   6.151   3.735   7.233 -0.0700  0.8214 -0.2961
   68SAPC   H8Y 5793   6.265   3.801   7.131 -0.3442  1.0854  2.4616
   68SAPC   C39 5794   6.257   3.580   7.118 -0.1877 -0.8788 -0.2940
   68SAPC   H9X 5795   6.294   3.566   7.014  3.4969 -0.3163  0.8726
   68SAPC   H9Y 5796   6.180   3.500   7.125 -1.3592  0.2648  0.1161
   68SAPC  C310 5797   6.379   3.552   7.202  0.4070  0.1203  0.1613
   68SAPC  H10X 5798   6.465   3.578   7.136 -2.3549  2.7272 -2.5578
   68SAPC  H10Y 5799   6.381   3.442   7.216  1.2162  0.0041 -0.8303
   68SAPC  C311 5800   6.387   3.624   7.339 -0.8230  0.2598  0.5068
   68SAPC  H11X 5801   6.386   3.727   7.298 -1.0012 -0.5082 -1.4792
   68SAPC  H11Y 5802   6.490   3.598   7.371 -0.4104 -1.0196 -1.7768
   68SAPC  C312 5803   6.276   3.580   7.435  0.2125  0.4369  0.3798
   68SAPC  H12X 5804   6.307   3.478   7.465 -1.2919 -0.2512 -0.3738
   68SAPC  H12Y 5805   6.181   3.567   7.380  1.0190 -1.1360 -0.7020
   68SAPC  C313 5806   6.273   3.689   7.544 -0.4428 -0.1535  0.0755
   68SAPC  H13X 5807   6.204   3.658   7.626  0.6290  0.2580  1.1382
   68SAPC  H13Y 5808   6.222   3.782   7.511 -0.4359 -0.1758  0.0040
   68SAPC  C314 5809   6.405   3.704   7.620 -0.0152  0.0268 -0.2845
   68SAPC  H14X 5810   6.460   3.778   7.557  0.5851  1.9798  2.4826
   68SAPC  H14Y 5811   6.470   3.614   7.630  1.4310  0.9802 -0.7881
   68SAPC  C315 5812   6.386   3.755   7.757  0.2991  0.2981  0.5502
   68SAPC  H15X 5813   6.362   3.673   7.828  0.4904  1.1354  1.5966
   68SAPC  H15Y 5814   6.305   3.830   7.763 -0.0530 -0.1259  1.1553
   68SAPC  C316 5815   6.514   3.823   7.817  0.0498  0.3796 -0.2773
   68SAPC  H16X 5816   6.517   3.919   7.762  0.9663  1.4643  1.6200
   68SAPC  H16Y 5817   6.602   3.758   7.797 -1.1554 -0.8513 -1.6806
   68SAPC  C317 5818   6.506   3.848   7.974 -0.3380 -0.2889 -0.2030
   68SAPC  H17X 5819   6.505   3.745   8.015  2.9239 -1.1645 -2.1178
   68SAPC  H17Y 5820   6.417   3.905   8.009 -0.6590 -0.9268  0.0260
   68SAPC  C318 5821   6.621   3.934   8.019 -0.2304 -0.4012  0.4142
   68SAPC  H18X 5822   6.619   3.930   8.130 -1.0827  0.7395  0.4500
   68SAPC  H18Y 5823   6.613   4.041   7.989 -1.1884 -0.7978 -0.7977
   68SAPC  H18Z 5824   6.711   3.895   7.967 -0.0048  0.9523 -0.2315
   69SLPC     N 5825   2.813   2.071  11.295 -0.3856  0.0569  0.4724
   69SLPC   C13 5826   2.922   2.167  11.248  0.5788 -0.2851 -0.8176
   69SLPC  H13A 5827   2.953   2.241  11.320 -1.2082 -2.9276  2.7826
   69SLPC  H13B 5828   3.020   2.128  11.225 -0.2636 -2.7902 -0.2850
   69SLPC  H13C 5829   2.881   2.215  11.160  0.8200  3.0044  0.8140
   69SLPC   C14 5830   2.699   2.148  11.345 -0.2146 -0.3674 -0.0902
   69SLPC  H14A 5831   2.626   2.077  11.381 -1.8685  2.5027  2.4520
   69SLPC  H14B 5832   2.720   2.212  11.429  0.8636 -0.6705 -0.1170
   69SLPC  H14C 5833   2.657   2.207  11.264 -2.6067  1.1203  2.1527
   69SLPC   C15 5834   2.862   1.992  11.414 -0.4261  0.5860  0.6321
   69SLPC  H15A 5835   2.952   1.935  11.394 -1.2042 -0.7542  0.8834
   69SLPC  H15B 5836   2.882   2.061  11.495  0.0285  1.0744  0.1019
   69SLPC  H15C 5837   2.797   1.911  11.444 -0.9204 -0.1283 -2.2689
   69SLPC   C12 5838   2.776   1.973  11.183  0.3016 -0.4890 -0.2495
   69SLPC  H12A 5839   2.698   1.906  11.215 -0.4125  1.1823  1.5623
   69SLPC  H12B 5840   2.862   1.912  11.163  0.6331  0.7339 -2.7481
   69SLPC   C11 5841   2.727   2.036  11.052  0.2428 -0.4028  0.1208
   69SLPC  H11A 5842   2.698   1.950  10.988  0.4309  1.9716 -3.3487
   69SLPC  H11B 5843   2.812   2.089  11.004 -2.1969  2.2950 -1.4122
   69SLPC     P 5844   2.462   2.069  11.081 -0.0148  0.0280 -0.2057
   69SLPC   O13 5845   2.467   1.927  11.133  0.1944 -0.1646 -0.5967
   69SLPC   O14 5846   2.381   2.161  11.161  0.8931 -0.4014  0.3540
   69SLPC   O12 5847   2.612   2.126  11.077 -0.4992  0.2203  0.2916
   69SLPC   O11 5848   2.412   2.074  10.936 -0.1684 -0.0447  0.0682
   69SLPC    C1 5849   2.377   1.960  10.856 -0.7237 -0.1290  0.2905
   69SLPC    HA 5850   2.350   1.882  10.930 -1.2350  0.9285  1.2419
   69SLPC    HB 5851   2.294   1.986  10.786 -2.5664  3.2605  3.5442
   69SLPC    C2 5852   2.495   1.897  10.786  0.0969  0.0066  0.1561
   69SLPC    HS 5853   2.565   1.871  10.869  0.7895 -0.8162 -0.6682
   69SLPC   O21 5854   2.546   2.003  10.703 -0.4121 -0.2422 -0.2001
   69SLPC   C21 5855   2.671   1.978  10.651  0.5945 -0.2344 -0.1048
   69SLPC   O22 5856   2.746   1.894  10.695  0.3801  0.1863 -0.0411
   69SLPC   C22 5857   2.711   2.086  10.557  0.3551  0.0327 -0.2011
   69SLPC   H2R 5858   2.683   2.181  10.607 -0.0597 -0.1961  0.0105
   69SLPC   H2S 5859   2.817   2.062  10.538  0.0985 -0.5004 -0.9642
   69SLPC    C3 5860   2.457   1.764  10.702 -0.2380  0.3541 -0.3258
   69SLPC    HX 5861   2.410   1.689  10.771 -1.1312 -0.5705 -1.9145
   69SLPC    HY 5862   2.551   1.713  10.674  0.0209  0.0329  1.0519
   69SLPC   O31 5863   2.362   1.785  10.595 -0.0404  0.5352 -0.3806
   69SLPC   C31 5864   2.415   1.777  10.476 -0.4814  0.1527 -0.5222
   69SLPC   O32 5865   2.526   1.742  10.447 -0.2580  0.6469  0.1195
   69SLPC   C32 5866   2.307   1.833  10.373 -0.0610 -0.1723 -0.1549
   69SLPC   H2X 5867   2.312   1.943  10.391 -3.1421  0.3051 -1.8400
   69SLPC   H2Y 5868   2.203   1.804  10.397 -0.1793  0.4381  0.0945
   69SLPC   C23 5869   2.641   2.085  10.422  0.1921  0.0828  0.3443
   69SLPC   H3R 5870   2.532   2.101  10.433  0.7840  3.8265  1.3623
   69SLPC   H3S 5871   2.647   1.978  10.393  2.6912  0.2736  0.0358
   69SLPC   C24 5872   2.684   2.193  10.332 -0.9869 -0.1326 -0.2713
   69SLPC   H4R 5873   2.795   2.206  10.333 -0.7978 -1.5331 -1.7157
   69SLPC   H4S 5874   2.643   2.288  10.374  0.4496  0.1062  0.6312
   69SLPC   C25 5875   2.642   2.186  10.189  0.3257  0.1014  0.7005
   69SLPC   H5R 5876   2.540   2.230  10.181  0.1457 -0.7353 -2.1960
   69SLPC   H5S 5877   2.629   2.078  10.163 -0.1794 -0.2501  2.3175
   69SLPC   C26 5878   2.723   2.252  10.083 -0.8781 -0.9094 -0.2700
   69SLPC   H6R 5879   2.828   2.225  10.109 -1.3623 -3.7157 -1.0773
   69SLPC   H6S 5880   2.704   2.361  10.075  0.6067 -0.6680 -0.8328
   69SLPC   C27 5881   2.695   2.194   9.952 -0.2178 -0.2371  0.0788
   69SLPC   H7R 5882   2.586   2.182   9.933  0.2875 -0.1452 -3.1758
   69SLPC   H7S 5883   2.732   2.089   9.945 -0.7851 -0.5070  1.0200
   69SLPC   C28 5884   2.762   2.273   9.831  0.7580  0.5056  0.4592
   69SLPC   H8R 5885   2.863   2.226   9.838 -0.5235 -2.1801  1.8135
   69SLPC   H8S 5886   2.754   2.381   9.856 -0.0265  0.5199  0.1551
   69SLPC   C29 5887   2.709   2.228   9.698 -0.5696  0.0692  0.4662
   69SLPC   H9R 5888   2.650   2.137   9.683  0.0233 -0.0648 -1.1212
   69SLPC  C210 5889   2.749   2.276   9.576 -0.8131  0.1356 -0.2762
   69SLPC  H10R 5890   2.711   2.226   9.485 -0.6295  1.2100 -0.9532
   69SLPC  C211 5891   2.855   2.383   9.550  0.1433 -0.8210  0.5198
   69SLPC  H11R 5892   2.948   2.326   9.528 -0.4505 -1.0340 -1.5831
   69SLPC  H11S 5893   2.878   2.429   9.647  0.6386  0.1507 -0.0590
   69SLPC  C212 5894   2.829   2.485   9.443  0.0237 -0.4176  0.4815
   69SLPC  H12R 5895   2.821   2.587   9.484 -1.8951 -0.3174 -0.1239
   69SLPC  C213 5896   2.832   2.467   9.313  0.1315 -0.0885  0.6258
   69SLPC  H13R 5897   2.819   2.557   9.251 -0.8604 -1.1101 -0.6548
   69SLPC  C214 5898   2.850   2.334   9.248  0.3868 -0.6474  0.6264
   69SLPC  H14R 5899   2.878   2.254   9.320 -1.4030 -0.7138  1.2648
   69SLPC  H14S 5900   2.922   2.335   9.163 -1.3176 -1.1616 -0.8633
   69SLPC  C215 5901   2.720   2.283   9.185 -0.3552  0.5151 -0.0145
   69SLPC  H15R 5902   2.692   2.317   9.083 -0.7217 -2.3161 -0.9031
   69SLPC  H15S 5903   2.637   2.323   9.246  0.7591  1.2872  1.0171
   69SLPC  C216 5904   2.724   2.126   9.171  0.5416 -0.1385 -0.1239
   69SLPC  H16R 5905   2.714   2.085   9.274  0.3747  0.0547 -0.0615
   69SLPC  H16S 5906   2.810   2.084   9.115 -0.4263 -2.8417  0.3420
   69SLPC  C217 5907   2.605   2.079   9.082 -0.6269 -0.3740 -0.4175
   69SLPC  H17R 5908   2.513   2.129   9.122 -1.1529 -0.6567 -1.2713
   69SLPC  H17S 5909   2.594   1.974   9.116  0.6547 -0.9275 -1.6892
   69SLPC  C218 5910   2.610   2.087   8.925  0.7894  0.2233  0.1631
   69SLPC  H18R 5911   2.596   2.192   8.890 -0.8082  0.4259  1.3760
   69SLPC  H18S 5912   2.516   2.042   8.885  0.9184  0.4428 -0.3969
   69SLPC  H18T 5913   2.706   2.050   8.882 -0.2438 -0.4341 -1.6458
   69SLPC   C33 5914   2.327   1.787  10.233  0.0389  0.1538  0.5032
   69SLPC   H3X 5915   2.307   1.678  10.229 -2.4733  0.5820  0.5275
   69SLPC   H3Y 5916   2.432   1.809  10.206  0.2122 -0.4081  0.7045
   69SLPC   C34 5917   2.232   1.858  10.125  0.1220  0.4552 -0.9141
   69SLPC   H4X 5918   2.221   1.968  10.134  1.8068  0.6744 -1.3997
   69SLPC   H4Y 5919   2.130   1.817  10.143  0.4053 -0.2497 -0.8866
   69SLPC   C35 5920   2.280   1.828   9.982  0.7231 -0.3218  0.3197
   69SLPC   H5X 5921   2.201   1.866   9.914  1.9476  0.3507 -0.7415
   69SLPC   H5Y 5922   2.298   1.722   9.957 -0.8087 -1.0367  2.1127
   69SLPC   C36 5923   2.411   1.906   9.959  0.6348 -0.1790 -0.2293
   69SLPC   H6X 5924   2.488   1.863  10.026  1.5611  3.9603  1.5290
   69SLPC   H6Y 5925   2.390   2.010   9.992  1.1404 -0.5872  1.4336
   69SLPC   C37 5926   2.467   1.903   9.822  0.8774  0.6477  1.1439
   69SLPC   H7X 5927   2.505   1.802   9.795  0.7512  0.8290  0.2811
   69SLPC   H7Y 5928   2.553   1.973   9.811  0.0867  1.4857  0.2011
   69SLPC   C38 5929   2.365   1.952   9.711  0.1355  0.5071  0.4690
   69SLPC   H8X 5930   2.334   2.057   9.732 -2.9100  0.4369 -3.1553
   69SLPC   H8Y 5931   2.274   1.888   9.707  0.0513  0.6168  0.6211
   69SLPC   C39 5932   2.426   1.928   9.574 -0.0692 -0.2029 -0.7907
   69SLPC   H9X 5933   2.430   1.818   9.560  1.6351 -0.3800  0.8618
   69SLPC   H9Y 5934   2.530   1.966   9.579 -0.2134  0.0743  0.2076
   69SLPC  C310 5935   2.352   2.016   9.475 -0.3182  0.5704 -0.5100
   69SLPC  H10X 5936   2.365   2.127   9.475  1.1760  0.4098  0.0720
   69SLPC  H10Y 5937   2.248   1.982   9.494  0.6953 -0.4419  3.6031
   69SLPC  C311 5938   2.383   1.969   9.326 -0.0024 -0.2682  0.0430
   69SLPC  H11X 5939   2.399   1.859   9.316 -2.1916 -0.4882 -1.3705
   69SLPC  H11Y 5940   2.475   2.018   9.290  0.0538  1.0743  1.9496
   69SLPC  C312 5941   2.258   2.002   9.236 -0.1518  0.2533  0.7980
   69SLPC  H12X 5942   2.244   2.111   9.249  1.1182  0.3297  1.6553
   69SLPC  H12Y 5943   2.167   1.949   9.271  0.6589 -1.2732  0.6614
   69SLPC  C313 5944   2.277   1.945   9.090  0.0650 -0.4275 -0.6979
   69SLPC  H13X 5945   2.252   1.837   9.086 -0.6908 -0.3417  1.0929
   69SLPC  H13Y 5946   2.382   1.966   9.058 -1.1658  1.5321 -3.6304
   69SLPC  C314 5947   2.186   2.023   8.992 -1.0087 -0.1962  0.6624
   69SLPC  H14X 5948   2.223   2.128   8.987 -1.3720 -0.0613  0.7415
   69SLPC  H14Y 5949   2.081   2.016   9.029 -0.3916  0.6796  2.6233
   69SLPC  C315 5950   2.180   1.949   8.852 -0.3850 -1.2404  0.1041
   69SLPC  H15X 5951   2.211   1.844   8.868 -0.0520 -1.2621 -0.6471
   69SLPC  H15Y 5952   2.248   1.997   8.778  1.3636 -1.0204  1.8037
   69SLPC  C316 5953   2.047   1.950   8.782  0.2311 -0.5642 -0.9038
   69SLPC  H16X 5954   2.056   1.869   8.707 -0.2296  0.4180 -2.0275
   69SLPC  H16Y 5955   2.028   2.048   8.734 -1.0689 -1.4202 -2.1615
   69SLPC  C317 5956   1.925   1.907   8.865  0.2158  0.3524  0.2244
   69SLPC  H17X 5957   1.897   1.992   8.932  0.6335  2.2622 -1.9893
   69SLPC  H17Y 5958   1.957   1.818   8.923  2.0479 -0.2045 -1.6221
   69SLPC  C318 5959   1.810   1.874   8.774  0.4444  0.8396  0.0733
   69SLPC  H18X 5960   1.713   1.844   8.820  0.9236  0.7342  1.0324
   69SLPC  H18Y 5961   1.835   1.802   8.693 -1.0969 -1.2349  1.3745
   69SLPC  H18Z 5962   1.785   1.955   8.703  0.5627  0.8670  0.0619
   70SLPC     N 5963   3.966   0.002  10.981 -0.6408  0.7532  0.3924
   70SLPC   C13 5964   3.943   0.121  10.899  0.0111 -0.9030 -0.6608
   70SLPC  H13A 5965   4.021   0.195  10.900 -0.5223 -0.3418 -0.2648
   70SLPC  H13B 5966   3.927   0.097  10.795 -1.4677 -0.4079 -0.5569
   70SLPC  H13C 5967   3.853   0.178  10.916  1.4347  1.6534 -1.5126
   70SLPC   C14 5968   4.005   0.049  11.120 -0.4912  0.0850  0.1275
   70SLPC  H14A 5969   3.997  -0.027  11.197  0.8590  1.8020  2.0240
   70SLPC  H14B 5970   4.109   0.077  11.122 -0.8285  1.3373  0.0306
   70SLPC  H14C 5971   3.948   0.134  11.153  1.8995  1.0218  1.9884
   70SLPC   C15 5972   4.080  -0.075  10.922 -0.8247  0.4864  0.2592
   70SLPC  H15A 5973   4.066  -0.106  10.820 -2.2466 -2.0334  1.1898
   70SLPC  H15B 5974   4.171  -0.017  10.933  0.5122 -0.7597 -3.4948
   70SLPC  H15C 5975   4.085  -0.172  10.970 -2.1550  0.7514  0.9595
   70SLPC   C12 5976   3.841  -0.085  10.977  0.1198  0.1172 -0.3650
   70SLPC  H12A 5977   3.831  -0.108  10.873 -0.6642  0.1241 -0.2997
   70SLPC  H12B 5978   3.755  -0.029  11.013  0.7808  1.3644 -0.6759
   70SLPC   C11 5979   3.843  -0.227  11.046  0.6624  0.1052 -0.1126
   70SLPC  H11A 5980   3.739  -0.262  11.027  1.2847 -0.1380 -3.2059
   70SLPC  H11B 5981   3.847  -0.231  11.157  1.5362 -1.0408 -0.1750
   70SLPC     P 5982   3.906  -0.431  10.900 -0.3924  0.0835  0.0569
   70SLPC   O13 5983   4.036  -0.489  10.862  0.0253 -0.4617  0.0697
   70SLPC   O14 5984   3.798  -0.520  10.959 -0.2724 -0.0960  0.4999
   70SLPC   O12 5985   3.945  -0.309  10.997 -0.4690 -0.0013 -0.4443
   70SLPC   O11 5986   3.852  -0.365  10.766 -1.1055 -0.2512 -0.6611
   70SLPC    C1 5987   3.733  -0.398  10.699  0.7582  0.0861  0.2509
   70SLPC    HA 5988   3.646  -0.396  10.768  0.5995 -1.4816  0.1022
   70SLPC    HB 5989   3.702  -0.323  10.622 -2.0552 -0.1875  1.0611
   70SLPC    C2 5990   3.741  -0.538  10.616  0.0786  1.0015 -0.3324
   70SLPC    HS 5991   3.815  -0.595  10.676  0.0023  1.6004  0.3387
   70SLPC   O21 5992   3.774  -0.513  10.480 -0.3889 -0.3674  0.2986
   70SLPC   C21 5993   3.805  -0.609  10.399 -0.4574  0.2669  1.0345
   70SLPC   O22 5994   3.802  -0.728  10.419  0.1488  0.1255 -0.3658
   70SLPC   C22 5995   3.854  -0.546  10.273 -0.6947  0.2232  0.4754
   70SLPC   H2R 5996   3.758  -0.524  10.221  1.5774  3.0616 -2.7430
   70SLPC   H2S 5997   3.897  -0.446  10.293 -0.2016 -0.0848  0.9733
   70SLPC    C3 5998   3.600  -0.594  10.622  0.5559  0.3391 -0.7543
   70SLPC    HX 5999   3.571  -0.623  10.726  2.0502 -1.3168 -0.7650
   70SLPC    HY 6000   3.597  -0.683  10.555  0.6005 -0.8104  0.7221
   70SLPC   O31 6001   3.503  -0.497  10.580  0.5297 -0.0836 -0.8581
   70SLPC   C31 6002   3.457  -0.497  10.449  0.4677  0.4221 -0.4747
   70SLPC   O32 6003   3.496  -0.572  10.359 -0.5069 -0.0181  0.0745
   70SLPC   C32 6004   3.349  -0.401  10.439 -0.2869 -0.2695  0.5329
   70SLPC   H2X 6005   3.387  -0.297  10.443 -0.7667 -0.1375  1.9621
   70SLPC   H2Y 6006   3.280  -0.419  10.524  1.5667 -0.5907  1.9858
   70SLPC   C23 6007   3.956  -0.634  10.201  0.5122 -0.1233  0.6346
   70SLPC   H3R 6008   3.913  -0.731  10.170 -1.1679  0.8583 -0.1929
   70SLPC   H3S 6009   4.046  -0.660  10.260  1.1671 -0.6888 -0.6171
   70SLPC   C24 6010   4.004  -0.559  10.079  0.6718  0.5676 -0.8186
   70SLPC   H4R 6011   4.047  -0.464  10.117  1.9180 -0.8605  1.4443
   70SLPC   H4S 6012   3.933  -0.549   9.994 -0.7052 -2.9309 -0.1572
   70SLPC   C25 6013   4.124  -0.643  10.017  0.1306  0.2994  0.1896
   70SLPC   H5R 6014   4.094  -0.750  10.014 -0.5255  0.4207  1.7516
   70SLPC   H5S 6015   4.193  -0.636  10.104  0.1388 -0.2753  0.2328
   70SLPC   C26 6016   4.171  -0.595   9.882 -0.6829 -0.3519 -0.1863
   70SLPC   H6R 6017   4.250  -0.518   9.885  0.6390 -1.6800 -0.3181
   70SLPC   H6S 6018   4.090  -0.557   9.816 -0.8065 -2.5849 -1.3603
   70SLPC   C27 6019   4.257  -0.705   9.814 -0.9892 -0.2917 -0.4896
   70SLPC   H7R 6020   4.185  -0.779   9.772 -2.1569  0.2034  0.5870
   70SLPC   H7S 6021   4.332  -0.748   9.883 -1.5700 -0.3552  0.1107
   70SLPC   C28 6022   4.333  -0.659   9.689  0.6275  0.0771  0.4049
   70SLPC   H8R 6023   4.261  -0.611   9.619  3.2979  1.6057 -1.3845
   70SLPC   H8S 6024   4.383  -0.749   9.645 -0.9275 -2.5934  3.8956
   70SLPC   C29 6025   4.449  -0.563   9.705 -0.4188  0.0238  0.3348
   70SLPC   H9R 6026   4.495  -0.561   9.805 -0.6014 -1.6826  0.4648
   70SLPC  C210 6027   4.491  -0.483   9.611 -0.1662  0.2888  0.6320
   70SLPC  H10R 6028   4.569  -0.407   9.622  1.3765 -0.8837 -1.7318
   70SLPC  C211 6029   4.427  -0.479   9.471 -0.1442  0.6506  0.9404
   70SLPC  H11R 6030   4.332  -0.423   9.479 -0.5524  0.0416  0.3711
   70SLPC  H11S 6031   4.389  -0.574   9.427  0.0743 -0.6021  3.3161
   70SLPC  C212 6032   4.491  -0.409   9.354 -0.7993 -0.0132  0.1615
   70SLPC  H12R 6033   4.551  -0.323   9.388  1.7252 -1.5104 -0.3540
   70SLPC  C213 6034   4.490  -0.442   9.219 -0.0581  0.2226 -0.7380
   70SLPC  H13R 6035   4.547  -0.374   9.153  0.5417  0.7026  0.2622
   70SLPC  C214 6036   4.429  -0.561   9.151  0.2890  0.4561 -0.0920
   70SLPC  H14R 6037   4.327  -0.529   9.118 -0.2331  0.9355  1.9391
   70SLPC  H14S 6038   4.414  -0.647   9.220  5.7021  0.4469  1.2438
   70SLPC  C215 6039   4.505  -0.609   9.029  0.9789 -0.3274 -0.0061
   70SLPC  H15R 6040   4.614  -0.604   9.053  0.5220 -1.7857  2.5609
   70SLPC  H15S 6041   4.493  -0.523   8.958  3.7592  2.3301  2.5891
   70SLPC  C216 6042   4.456  -0.732   8.952  0.1672  0.4462  0.1089
   70SLPC  H16R 6043   4.471  -0.828   9.007  2.9572  0.2413 -0.9153
   70SLPC  H16S 6044   4.529  -0.736   8.868  0.3417 -1.2711  0.3202
   70SLPC  C217 6045   4.311  -0.711   8.888 -0.3447 -0.1463  0.0609
   70SLPC  H17R 6046   4.322  -0.614   8.837 -2.3943 -1.1070 -2.3040
   70SLPC  H17S 6047   4.243  -0.715   8.976 -0.9515  0.4350 -0.3844
   70SLPC  C218 6048   4.262  -0.834   8.801  0.2426 -0.5336 -0.7138
   70SLPC  H18R 6049   4.303  -0.809   8.700  3.0701  0.1447  0.5507
   70SLPC  H18S 6050   4.152  -0.840   8.805  0.2608 -0.2988  0.3867
   70SLPC  H18T 6051   4.310  -0.931   8.827 -0.5694 -0.5156  0.9140
   70SLPC   C33 6052   3.260  -0.406  10.314 -0.4519  0.7645 -0.5285
   70SLPC   H3X 6053   3.161  -0.359  10.327 -1.4512 -1.0403 -1.3655
   70SLPC   H3Y 6054   3.252  -0.512  10.280  1.2886  0.2162  0.7009
   70SLPC   C34 6055   3.323  -0.330  10.189 -0.4998  0.8897  0.1527
   70SLPC   H4X 6056   3.425  -0.370  10.169 -0.9096 -0.0717 -0.0455
   70SLPC   H4Y 6057   3.341  -0.223  10.215 -0.3526  1.2709 -1.4253
   70SLPC   C35 6058   3.237  -0.333  10.065 -0.3342 -0.3251 -0.1292
   70SLPC   H5X 6059   3.135  -0.308  10.102  0.9870  1.4633  2.4746
   70SLPC   H5Y 6060   3.228  -0.439  10.032  0.4226 -1.4776  3.1418
   70SLPC   C36 6061   3.278  -0.244   9.949  0.4211  0.3697 -0.1069
   70SLPC   H6X 6062   3.382  -0.265   9.916  0.6240 -0.1495  0.8371
   70SLPC   H6Y 6063   3.269  -0.137   9.977  0.9601 -0.1635  2.2072
   70SLPC   C37 6064   3.193  -0.278   9.830 -0.2221 -0.0671  0.6579
   70SLPC   H7X 6065   3.087  -0.255   9.854  0.4443  1.8798  1.7479
   70SLPC   H7Y 6066   3.210  -0.387   9.812  0.6143 -0.0185  1.1604
   70SLPC   C38 6067   3.234  -0.196   9.705  0.1841  0.3640 -0.0969
   70SLPC   H8X 6068   3.211  -0.266   9.622  0.4101  0.6718 -0.4223
   70SLPC   H8Y 6069   3.345  -0.189   9.704  0.1715  0.5772 -1.4937
   70SLPC   C39 6070   3.179  -0.054   9.680  0.8074 -0.0509  0.6375
   70SLPC   H9X 6071   3.214   0.027   9.748  2.2209  0.7526 -0.9893
   70SLPC   H9Y 6072   3.070  -0.070   9.686  0.8978  0.1119  3.0735
   70SLPC  C310 6073   3.212   0.008   9.543  0.2590  0.7559  0.2508
   70SLPC  H10X 6074   3.198  -0.070   9.465 -2.6436  1.0035  0.4831
   70SLPC  H10Y 6075   3.321   0.028   9.530  0.2522  0.9217  0.4403
   70SLPC  C311 6076   3.125   0.132   9.521  0.2555  0.0912  0.1564
   70SLPC  H11X 6077   3.167   0.197   9.600  0.2605 -0.8413  0.9376
   70SLPC  H11Y 6078   3.016   0.120   9.537  0.1276  1.3896  0.2565
   70SLPC  C312 6079   3.149   0.190   9.380  0.0051 -0.6862 -0.1909
   70SLPC  H12X 6080   3.076   0.270   9.355  0.0477 -0.2766  0.9734
   70SLPC  H12Y 6081   3.139   0.106   9.308  0.2093  0.0551 -1.0882
   70SLPC  C313 6082   3.287   0.251   9.360 -0.3808  0.1748 -0.1198
   70SLPC  H13X 6083   3.359   0.172   9.391  1.4651  1.7834 -0.2211
   70SLPC  H13Y 6084   3.304   0.327   9.439 -0.6924 -0.3235  0.4306
   70SLPC  C314 6085   3.302   0.316   9.218 -1.0936 -0.4916 -0.0054
   70SLPC  H14X 6086   3.392   0.380   9.232 -2.0506  0.6816  0.8697
   70SLPC  H14Y 6087   3.212   0.381   9.210 -1.5889 -0.8072  2.6589
   70SLPC  C315 6088   3.333   0.221   9.097 -0.3144  0.3055  0.5513
   70SLPC  H15X 6089   3.257   0.141   9.090  0.4325 -0.5478  1.9722
   70SLPC  H15Y 6090   3.430   0.174   9.121  0.0205 -0.3462 -1.9713
   70SLPC  C316 6091   3.337   0.304   8.970 -0.0657 -0.0101  0.1645
   70SLPC  H16X 6092   3.425   0.373   8.971  0.7262 -0.9394 -1.9327
   70SLPC  H16Y 6093   3.243   0.363   8.965 -0.9068 -1.5175 -2.3575
   70SLPC  C317 6094   3.333   0.215   8.845 -0.0624  0.4060  0.0621
   70SLPC  H17X 6095   3.414   0.139   8.850  0.5000  0.9282 -0.9541
   70SLPC  H17Y 6096   3.349   0.280   8.757  2.4739 -0.7296 -0.3924
   70SLPC  C318 6097   3.202   0.141   8.820 -0.3790  0.4458  0.2089
   70SLPC  H18X 6098   3.168   0.079   8.906 -1.8444  1.3966  0.3312
   70SLPC  H18Y 6099   3.200   0.077   8.729  0.9802 -1.5640  1.5321
   70SLPC  H18Z 6100   3.131   0.226   8.820  1.6090  2.1494  1.2819
   71SLPC     N 6101   3.320   4.753  10.982  0.3294 -0.1063 -0.3867
   71SLPC   C13 6102   3.181   4.764  11.045  0.1441  0.4601 -0.3338
   71SLPC  H13A 6103   3.154   4.865  11.069  1.4727  0.7422  0.0024
   71SLPC  H13B 6104   3.109   4.715  10.981  0.4685  0.1125 -0.4403
   71SLPC  H13C 6105   3.179   4.724  11.145 -0.9900 -0.6921 -0.7991
   71SLPC   C14 6106   3.350   4.607  11.000 -0.5601 -0.6036 -0.1349
   71SLPC  H14A 6107   3.316   4.581  11.099 -1.1113 -0.9869 -0.4288
   71SLPC  H14B 6108   3.299   4.543  10.930  1.7298 -2.7476  0.0799
   71SLPC  H14C 6109   3.455   4.579  10.994  0.3760  2.0102  2.4997
   71SLPC   C15 6110   3.413   4.840  11.055 -0.1532  0.0503  0.0288
   71SLPC  H15A 6111   3.508   4.828  11.004 -1.7449 -0.4543 -2.9104
   71SLPC  H15B 6112   3.377   4.941  11.045  1.8527  0.9299  1.3862
   71SLPC  H15C 6113   3.417   4.817  11.161  2.6280  1.2449  0.2292
   71SLPC   C12 6114   3.316   4.788  10.837 -0.3167 -0.4259  0.1948
   71SLPC  H12A 6115   3.265   4.882  10.821  2.6679  1.1303 -0.5173
   71SLPC  H12B 6116   3.261   4.714  10.781  0.9084  1.4682 -3.6740
   71SLPC   C11 6117   3.446   4.797  10.759 -0.7364 -0.7792  0.0979
   71SLPC  H11A 6118   3.417   4.807  10.652 -0.7953  0.3399  0.2154
   71SLPC  H11B 6119   3.498   4.704  10.789 -1.5179 -1.5326 -0.8376
   71SLPC     P 6120   3.508   5.048  10.739 -0.0921  0.3428  0.0487
   71SLPC   O13 6121   3.380   5.106  10.781  0.6967 -0.4477  0.3766
   71SLPC   O14 6122   3.619   5.137  10.769 -0.3898 -0.3973 -0.3025
   71SLPC   O12 6123   3.531   4.904  10.801  0.2151 -0.2937  0.1388
   71SLPC   O11 6124   3.502   5.016  10.587  0.2439 -0.7840 -0.3372
   71SLPC    C1 6125   3.611   5.009  10.498  0.3128 -0.2537 -0.3518
   71SLPC    HA 6126   3.693   5.079  10.523 -0.2005 -0.0832  0.9176
   71SLPC    HB 6127   3.634   4.900  10.504 -0.5576 -0.3822  0.8212
   71SLPC    C2 6128   3.562   5.038  10.352 -0.3117 -0.3689  1.0405
   71SLPC    HS 6129   3.509   5.136  10.349 -2.1129 -1.1886  3.7331
   71SLPC   O21 6130   3.464   4.938  10.315  0.3483  0.1521 -0.0007
   71SLPC   C21 6131   3.337   4.931  10.335  0.1593  0.0901  0.0409
   71SLPC   O22 6132   3.263   5.024  10.353  0.4296 -0.0678  0.4808
   71SLPC   C22 6133   3.296   4.791  10.305  0.1407 -0.1083  0.8863
   71SLPC   H2R 6134   3.384   4.726  10.286 -1.7658 -3.4806  2.9899
   71SLPC   H2S 6135   3.258   4.753  10.403 -1.8331 -3.1654 -0.9870
   71SLPC    C3 6136   3.681   5.024  10.258 -0.0504  0.3087 -0.2188
   71SLPC    HX 6137   3.712   4.918  10.269  0.3368  0.4959  0.5380
   71SLPC    HY 6138   3.765   5.090  10.287 -0.9001  1.0441  0.6207
   71SLPC   O31 6139   3.634   5.034  10.121 -0.1744 -0.0140 -0.2503
   71SLPC   C31 6140   3.646   5.155  10.071  0.0961  0.0031  0.1503
   71SLPC   O32 6141   3.660   5.260  10.134 -0.6582 -0.3425  0.0751
   71SLPC   C32 6142   3.612   5.144   9.920  0.3916  0.4358  0.0508
   71SLPC   H2X 6143   3.503   5.121   9.909  1.0931 -1.7295 -3.1621
   71SLPC   H2Y 6144   3.670   5.063   9.870 -0.1590  0.6078 -0.9017
   71SLPC   C23 6145   3.187   4.761  10.212  0.2678  0.5812  0.3560
   71SLPC   H3R 6146   3.113   4.843  10.224  2.7331  3.4524 -3.1219
   71SLPC   H3S 6147   3.141   4.669  10.255 -1.1942  0.7323 -0.8058
   71SLPC   C24 6148   3.234   4.734  10.069 -0.4807 -0.0252 -0.5313
   71SLPC   H4R 6149   3.152   4.706   9.999 -0.2947 -0.3877 -0.6004
   71SLPC   H4S 6150   3.310   4.654  10.062 -1.6497 -1.0755 -1.3167
   71SLPC   C25 6151   3.289   4.862  10.000 -0.3717  0.0158  0.1624
   71SLPC   H5R 6152   3.393   4.886  10.032 -0.1061 -2.1909  1.0163
   71SLPC   H5S 6153   3.231   4.952  10.029 -0.8682 -0.7477  1.5472
   71SLPC   C26 6154   3.280   4.849   9.840 -0.4810  0.2625  0.3627
   71SLPC   H6R 6155   3.170   4.836   9.828 -0.3707 -0.7767  0.4124
   71SLPC   H6S 6156   3.324   4.753   9.806 -2.2095 -1.1479  2.0158
   71SLPC   C27 6157   3.333   4.962   9.758 -0.0559 -0.6043 -0.1139
   71SLPC   H7R 6158   3.435   4.980   9.799  1.2495 -1.1259 -2.9759
   71SLPC   H7S 6159   3.275   5.054   9.775  0.2930 -0.1909 -1.1270
   71SLPC   C28 6160   3.345   4.925   9.613  0.5755 -0.0632  0.2519
   71SLPC   H8R 6161   3.402   4.829   9.614  0.5971 -0.0765 -0.8870
   71SLPC   H8S 6162   3.421   4.987   9.561  1.5394  0.8331  2.6802
   71SLPC   C29 6163   3.210   4.905   9.551  0.0632  0.0995 -0.0297
   71SLPC   H9R 6164   3.148   4.821   9.587 -4.4262  3.0060 -0.4747
   71SLPC  C210 6165   3.161   4.973   9.443  0.4644 -0.8210  0.3382
   71SLPC  H10R 6166   3.064   4.951   9.395  0.9590 -3.3420  0.4626
   71SLPC  C211 6167   3.233   5.075   9.360  0.3069 -0.1635 -0.1738
   71SLPC  H11R 6168   3.269   5.152   9.432  1.2020  1.8627 -2.7012
   71SLPC  H11S 6169   3.172   5.124   9.281 -1.1673 -2.2098 -0.3560
   71SLPC  C212 6170   3.349   5.016   9.282  0.0646 -0.4156  0.2387
   71SLPC  H12R 6171   3.421   4.959   9.343  0.7222  0.3429  0.1715
   71SLPC  C213 6172   3.375   5.021   9.155 -0.3312 -0.3920  0.0517
   71SLPC  H13R 6173   3.457   4.960   9.115 -0.5682  0.5969 -1.9929
   71SLPC  C214 6174   3.299   5.084   9.036 -0.0305  0.0065 -0.1623
   71SLPC  H14R 6175   3.370   5.129   8.963  1.1678 -2.3228 -0.4833
   71SLPC  H14S 6176   3.241   5.164   9.087  2.4401  2.6241 -1.3440
   71SLPC  C215 6177   3.198   4.986   8.972 -0.2534  0.5522  0.2877
   71SLPC  H15R 6178   3.142   4.933   9.053  0.5650 -1.6381 -0.5234
   71SLPC  H15S 6179   3.251   4.914   8.905  0.6421 -0.2124  1.7764
   71SLPC  C216 6180   3.092   5.047   8.881 -0.0117  0.0842  0.7843
   71SLPC  H16R 6181   3.134   5.095   8.791  1.5460 -3.6645 -0.5949
   71SLPC  H16S 6182   3.049   5.124   8.948  2.1088  2.1110 -0.1398
   71SLPC  C217 6183   2.993   4.948   8.834 -0.4283  0.6740  0.1301
   71SLPC  H17R 6184   2.979   4.871   8.914 -0.7429 -1.5727 -2.0257
   71SLPC  H17S 6185   3.010   4.902   8.735 -2.9049  1.3506 -0.6412
   71SLPC  C218 6186   2.854   5.025   8.798 -0.1710 -0.7394 -0.1881
   71SLPC  H18R 6187   2.786   4.943   8.766 -0.7210 -0.4129  0.1481
   71SLPC  H18S 6188   2.863   5.106   8.722  1.1479 -0.1234  0.6108
   71SLPC  H18T 6189   2.801   5.068   8.885 -0.6024 -1.7934  0.0705
   71SLPC   C33 6190   3.650   5.267   9.834 -0.6657 -0.3800  0.5952
   71SLPC   H3X 6191   3.758   5.293   9.843 -1.0025  0.9443  0.7954
   71SLPC   H3Y 6192   3.594   5.359   9.860 -0.8288  0.1010 -1.3805
   71SLPC   C34 6193   3.630   5.244   9.686  0.1211  0.2848 -0.3202
   71SLPC   H4X 6194   3.523   5.264   9.666  0.5176  0.4980 -2.3841
   71SLPC   H4Y 6195   3.661   5.144   9.648 -1.8136  0.1743 -1.6731
   71SLPC   C35 6196   3.685   5.355   9.598 -0.4049 -0.3944 -0.1705
   71SLPC   H5X 6197   3.790   5.375   9.625 -0.1284  0.5305 -1.8146
   71SLPC   H5Y 6198   3.644   5.450   9.638 -1.3310 -1.1327  0.6560
   71SLPC   C36 6199   3.665   5.326   9.449 -0.3553  0.0423 -0.3297
   71SLPC   H6X 6200   3.706   5.227   9.421 -0.9129  0.1824 -1.7301
   71SLPC   H6Y 6201   3.732   5.397   9.396 -0.1960 -1.0389 -1.5977
   71SLPC   C37 6202   3.525   5.325   9.385 -0.5646  0.7451 -0.3168
   71SLPC   H7X 6203   3.456   5.368   9.460  0.6352 -0.9249  1.7912
   71SLPC   H7Y 6204   3.493   5.220   9.364 -0.3050  0.3999  1.0049
   71SLPC   C38 6205   3.510   5.389   9.241  0.0972 -0.0345  0.6582
   71SLPC   H8X 6206   3.498   5.499   9.245  1.0768  0.1378 -0.5926
   71SLPC   H8Y 6207   3.413   5.349   9.204  0.0596 -0.6392  1.3859
   71SLPC   C39 6208   3.623   5.351   9.146  1.0186  0.3645 -0.3704
   71SLPC   H9X 6209   3.640   5.242   9.159 -2.5356 -0.2706 -0.4399
   71SLPC   H9Y 6210   3.716   5.406   9.169  1.5525 -0.1792 -1.2019
   71SLPC  C310 6211   3.602   5.387   9.000 -1.2502 -0.0947 -0.1134
   71SLPC  H10X 6212   3.573   5.494   8.988 -0.1540  0.4328  1.8307
   71SLPC  H10Y 6213   3.516   5.323   8.969 -1.9287  0.6538  0.2091
   71SLPC  C311 6214   3.714   5.344   8.900 -0.2553 -0.1661 -0.3728
   71SLPC  H11X 6215   3.733   5.235   8.901 -4.8825 -1.0415 -0.2128
   71SLPC  H11Y 6216   3.809   5.392   8.934 -0.6291  0.7738 -0.6194
   71SLPC  C312 6217   3.677   5.374   8.754  0.8187  0.8681 -0.6197
   71SLPC  H12X 6218   3.643   5.479   8.747  0.3363  0.6735 -1.2530
   71SLPC  H12Y 6219   3.581   5.323   8.733  1.3082  0.5274 -2.0839
   71SLPC  C313 6220   3.801   5.351   8.669  0.6209  0.2292  0.4053
   71SLPC  H13X 6221   3.894   5.363   8.729  2.2591 -3.2467 -1.2367
   71SLPC  H13Y 6222   3.802   5.430   8.590  0.9386 -1.7390 -1.6155
   71SLPC  C314 6223   3.791   5.213   8.608  0.2398  0.5068  0.6468
   71SLPC  H14X 6224   3.707   5.219   8.534  1.9405  0.7030 -1.3187
   71SLPC  H14Y 6225   3.771   5.151   8.698  1.3629  1.7340  1.7529
   71SLPC  C315 6226   3.918   5.165   8.534  0.2542  0.2152 -0.1240
   71SLPC  H15X 6227   3.913   5.057   8.507 -1.0889 -0.3334  2.2126
   71SLPC  H15Y 6228   4.004   5.176   8.604 -0.9668 -0.6475  1.5514
   71SLPC  C316 6229   3.935   5.247   8.407 -0.1664  0.1791 -0.2569
   71SLPC  H16X 6230   3.984   5.343   8.435  0.4116  0.1314 -1.0784
   71SLPC  H16Y 6231   3.842   5.288   8.364 -1.5021 -1.0253  1.4196
   71SLPC  C317 6232   4.026   5.189   8.300  0.5546  0.3159 -0.3208
   71SLPC  H17X 6233   4.070   5.273   8.242 -0.0255  0.4075 -0.6235
   71SLPC  H17Y 6234   3.974   5.125   8.226  2.0877  0.9876 -2.0300
   71SLPC  C318 6235   4.145   5.121   8.365 -0.0954 -0.7850  0.1475
   71SLPC  H18X 6236   4.119   5.032   8.426 -0.2993 -0.1836  0.9336
   71SLPC  H18Y 6237   4.187   5.195   8.437 -0.8659 -2.3232  2.2325
   71SLPC  H18Z 6238   4.232   5.100   8.299  1.0084  0.6964  1.1044
   72SLPC     N 6239   4.364   2.665  10.795  0.0048 -0.1641 -0.0882
   72SLPC   C13 6240   4.493   2.594  10.791  0.3928 -0.8398  0.3686
   72SLPC  H13A 6241   4.577   2.661  10.794  1.1501 -1.8341  3.2700
   72SLPC  H13B 6242   4.491   2.523  10.873 -3.2788 -0.5383  0.6385
   72SLPC  H13C 6243   4.501   2.542  10.697 -0.2362  2.3791 -1.5292
   72SLPC   C14 6244   4.357   2.749  10.922  0.3021 -0.1369 -0.7911
   72SLPC  H14A 6245   4.371   2.692  11.013 -0.1517  0.8741 -0.0818
   72SLPC  H14B 6246   4.430   2.829  10.916  0.8997 -0.6313 -0.2697
   72SLPC  H14C 6247   4.260   2.793  10.935  1.2092  1.4594  0.9030
   72SLPC   C15 6248   4.253   2.564  10.796  0.1377  0.9218 -0.2732
   72SLPC  H15A 6249   4.258   2.503  10.885 -0.3208  1.7086  0.2991
   72SLPC  H15B 6250   4.155   2.609  10.795 -0.6927 -0.8181  0.8258
   72SLPC  H15C 6251   4.268   2.501  10.710 -1.5726  1.0749 -0.6929
   72SLPC   C12 6252   4.340   2.759  10.673  0.3042 -0.8574  0.0945
   72SLPC  H12A 6253   4.342   2.688  10.592  0.4362 -0.7968  0.0458
   72SLPC  H12B 6254   4.418   2.832  10.658  0.2214 -0.6613  0.6191
   72SLPC   C11 6255   4.209   2.840  10.662  0.2010 -0.0414  0.0306
   72SLPC  H11A 6256   4.124   2.770  10.668 -1.3562  1.8129  0.2248
   72SLPC  H11B 6257   4.223   2.873  10.557 -1.1189 -0.8952 -0.4160
   72SLPC     P 6258   4.052   3.003  10.790 -0.1532 -0.2613  0.0086
   72SLPC   O13 6259   3.980   2.892  10.862 -0.1758 -0.2463 -0.4239
   72SLPC   O14 6260   4.055   3.138  10.845  0.3836 -0.1113 -0.2382
   72SLPC   O12 6261   4.202   2.954  10.755  0.4758  0.6191 -0.4314
   72SLPC   O11 6262   3.966   3.012  10.648  0.3883 -0.5066  0.5051
   72SLPC    C1 6263   3.992   3.093  10.538  0.4335 -0.2143  0.6975
   72SLPC    HA 6264   3.942   3.190  10.558  0.4262  0.0476 -0.5403
   72SLPC    HB 6265   4.099   3.121  10.530 -0.0456  1.1840 -1.0766
   72SLPC    C2 6266   3.942   3.037  10.405  0.6036  0.2389 -0.7168
   72SLPC    HS 6267   3.834   3.014  10.421  1.0387 -2.8931 -2.0867
   72SLPC   O21 6268   4.031   2.927  10.358  0.1132 -0.2246 -0.3138
   72SLPC   C21 6269   3.964   2.837  10.296  0.0019  0.4949 -0.1366
   72SLPC   O22 6270   3.845   2.833  10.281  0.3470  0.2480  0.2220
   72SLPC   C22 6271   4.065   2.732  10.240 -0.0656  0.2282  0.0140
   72SLPC   H2R 6272   4.160   2.785  10.215 -0.0142  0.7275  1.2623
   72SLPC   H2S 6273   4.081   2.663  10.325 -0.1088 -0.6762 -0.6951
   72SLPC    C3 6274   3.959   3.146  10.296 -0.0208  0.2808 -0.3287
   72SLPC    HX 6275   4.069   3.161  10.287  0.2112 -0.5597  0.9950
   72SLPC    HY 6276   3.910   3.239  10.332 -0.4813  0.5482 -1.6012
   72SLPC   O31 6277   3.914   3.103  10.161  0.4286  0.2733 -0.6194
   72SLPC   C31 6278   3.781   3.108  10.145  0.4909 -0.7849  0.1104
   72SLPC   O32 6279   3.702   3.143  10.227  0.4790 -0.1170  0.5652
   72SLPC   C32 6280   3.750   3.063  10.007 -0.2988  0.7701 -0.6043
   72SLPC   H2X 6281   3.814   2.973   9.994  0.0965  0.4883  2.8221
   72SLPC   H2Y 6282   3.788   3.132   9.927  0.9847 -0.4660 -1.0787
   72SLPC   C23 6283   4.013   2.629  10.129  0.2454 -0.5107  0.1322
   72SLPC   H3R 6284   3.925   2.575  10.171  0.9255 -2.7376 -1.2385
   72SLPC   H3S 6285   4.090   2.550  10.122 -0.8718 -1.4834 -1.4140
   72SLPC   C24 6286   3.989   2.700   9.998 -0.3363  0.0932 -0.3806
   72SLPC   H4R 6287   3.898   2.762  10.010 -0.1927  0.0928  0.7161
   72SLPC   H4S 6288   3.972   2.620   9.922  1.7574 -0.4376 -0.3293
   72SLPC   C25 6289   4.110   2.767   9.941 -0.0008  0.4440  0.1594
   72SLPC   H5R 6290   4.197   2.701   9.957  0.2807  0.7239 -0.2313
   72SLPC   H5S 6291   4.141   2.857   9.998  2.5329 -1.6786  2.3044
   72SLPC   C26 6292   4.106   2.804   9.795 -0.2633  0.0395  0.3120
   72SLPC   H6R 6293   4.120   2.712   9.734  0.5384  1.5633 -1.8379
   72SLPC   H6S 6294   4.190   2.875   9.779 -0.5350  0.0590 -1.0543
   72SLPC   C27 6295   3.980   2.871   9.746  0.3197  0.3100  0.4127
   72SLPC   H7R 6296   3.958   2.962   9.805 -1.3345  0.1390  0.1044
   72SLPC   H7S 6297   3.899   2.795   9.759  0.5081  0.2047  0.9719
   72SLPC   C28 6298   3.982   2.903   9.595  0.4911  0.5767 -0.2823
   72SLPC   H8R 6299   4.054   2.984   9.572 -0.1924  0.3839 -3.1990
   72SLPC   H8S 6300   3.890   2.956   9.563  0.0153 -0.5115 -0.7240
   72SLPC   C29 6301   4.003   2.778   9.510 -1.3490  0.3362 -0.0761
   72SLPC   H9R 6302   3.978   2.677   9.545 -0.1647 -1.1817 -3.4974
   72SLPC  C210 6303   4.026   2.787   9.382 -0.9113 -1.1020 -0.5093
   72SLPC  H10R 6304   4.047   2.703   9.314 -1.1040 -2.0841  0.6219
   72SLPC  C211 6305   4.028   2.912   9.295  0.6728 -0.5792 -0.7252
   72SLPC  H11R 6306   4.125   2.926   9.243  1.4073  0.9525  0.9796
   72SLPC  H11S 6307   4.025   3.012   9.342  0.3377 -1.0968  0.3845
   72SLPC  C212 6308   3.924   2.895   9.191 -0.1504 -0.0235  0.4950
   72SLPC  H12R 6309   3.828   2.936   9.227  0.5164  1.3466  0.7376
   72SLPC  C213 6310   3.921   2.821   9.081 -0.3722 -0.9508  0.3038
   72SLPC  H13R 6311   3.829   2.830   9.021  0.2807  3.4158 -0.2096
   72SLPC  C214 6312   4.039   2.747   9.019  0.0784 -0.2005 -0.1411
   72SLPC  H14R 6313   4.022   2.639   9.042  2.4097 -0.7151 -0.6590
   72SLPC  H14S 6314   4.134   2.787   9.059  0.3908 -0.8125 -0.2583
   72SLPC  C215 6315   4.025   2.778   8.871  0.6879  0.4450  0.0503
   72SLPC  H15R 6316   3.935   2.728   8.829  1.1695 -2.0457  1.8355
   72SLPC  H15S 6317   4.113   2.726   8.826  1.4623  2.4134 -0.7591
   72SLPC  C216 6318   4.030   2.926   8.833 -0.1667 -0.3023 -0.4246
   72SLPC  H16R 6319   4.105   2.987   8.888 -1.1892 -0.4535  1.1639
   72SLPC  H16S 6320   3.933   2.968   8.866 -0.8805 -3.1802  1.2781
   72SLPC  C217 6321   4.058   2.941   8.685  0.1262  0.9282  0.2458
   72SLPC  H17R 6322   4.157   2.893   8.676 -0.6124 -1.4001  3.6602
   72SLPC  H17S 6323   4.062   3.049   8.658  0.7758  0.5575 -1.1851
   72SLPC  C218 6324   3.971   2.868   8.583 -0.0358 -0.1146  0.0730
   72SLPC  H18R 6325   4.009   2.870   8.478  0.3732 -1.6906  0.1834
   72SLPC  H18S 6326   3.872   2.915   8.566  0.5093  0.7057 -0.8999
   72SLPC  H18T 6327   3.948   2.762   8.607  1.7569 -0.0195  2.4371
   72SLPC   C33 6328   3.607   3.023   9.971 -0.0983 -0.0625  0.1501
   72SLPC   H3X 6329   3.539   3.110   9.971  1.0158  0.8142 -0.2224
   72SLPC   H3Y 6330   3.565   2.957  10.051  0.8822 -1.3597 -0.3857
   72SLPC   C34 6331   3.600   2.940   9.843 -0.0472 -0.0751 -0.2724
   72SLPC   H4X 6332   3.502   2.889   9.839  0.5288 -1.4179  1.9581
   72SLPC   H4Y 6333   3.670   2.854   9.847  0.0515 -0.3758 -5.2977
   72SLPC   C35 6334   3.622   3.014   9.704  0.0856 -0.7191 -0.7015
   72SLPC   H5X 6335   3.718   3.067   9.691  0.0666 -0.7101 -0.8124
   72SLPC   H5Y 6336   3.538   3.087   9.695  0.8979  0.1644 -1.2152
   72SLPC   C36 6337   3.606   2.915   9.585 -0.2696  0.3393 -0.2348
   72SLPC   H6X 6338   3.540   2.830   9.615 -0.9227  1.2748  1.0123
   72SLPC   H6Y 6339   3.704   2.866   9.567 -0.6481 -0.1211 -1.1185
   72SLPC   C37 6340   3.555   2.981   9.459 -0.0025  0.4274 -0.0135
   72SLPC   H7X 6341   3.636   3.057   9.453  0.1485  0.4695  2.4033
   72SLPC   H7Y 6342   3.455   3.020   9.490 -0.5509 -0.9514 -0.0115
   72SLPC   C38 6343   3.551   2.886   9.334  0.0203  0.3431 -0.0602
   72SLPC   H8X 6344   3.480   2.803   9.354  0.6718 -0.2620 -0.2529
   72SLPC   H8Y 6345   3.657   2.855   9.338  0.2917  1.3469  0.5744
   72SLPC   C39 6346   3.533   2.967   9.205 -0.3169 -0.5824  0.1766
   72SLPC   H9X 6347   3.604   3.052   9.201  1.1692 -1.7178  1.6358
   72SLPC   H9Y 6348   3.436   3.021   9.208  1.0533  1.9063  1.0735
   72SLPC  C310 6349   3.543   2.878   9.078 -0.6092 -0.3873 -0.1482
   72SLPC  H10X 6350   3.437   2.848   9.069 -0.3468 -1.3169 -0.1182
   72SLPC  H10Y 6351   3.606   2.787   9.085  0.4862  0.1275 -2.6376
   72SLPC  C311 6352   3.576   2.961   8.954 -0.0235  0.3603  1.0577
   72SLPC  H11X 6353   3.687   2.950   8.946 -0.1708  0.5704 -1.8126
   72SLPC  H11Y 6354   3.556   3.069   8.970 -0.2271  0.4927 -0.0323
   72SLPC  C312 6355   3.520   2.910   8.822 -0.1852  0.1012  0.4697
   72SLPC  H12X 6356   3.510   2.988   8.744  0.3122  0.1482  0.4531
   72SLPC  H12Y 6357   3.410   2.896   8.830 -0.4091  1.2535 -0.4472
   72SLPC  C313 6358   3.599   2.786   8.758  0.1636 -0.4398 -0.7507
   72SLPC  H13X 6359   3.595   2.717   8.845 -2.8900  1.7559  0.9546
   72SLPC  H13Y 6360   3.702   2.820   8.736 -0.2937  1.7897  0.3865
   72SLPC  C314 6361   3.539   2.722   8.630  0.0509  0.2046 -0.7599
   72SLPC  H14X 6362   3.575   2.777   8.541  0.4928 -0.8906 -1.2703
   72SLPC  H14Y 6363   3.429   2.733   8.637 -0.2983 -3.0655 -0.1723
   72SLPC  C315 6364   3.584   2.578   8.615  0.1689  0.6293 -0.6423
   72SLPC  H15X 6365   3.557   2.534   8.516  1.8377 -1.9598  0.0082
   72SLPC  H15Y 6366   3.543   2.507   8.690  0.5925  2.1339  1.0307
   72SLPC  C316 6367   3.742   2.551   8.615  0.5011  0.3439 -0.7318
   72SLPC  H16X 6368   3.778   2.570   8.718 -1.0992  2.2120 -0.4774
   72SLPC  H16Y 6369   3.787   2.619   8.539 -0.5308  2.9491  0.8967
   72SLPC  C317 6370   3.788   2.411   8.579 -0.0452  0.1511 -1.0267
   72SLPC  H17X 6371   3.714   2.374   8.505 -1.0636  0.5965 -0.2429
   72SLPC  H17Y 6372   3.780   2.355   8.674  3.6382  0.6124 -0.3395
   72SLPC  C318 6373   3.929   2.395   8.532 -0.3961  0.1304 -0.0737
   72SLPC  H18X 6374   3.962   2.289   8.532  1.0282  0.5466 -0.8098
   72SLPC  H18Y 6375   4.004   2.453   8.591 -0.8681 -2.0238  2.7178
   72SLPC  H18Z 6376   3.935   2.432   8.427  0.6041 -1.5972 -0.6387
   73SLPC     N 6377   4.068   1.942  10.805  0.3426  0.0354 -0.5497
   73SLPC   C13 6378   4.039   2.055  10.899  0.2934 -0.2641 -0.1562
   73SLPC  H13A 6379   4.038   2.020  11.001 -0.2859 -1.2422 -0.4901
   73SLPC  H13B 6380   4.112   2.134  10.892  0.6825 -0.5072  1.1107
   73SLPC  H13C 6381   3.947   2.108  10.880  1.2196  2.1945  1.9534
   73SLPC   C14 6382   4.220   1.918  10.810  0.4736  0.1826  0.3448
   73SLPC  H14A 6383   4.274   2.007  10.778 -2.0927  1.9480  0.7396
   73SLPC  H14B 6384   4.247   1.877  10.906  2.1710  0.6283  0.0828
   73SLPC  H14C 6385   4.246   1.839  10.741  2.2135 -0.5787  1.8284
   73SLPC   C15 6386   4.042   1.990  10.664 -0.3115  0.6472  0.2840
   73SLPC  H15A 6387   4.107   2.074  10.645  2.4509 -1.5781 -0.5134
   73SLPC  H15B 6388   4.082   1.916  10.595  0.9694  2.0946 -0.5624
   73SLPC  H15C 6389   3.937   2.007  10.649 -0.6973 -2.3599 -0.7493
   73SLPC   C12 6390   3.994   1.816  10.848 -0.1806  0.0693  0.2213
   73SLPC  H12A 6391   3.888   1.833  10.856 -0.3167 -1.0802  1.0794
   73SLPC  H12B 6392   4.026   1.785  10.946 -1.3701 -3.1858 -0.3560
   73SLPC   C11 6393   4.012   1.688  10.758 -0.2907 -0.2127 -0.0174
   73SLPC  H11A 6394   4.011   1.711  10.649  0.6826  1.4177  0.2936
   73SLPC  H11B 6395   3.924   1.622  10.774 -0.3292 -0.1847 -0.1134
   73SLPC     P 6396   4.154   1.518  10.898 -0.1112 -0.2871 -0.2675
   73SLPC   O13 6397   4.291   1.461  10.887  0.3247 -0.4298 -0.2189
   73SLPC   O14 6398   4.106   1.595  11.019  0.0453  0.5565  0.3981
   73SLPC   O12 6399   4.135   1.620  10.777 -0.2894 -1.0504  0.5382
   73SLPC   O11 6400   4.056   1.411  10.861  0.2951 -0.2494  0.1329
   73SLPC    C1 6401   4.094   1.300  10.775  0.8565  0.2256 -0.7924
   73SLPC    HA 6402   4.184   1.248  10.813  0.1279  0.5813  1.5151
   73SLPC    HB 6403   4.025   1.214  10.783  2.3797 -0.9619 -0.3783
   73SLPC    C2 6404   4.113   1.333  10.627  0.1814 -1.1265 -0.8091
   73SLPC    HS 6405   4.192   1.411  10.619 -0.7861 -0.0218  0.3177
   73SLPC   O21 6406   3.991   1.390  10.568  0.4423 -0.0155 -0.2040
   73SLPC   C21 6407   3.999   1.477  10.467 -0.4761 -0.4242 -0.1842
   73SLPC   O22 6408   4.101   1.513  10.412 -0.0773 -0.2578  0.0064
   73SLPC   C22 6409   3.859   1.512  10.422  0.2825  0.0054  0.0310
   73SLPC   H2R 6410   3.779   1.440  10.451  0.9637 -0.6354  0.3451
   73SLPC   H2S 6411   3.829   1.597  10.486 -1.7769  0.5048 -1.5453
   73SLPC    C3 6412   4.157   1.212  10.545  0.6549  0.0310 -0.9161
   73SLPC    HX 6413   4.077   1.135  10.548  0.9028 -0.1919  0.1725
   73SLPC    HY 6414   4.247   1.166  10.591 -1.0575 -2.4586  0.0488
   73SLPC   O31 6415   4.171   1.229  10.399  0.4125  0.1474  0.6218
   73SLPC   C31 6416   4.274   1.292  10.354 -0.0660 -0.4288 -0.2779
   73SLPC   O32 6417   4.358   1.347  10.419  0.0334 -0.3694 -0.4076
   73SLPC   C32 6418   4.272   1.282  10.200 -0.2648  0.5490 -0.0796
   73SLPC   H2X 6419   4.168   1.269  10.164 -0.7424 -1.4245  1.9770
   73SLPC   H2Y 6420   4.340   1.197  10.180  0.1769  1.1103 -1.0495
   73SLPC   C23 6421   3.840   1.569  10.280 -0.0791 -0.3849  0.2680
   73SLPC   H3R 6422   3.904   1.660  10.278  2.2153 -1.9474 -1.0450
   73SLPC   H3S 6423   3.739   1.613  10.273  1.3134  2.8810 -0.4486
   73SLPC   C24 6424   3.849   1.466  10.174  0.3033 -0.4086 -0.6163
   73SLPC   H4R 6425   3.781   1.385  10.209 -0.2999 -0.2420 -1.3693
   73SLPC   H4S 6426   3.953   1.428  10.168  1.3902  2.4381 -0.5728
   73SLPC   C25 6427   3.819   1.511  10.033 -0.0952 -0.6695  0.4536
   73SLPC   H5R 6428   3.721   1.562  10.022  0.9772  1.3258 -0.1263
   73SLPC   H5S 6429   3.813   1.423   9.966 -2.1030 -1.4870  1.6604
   73SLPC   C26 6430   3.929   1.608   9.971 -0.1079 -0.1045 -0.0113
   73SLPC   H6R 6431   4.015   1.542   9.948 -0.4049 -1.1844  1.8567
   73SLPC   H6S 6432   3.963   1.684  10.045 -1.4338  0.0735  0.4478
   73SLPC   C27 6433   3.890   1.679   9.839 -0.4812 -0.5442 -0.6697
   73SLPC   H7R 6434   3.802   1.741   9.865 -0.7193 -1.1078 -0.0998
   73SLPC   H7S 6435   3.869   1.598   9.766 -1.7212 -1.8898  1.1328
   73SLPC   C28 6436   3.999   1.773   9.782  0.1717  0.4252 -0.4703
   73SLPC   H8R 6437   3.958   1.821   9.691 -0.1771 -0.6351 -0.8693
   73SLPC   H8S 6438   4.082   1.705   9.753 -0.0065 -1.5148  3.2635
   73SLPC   C29 6439   4.049   1.885   9.864 -0.5625 -0.0954 -0.5650
   73SLPC   H9R 6440   3.986   1.899   9.952 -0.3379 -0.1128 -0.4015
   73SLPC  C210 6441   4.164   1.954   9.856  0.2253 -0.8292 -0.3029
   73SLPC  H10R 6442   4.178   2.036   9.928  0.7525 -0.4536 -0.8285
   73SLPC  C211 6443   4.259   1.936   9.745  0.7465 -0.7506  0.2866
   73SLPC  H11R 6444   4.228   1.996   9.656  0.5691  0.8729  1.4286
   73SLPC  H11S 6445   4.250   1.833   9.704  1.5309 -0.8105  0.2602
   73SLPC  C212 6446   4.408   1.958   9.777  0.0492 -1.1087  0.0941
   73SLPC  H12R 6447   4.431   1.979   9.883 -1.6964  1.6464 -0.0140
   73SLPC  C213 6448   4.505   1.963   9.688  0.7504  0.7879 -0.4239
   73SLPC  H13R 6449   4.610   1.955   9.721  1.1504  2.8512 -1.1248
   73SLPC  C214 6450   4.473   1.944   9.541 -0.4816  0.5806 -0.5101
   73SLPC  H14R 6451   4.365   1.939   9.518 -0.2719  2.8287 -2.1923
   73SLPC  H14S 6452   4.530   1.855   9.506 -0.0849  0.5152  0.2769
   73SLPC  C215 6453   4.542   2.070   9.468  0.4340 -0.8787  0.0044
   73SLPC  H15R 6454   4.652   2.058   9.479  0.4925 -0.8418 -0.5249
   73SLPC  H15S 6455   4.497   2.162   9.512  0.8875 -0.1587 -1.0244
   73SLPC  C216 6456   4.506   2.061   9.322  0.7915 -0.0947 -0.0387
   73SLPC  H16R 6457   4.398   2.035   9.313  0.9910 -0.4906 -1.3705
   73SLPC  H16S 6458   4.560   1.974   9.280 -2.7273 -2.3283 -0.1977
   73SLPC  C217 6459   4.543   2.189   9.244 -0.7304 -0.4792  0.6187
   73SLPC  H17R 6460   4.510   2.283   9.295  0.1622  0.1228  0.0917
   73SLPC  H17S 6461   4.486   2.185   9.149 -4.4055  0.3962  2.6883
   73SLPC  C218 6462   4.695   2.213   9.213  0.8762 -0.1793 -0.4629
   73SLPC  H18R 6463   4.759   2.123   9.203  0.6327 -0.2794 -1.1771
   73SLPC  H18S 6464   4.750   2.275   9.287 -0.8543 -2.2637  2.6756
   73SLPC  H18T 6465   4.699   2.265   9.115  0.1152  0.1594 -0.3179
   73SLPC   C33 6466   4.328   1.411  10.137  0.2179  0.5720 -0.2427
   73SLPC   H3X 6467   4.437   1.417  10.160  0.0324  1.8621  0.3024
   73SLPC   H3Y 6468   4.291   1.500  10.192 -1.8665 -1.1199  1.2024
   73SLPC   C34 6469   4.302   1.434   9.983 -0.5197 -0.8294  0.1553
   73SLPC   H4X 6470   4.195   1.426   9.954  0.0605  0.3684 -2.4548
   73SLPC   H4Y 6471   4.350   1.351   9.928 -0.4351 -0.7340  0.0854
   73SLPC   C35 6472   4.380   1.563   9.940 -0.3217  0.2847  0.0335
   73SLPC   H5X 6473   4.480   1.548   9.986 -0.0964  1.6858  0.0207
   73SLPC   H5Y 6474   4.342   1.662   9.971  1.0026  0.7044  0.3323
   73SLPC   C36 6475   4.401   1.585   9.788  0.0713 -0.0692  0.2564
   73SLPC   H6X 6476   4.441   1.688   9.771 -4.1599  1.5659 -0.3092
   73SLPC   H6Y 6477   4.295   1.589   9.755 -0.2121  2.8781  1.4090
   73SLPC   C37 6478   4.495   1.488   9.710  0.4879  0.2947  0.5401
   73SLPC   H7X 6479   4.481   1.386   9.752  0.6015 -0.2432 -0.7069
   73SLPC   H7Y 6480   4.604   1.506   9.721  1.0198 -3.5900  2.4371
   73SLPC   C38 6481   4.457   1.464   9.561  0.0514  0.2819  0.4751
   73SLPC   H8X 6482   4.356   1.419   9.554  0.2969 -0.0348 -1.3382
   73SLPC   H8Y 6483   4.525   1.382   9.530  0.4770  0.5284  0.7622
   73SLPC   C39 6484   4.476   1.586   9.465 -0.7443  0.0841 -0.0037
   73SLPC   H9X 6485   4.577   1.628   9.484 -0.5558  0.4131 -1.6484
   73SLPC   H9Y 6486   4.395   1.660   9.480  0.8822  1.6356  1.4641
   73SLPC  C310 6487   4.488   1.545   9.319 -0.1552  0.9531 -0.4355
   73SLPC  H10X 6488   4.387   1.516   9.283 -0.4049  1.1600  0.0814
   73SLPC  H10Y 6489   4.551   1.456   9.300 -0.3959  0.8507 -0.7533
   73SLPC  C311 6490   4.542   1.665   9.230  0.6095  0.7841  0.1128
   73SLPC  H11X 6491   4.627   1.704   9.289  0.4530 -0.6719  1.3195
   73SLPC  H11Y 6492   4.472   1.750   9.216 -1.1526 -0.6541 -0.1301
   73SLPC  C312 6493   4.589   1.613   9.093 -0.1746  0.2487  0.5174
   73SLPC  H12X 6494   4.633   1.515   9.119  1.0030  0.6617  0.1114
   73SLPC  H12Y 6495   4.670   1.678   9.052  0.2743 -0.0454  0.9401
   73SLPC  C313 6496   4.475   1.611   8.987 -0.0338 -0.0620 -0.3452
   73SLPC  H13X 6497   4.473   1.720   8.965  0.9175 -0.1774 -1.0101
   73SLPC  H13Y 6498   4.389   1.577   9.049 -0.7216 -0.2678 -1.4060
   73SLPC  C314 6499   4.509   1.533   8.855  0.3537  0.3691 -0.8146
   73SLPC  H14X 6500   4.540   1.430   8.880 -0.3532  0.4451  0.3917
   73SLPC  H14Y 6501   4.593   1.579   8.799 -0.0559  1.7786 -0.2852
   73SLPC  C315 6502   4.384   1.517   8.759  0.4100  0.0962  0.6565
   73SLPC  H15X 6503   4.295   1.515   8.826 -1.6249 -0.7702 -1.9542
   73SLPC  H15Y 6504   4.399   1.423   8.703  2.2849  0.1469  1.0274
   73SLPC  C316 6505   4.362   1.642   8.668 -0.1409  0.1076  0.7163
   73SLPC  H16X 6506   4.446   1.638   8.595 -0.9889 -0.8938 -0.2091
   73SLPC  H16Y 6507   4.387   1.732   8.729  0.6244  0.9237 -0.7719
   73SLPC  C317 6508   4.235   1.639   8.585  0.0410  0.0116  0.4444
   73SLPC  H17X 6509   4.233   1.534   8.549  0.0670  0.8543 -2.1066
   73SLPC  H17Y 6510   4.245   1.724   8.514 -0.4880 -0.2653  0.0359
   73SLPC  C318 6511   4.126   1.691   8.678 -0.2114 -0.0463  0.1802
   73SLPC  H18X 6512   4.030   1.663   8.629  0.1855 -1.3906  0.1475
   73SLPC  H18Y 6513   4.136   1.798   8.704 -0.0874 -0.2963  1.1654
   73SLPC  H18Z 6514   4.120   1.627   8.769 -0.5154 -0.5815 -0.2097
   74SLPC     N 6515   5.486   3.538  10.892 -0.1886  0.8210  0.4079
   74SLPC   C13 6516   5.624   3.542  10.943 -0.2656 -0.7160  0.8141
   74SLPC  H13A 6517   5.653   3.644  10.925 -0.0849 -0.6944  1.2250
   74SLPC  H13B 6518   5.633   3.530  11.050  0.7000  0.6785  0.8970
   74SLPC  H13C 6519   5.699   3.483  10.892  1.8912  3.4549 -1.0937
   74SLPC   C14 6520   5.429   3.674  10.930  0.0396 -0.3119 -0.0819
   74SLPC  H14A 6521   5.330   3.688  10.888 -0.4601  0.9870  1.4674
   74SLPC  H14B 6522   5.412   3.671  11.037  2.8047 -2.3043  0.3487
   74SLPC  H14C 6523   5.486   3.758  10.894  2.1614 -1.7563 -0.1723
   74SLPC   C15 6524   5.417   3.421  10.958  0.8099  0.3330 -0.4634
   74SLPC  H15A 6525   5.447   3.414  11.061  0.0009 -0.0072 -0.2451
   74SLPC  H15B 6526   5.309   3.422  10.957  0.8003  0.4105  0.3767
   74SLPC  H15C 6527   5.446   3.334  10.901 -3.5528 -2.9232  1.9942
   74SLPC   C12 6528   5.489   3.522  10.737  0.2218  0.2573  0.1551
   74SLPC  H12A 6529   5.553   3.440  10.707  1.7097  0.3659  2.8284
   74SLPC  H12B 6530   5.526   3.616  10.699  0.2298  0.0894 -0.2528
   74SLPC   C11 6531   5.354   3.500  10.674  0.1114  0.5667  0.2096
   74SLPC  H11A 6532   5.364   3.539  10.571  2.5629 -2.3963 -0.7517
   74SLPC  H11B 6533   5.277   3.559  10.729 -0.7662 -0.0752 -0.3053
   74SLPC     P 6534   5.187   3.310  10.630 -0.0165 -0.1462  0.3783
   74SLPC   O13 6535   5.169   3.174  10.681  0.0648 -0.1897  0.5869
   74SLPC   O14 6536   5.088   3.410  10.681  0.9428  0.9444  0.6562
   74SLPC   O12 6537   5.331   3.361  10.671 -0.2995  0.6423 -0.0600
   74SLPC   O11 6538   5.193   3.309  10.467 -0.4953  0.0993 -1.2391
   74SLPC    C1 6539   5.099   3.393  10.406  0.1554 -0.3510 -0.3340
   74SLPC    HA 6540   4.999   3.381  10.453 -0.1437  1.0481 -0.5770
   74SLPC    HB 6541   5.124   3.501  10.391 -2.6425  0.0760 -2.4679
   74SLPC    C2 6542   5.077   3.334  10.263 -0.4886 -0.6494 -0.1088
   74SLPC    HS 6543   5.072   3.224  10.274  3.8310 -0.7447  1.8621
   74SLPC   O21 6544   5.188   3.386  10.181  0.0591  0.7792  0.7141
   74SLPC   C21 6545   5.234   3.285  10.095  0.1918  0.6380 -0.4923
   74SLPC   O22 6546   5.209   3.168  10.110 -0.3698  0.4359  0.4672
   74SLPC   C22 6547   5.323   3.334   9.987  0.3249 -1.2825  0.4769
   74SLPC   H2R 6548   5.297   3.442   9.981  0.0464 -1.3617  0.2330
   74SLPC   H2S 6549   5.429   3.319  10.015  0.5615 -1.3514 -0.4178
   74SLPC    C3 6550   4.935   3.377  10.210 -0.2737 -0.4385 -0.0331
   74SLPC    HX 6551   4.932   3.486  10.232  0.5440 -0.1594 -1.2295
   74SLPC    HY 6552   4.861   3.328  10.277  0.9708  0.5428  2.1130
   74SLPC   O31 6553   4.919   3.354  10.071 -0.1761 -0.2824  0.0300
   74SLPC   C31 6554   4.875   3.237  10.037 -0.0237 -0.1211  0.3400
   74SLPC   O32 6555   4.858   3.143  10.109  0.0331 -0.2303  0.2649
   74SLPC   C32 6556   4.855   3.230   9.889  0.0773  0.0929 -0.1232
   74SLPC   H2X 6557   4.951   3.192   9.848  0.1663 -0.1828  0.3278
   74SLPC   H2Y 6558   4.819   3.329   9.855 -2.1603  0.5430  3.2995
   74SLPC   C23 6559   5.298   3.270   9.850 -0.5291  0.2348 -0.2674
   74SLPC   H3R 6560   5.196   3.285   9.807 -0.4581 -0.4511 -0.6839
   74SLPC   H3S 6561   5.312   3.160   9.856  1.2186  0.3514 -2.1800
   74SLPC   C24 6562   5.397   3.321   9.745  0.0341 -0.4518  0.1551
   74SLPC   H4R 6563   5.503   3.304   9.771  0.5018 -0.3284 -1.5634
   74SLPC   H4S 6564   5.371   3.426   9.719  0.0145 -0.1015  1.5563
   74SLPC   C25 6565   5.376   3.244   9.621 -0.3314  0.0458 -0.2501
   74SLPC   H5R 6566   5.385   3.134   9.627 -2.6501 -0.0518  2.0636
   74SLPC   H5S 6567   5.467   3.279   9.567  0.1891  0.7240  1.0498
   74SLPC   C26 6568   5.264   3.281   9.533 -0.0744 -0.3859 -0.1654
   74SLPC   H6R 6569   5.270   3.391   9.518  0.0713 -0.4428 -0.5207
   74SLPC   H6S 6570   5.161   3.266   9.573  0.2447  0.4834  1.0214
   74SLPC   C27 6571   5.271   3.214   9.392 -0.0641 -0.2322 -0.1503
   74SLPC   H7R 6572   5.172   3.165   9.383  0.3511 -1.5699  1.9462
   74SLPC   H7S 6573   5.333   3.123   9.407 -1.4313 -1.3844 -1.4821
   74SLPC   C28 6574   5.305   3.321   9.290  0.7694  0.1577 -0.4217
   74SLPC   H8R 6575   5.402   3.368   9.316  0.7542  1.4951 -2.6509
   74SLPC   H8S 6576   5.223   3.396   9.293  1.5692  1.0396 -0.6722
   74SLPC   C29 6577   5.318   3.238   9.161 -0.4752  0.0105 -0.3689
   74SLPC   H9R 6578   5.384   3.151   9.171  0.1369  0.5508  0.3609
   74SLPC  C210 6579   5.246   3.241   9.046 -0.0647  0.0074  0.0923
   74SLPC  H10R 6580   5.260   3.157   8.976  2.6072  0.8665 -0.4644
   74SLPC  C211 6581   5.137   3.335   8.993  0.1274  0.0990  0.4349
   74SLPC  H11R 6582   5.105   3.403   9.075 -0.0908  1.4548 -0.7540
   74SLPC  H11S 6583   5.054   3.278   8.946  0.0855  0.7126 -0.2281
   74SLPC  C212 6584   5.204   3.421   8.888  1.1867 -0.1832 -0.8851
   74SLPC  H12R 6585   5.313   3.427   8.883  1.3246  0.9377  2.1782
   74SLPC  C213 6586   5.135   3.505   8.806  0.4917  0.0097 -0.4336
   74SLPC  H13R 6587   5.188   3.571   8.736 -0.4256  1.4037  0.1530
   74SLPC  C214 6588   4.986   3.515   8.804  0.8232  0.1717 -0.5870
   74SLPC  H14R 6589   4.959   3.617   8.768 -1.5018 -0.1716  0.0730
   74SLPC  H14S 6590   4.941   3.508   8.906  0.6736 -2.3607 -0.8091
   74SLPC  C215 6591   4.913   3.404   8.723  0.4069  0.0767  0.3995
   74SLPC  H15R 6592   4.802   3.407   8.734  0.1071 -2.8923 -1.3144
   74SLPC  H15S 6593   4.943   3.301   8.751 -0.4137 -0.7314 -1.5742
   74SLPC  C216 6594   4.952   3.409   8.574 -0.1811  0.9603 -0.6234
   74SLPC  H16R 6595   5.055   3.367   8.572 -0.6873 -0.3048 -1.0662
   74SLPC  H16S 6596   4.950   3.510   8.529 -1.4181  0.7259 -1.1100
   74SLPC  C217 6597   4.856   3.314   8.495 -0.7860  0.4009 -0.8547
   74SLPC  H17R 6598   4.748   3.335   8.511 -0.7922 -0.4817  0.4180
   74SLPC  H17S 6599   4.866   3.220   8.554 -1.2241  0.3903 -0.7971
   74SLPC  C218 6600   4.894   3.289   8.350 -0.0517 -0.2598  0.1023
   74SLPC  H18R 6601   4.988   3.230   8.355 -0.7247 -1.4120 -0.7115
   74SLPC  H18S 6602   4.917   3.384   8.296 -1.4272 -0.3010 -0.5791
   74SLPC  H18T 6603   4.815   3.243   8.288 -2.2906  0.1896  2.5592
   74SLPC   C33 6604   4.741   3.129   9.849 -0.5736  0.0819 -0.4388
   74SLPC   H3X 6605   4.646   3.163   9.895 -1.1542 -3.0800  0.8267
   74SLPC   H3Y 6606   4.771   3.031   9.893  0.7761 -0.1424 -1.8089
   74SLPC   C34 6607   4.716   3.097   9.702  0.4621  0.6355  0.7210
   74SLPC   H4X 6608   4.702   3.196   9.654 -0.9019  0.3447  0.4984
   74SLPC   H4Y 6609   4.612   3.057   9.696 -0.0072  1.6071  2.1172
   74SLPC   C35 6610   4.812   2.999   9.627  0.5329 -0.0641 -0.3400
   74SLPC   H5X 6611   4.795   2.901   9.676  0.2509 -0.2359 -0.7780
   74SLPC   H5Y 6612   4.920   3.017   9.647  1.2565 -2.1378 -2.1905
   74SLPC   C36 6613   4.783   2.983   9.482  0.5462  0.4209 -0.5817
   74SLPC   H6X 6614   4.672   2.975   9.472  0.3127 -0.0589  2.1153
   74SLPC   H6Y 6615   4.828   2.888   9.447 -1.3657 -0.6432 -0.2522
   74SLPC   C37 6616   4.816   3.103   9.392 -0.2839 -0.3785  0.0810
   74SLPC   H7X 6617   4.927   3.110   9.398 -0.0829 -1.5535 -1.8056
   74SLPC   H7Y 6618   4.768   3.200   9.418 -1.1247 -0.0555 -2.4840
   74SLPC   C38 6619   4.795   3.075   9.248 -0.6191 -0.3022  0.5438
   74SLPC   H8X 6620   4.689   3.044   9.231 -0.1183 -0.9950 -1.4647
   74SLPC   H8Y 6621   4.852   2.985   9.215  0.3220  0.2979  0.5417
   74SLPC   C39 6622   4.832   3.178   9.141  0.3378 -0.2129 -0.1525
   74SLPC   H9X 6623   4.940   3.201   9.154 -0.0684  0.4436  2.2920
   74SLPC   H9Y 6624   4.771   3.271   9.145  0.0600 -0.3786 -0.5248
   74SLPC  C310 6625   4.810   3.128   8.995  0.2939 -0.3731  0.0648
   74SLPC  H10X 6626   4.863   3.031   8.980 -0.3147 -0.5170 -1.1881
   74SLPC  H10Y 6627   4.835   3.210   8.925 -0.1149 -2.4942 -2.6363
   74SLPC  C311 6628   4.660   3.081   8.973  0.8016 -0.0384  0.2071
   74SLPC  H11X 6629   4.587   3.158   9.006 -1.0047 -0.1358 -3.3801
   74SLPC  H11Y 6630   4.637   2.985   9.026 -0.1927  0.4304  0.6548
   74SLPC  C312 6631   4.615   3.089   8.824  0.5787  0.0729 -0.2060
   74SLPC  H12X 6632   4.641   3.192   8.790 -1.3969  1.1132  1.3119
   74SLPC  H12Y 6633   4.505   3.079   8.814  0.4280  1.2217  0.2013
   74SLPC  C313 6634   4.695   2.990   8.734 -0.5804 -0.3489 -0.1504
   74SLPC  H13X 6635   4.707   2.903   8.802  0.9366 -0.3597 -0.4182
   74SLPC  H13Y 6636   4.794   3.037   8.718 -0.1126 -0.4287  2.3122
   74SLPC  C314 6637   4.631   2.969   8.596  0.2248 -0.3392 -0.0385
   74SLPC  H14X 6638   4.604   3.060   8.538  0.5826 -0.7572 -0.8736
   74SLPC  H14Y 6639   4.534   2.918   8.612 -1.3454  2.3369 -0.8450
   74SLPC  C315 6640   4.710   2.884   8.495  0.3573 -0.3579 -0.3270
   74SLPC  H15X 6641   4.723   2.790   8.553 -1.3037 -1.7009 -2.0837
   74SLPC  H15Y 6642   4.813   2.926   8.484  0.5713 -1.2067 -1.7616
   74SLPC  C316 6643   4.650   2.875   8.356  0.0089  1.2321 -0.4778
   74SLPC  H16X 6644   4.631   2.975   8.311 -0.6007  1.5363  0.4561
   74SLPC  H16Y 6645   4.547   2.835   8.371  1.0586 -1.5389 -0.4754
   74SLPC  C317 6646   4.732   2.795   8.253 -0.7692 -0.6100 -0.0359
   74SLPC  H17X 6647   4.834   2.835   8.237 -0.9936 -0.5527 -1.4174
   74SLPC  H17Y 6648   4.676   2.803   8.157  0.6346 -0.1005 -0.8220
   74SLPC  C318 6649   4.743   2.645   8.274  0.0632  0.0436  0.1598
   74SLPC  H18X 6650   4.825   2.612   8.206 -0.7001  1.3123 -1.4078
   74SLPC  H18Y 6651   4.648   2.600   8.238  0.2511  1.0134 -1.6090
   74SLPC  H18Z 6652   4.757   2.611   8.379  0.5645  3.0012  1.0969
   75SLPC     N 6653   2.775   6.607   6.216 -0.4243 -0.2453 -0.2733
   75SLPC   C13 6654   2.683   6.562   6.330  0.4018  0.4591 -0.0622
   75SLPC  H13A 6655   2.742   6.524   6.412 -0.1984 -0.4462 -0.0374
   75SLPC  H13B 6656   2.630   6.649   6.364  0.2017 -0.2055  1.3582
   75SLPC  H13C 6657   2.616   6.481   6.303  1.8889 -1.1519  0.9695
   75SLPC   C14 6658   2.852   6.722   6.267  0.4675  0.4213 -0.3249
   75SLPC  H14A 6659   2.907   6.777   6.193 -1.2205  0.1767 -1.8030
   75SLPC  H14B 6660   2.787   6.794   6.314  1.7474  2.2136 -1.2690
   75SLPC  H14C 6661   2.915   6.688   6.348  0.8648 -1.0527 -1.2439
   75SLPC   C15 6662   2.678   6.649   6.101  0.1371 -0.1597 -0.1368
   75SLPC  H15A 6663   2.648   6.751   6.120  1.4877  0.2184  0.0593
   75SLPC  H15B 6664   2.736   6.657   6.010  0.9047 -2.2605  0.1407
   75SLPC  H15C 6665   2.584   6.597   6.091 -2.7232  4.4966  0.9609
   75SLPC   C12 6666   2.881   6.501   6.188 -0.4365  0.0331  0.5861
   75SLPC  H12A 6667   2.959   6.547   6.129  1.4015  0.8522  3.5378
   75SLPC  H12B 6668   2.831   6.422   6.134 -0.9882  0.7231  0.0775
   75SLPC   C11 6669   2.952   6.444   6.310 -0.2962  0.7769 -0.1274
   75SLPC  H11A 6670   3.015   6.361   6.273 -0.1250  0.8194  0.0637
   75SLPC  H11B 6671   2.879   6.401   6.382 -1.0604  0.5455 -1.0322
   75SLPC     P 6672   3.181   6.557   6.377  0.1713 -0.0537 -0.2826
   75SLPC   O13 6673   3.223   6.525   6.239 -0.1321  0.1332 -0.7852
   75SLPC   O14 6674   3.217   6.688   6.433 -0.9135  0.2956 -0.5804
   75SLPC   O12 6675   3.022   6.548   6.385  0.6323  0.2984  0.8278
   75SLPC   O11 6676   3.238   6.443   6.462 -0.3492 -0.2128  0.0013
   75SLPC    C1 6677   3.156   6.365   6.548  0.0438  0.3027  0.3796
   75SLPC    HA 6678   3.052   6.342   6.517  0.0904  0.8553 -0.1943
   75SLPC    HB 6679   3.196   6.262   6.559 -0.7774 -0.0339  0.2040
   75SLPC    C2 6680   3.147   6.422   6.695  0.2560 -0.6037 -0.0163
   75SLPC    HS 6681   3.128   6.531   6.694  1.1791 -0.4186  1.8065
   75SLPC   O21 6682   3.274   6.400   6.748  0.0820 -0.0071 -0.1148
   75SLPC   C21 6683   3.334   6.498   6.817  0.6554 -0.4442 -0.1338
   75SLPC   O22 6684   3.304   6.615   6.814 -0.0622  0.6268 -0.3862
   75SLPC   C22 6685   3.417   6.433   6.927  0.4566 -0.2375 -0.4649
   75SLPC   H2R 6686   3.359   6.362   6.990  0.4210 -0.0724 -0.3112
   75SLPC   H2S 6687   3.500   6.383   6.873 -0.4681 -2.4546  0.1016
   75SLPC    C3 6688   3.035   6.354   6.782 -0.6003 -0.1971  0.4581
   75SLPC    HX 6689   3.031   6.243   6.777 -0.2947 -0.3063  2.1923
   75SLPC    HY 6690   2.933   6.388   6.756 -0.3225  0.2291 -0.0812
   75SLPC   O31 6691   3.059   6.378   6.918 -0.8760  0.0019 -0.3393
   75SLPC   C31 6692   2.975   6.448   6.994 -0.4154 -0.5720 -0.0650
   75SLPC   O32 6693   2.864   6.485   6.958  0.3865  0.1582  0.3299
   75SLPC   C32 6694   3.038   6.479   7.127 -0.2509 -0.2793 -0.3937
   75SLPC   H2X 6695   3.146   6.493   7.105  0.2993 -2.1532  1.0586
   75SLPC   H2Y 6696   3.037   6.387   7.189 -0.5339 -0.1411 -0.1939
   75SLPC   C23 6697   3.476   6.543   7.017 -0.2710  0.5455 -0.0188
   75SLPC   H3R 6698   3.396   6.610   7.055 -1.5073 -0.7028 -0.3646
   75SLPC   H3S 6699   3.541   6.608   6.954  0.7996 -0.8532 -0.3894
   75SLPC   C24 6700   3.552   6.478   7.140 -0.2680 -0.0239  0.1508
   75SLPC   H4R 6701   3.611   6.564   7.178 -0.3589  0.6275 -1.1543
   75SLPC   H4S 6702   3.625   6.398   7.116  0.7242  0.6990  0.7131
   75SLPC   C25 6703   3.450   6.434   7.248 -0.8720  0.3164  0.1955
   75SLPC   H5R 6704   3.404   6.340   7.213  0.6876  0.4244 -2.2611
   75SLPC   H5S 6705   3.382   6.522   7.242 -1.9470 -0.5666 -0.8495
   75SLPC   C26 6706   3.517   6.400   7.383  0.2031  0.1284  0.1705
   75SLPC   H6R 6707   3.580   6.490   7.401  1.3531 -0.6309 -0.0006
   75SLPC   H6S 6708   3.580   6.311   7.362 -0.7978 -1.1749  2.5976
   75SLPC   C27 6709   3.408   6.366   7.481 -0.2036  0.1470 -0.4227
   75SLPC   H7R 6710   3.356   6.271   7.454 -2.0376  0.5205  1.6675
   75SLPC   H7S 6711   3.329   6.445   7.487  0.7150  1.0164  0.3244
   75SLPC   C28 6712   3.462   6.351   7.621  0.1918 -0.9790  0.2613
   75SLPC   H8R 6713   3.553   6.288   7.624  0.8953 -0.0426 -1.0000
   75SLPC   H8S 6714   3.384   6.306   7.686  1.3370 -0.4187  2.0704
   75SLPC   C29 6715   3.508   6.486   7.682  0.1502 -0.9599 -1.3095
   75SLPC   H9R 6716   3.584   6.542   7.626  0.2873 -2.1576 -2.3371
   75SLPC  C210 6717   3.462   6.544   7.794 -0.1045 -0.2176 -0.2487
   75SLPC  H10R 6718   3.493   6.642   7.832 -1.5660 -0.2900  1.1802
   75SLPC  C211 6719   3.360   6.485   7.881  0.2896 -0.2092 -0.2535
   75SLPC  H11R 6720   3.287   6.441   7.809 -1.3946 -0.5643  1.6349
   75SLPC  H11S 6721   3.297   6.555   7.940 -0.7312 -1.6812  0.4378
   75SLPC  C212 6722   3.398   6.371   7.971 -0.5978  0.0091 -0.4801
   75SLPC  H12R 6723   3.452   6.293   7.916  0.0337  0.5286 -0.6012
   75SLPC  C213 6724   3.365   6.357   8.103 -0.0446 -0.3732  0.2696
   75SLPC  H13R 6725   3.383   6.256   8.142 -0.5982  0.7392  3.5415
   75SLPC  C214 6726   3.275   6.441   8.183  0.2526  0.1687  0.0240
   75SLPC  H14R 6727   3.293   6.547   8.154  0.5725  0.0372 -0.2601
   75SLPC  H14S 6728   3.309   6.432   8.288  0.4747  1.2049  0.0461
   75SLPC  C215 6729   3.129   6.407   8.176  1.2818  0.7107  0.0176
   75SLPC  H15R 6730   3.097   6.394   8.071  0.8659  1.8404  0.0024
   75SLPC  H15S 6731   3.076   6.490   8.227 -0.1753 -1.3645  1.9824
   75SLPC  C216 6732   3.064   6.279   8.236  0.3574  0.1597 -0.2708
   75SLPC  H16R 6733   3.103   6.186   8.189 -1.7329  0.2890 -2.3743
   75SLPC  H16S 6734   2.955   6.270   8.214  1.0072 -0.5604 -3.5788
   75SLPC  C217 6735   3.064   6.290   8.396 -0.5733 -0.2553  0.3918
   75SLPC  H17R 6736   3.029   6.392   8.421  0.1379 -0.0150  0.4137
   75SLPC  H17S 6737   3.166   6.284   8.440 -0.1544  0.2316 -0.5266
   75SLPC  C218 6738   2.983   6.182   8.456  0.4656 -0.3531 -0.0712
   75SLPC  H18R 6739   3.010   6.080   8.421  1.8364  0.2831 -0.9172
   75SLPC  H18S 6740   2.880   6.207   8.424  0.1138 -0.6700  0.8081
   75SLPC  H18T 6741   2.987   6.195   8.566 -0.9476  2.4723 -0.2906
   75SLPC   C33 6742   2.988   6.597   7.204 -0.2452  0.4755  0.1810
   75SLPC   H3X 6743   3.009   6.682   7.136  0.4095  0.9082  0.9195
   75SLPC   H3Y 6744   2.880   6.581   7.227 -0.2088 -0.5176 -0.3161
   75SLPC   C34 6745   3.062   6.602   7.341 -0.4786 -0.0504 -0.2728
   75SLPC   H4X 6746   3.171   6.590   7.325 -1.0817 -3.2114 -2.6814
   75SLPC   H4Y 6747   3.017   6.528   7.411  1.2887  0.0191  0.9666
   75SLPC   C35 6748   3.054   6.746   7.395 -0.0360  0.3155 -0.2033
   75SLPC   H5X 6749   2.947   6.765   7.417 -0.7429 -0.8574 -2.5251
   75SLPC   H5Y 6750   3.091   6.814   7.316 -0.9758 -0.1232 -1.0254
   75SLPC   C36 6751   3.130   6.756   7.529 -0.0813 -0.0630 -0.4021
   75SLPC   H6X 6752   3.091   6.847   7.580  0.7303  0.5033 -0.7959
   75SLPC   H6Y 6753   3.233   6.789   7.506  0.3387  1.3382  3.0614
   75SLPC   C37 6754   3.117   6.635   7.621 -0.1938 -0.3497  0.0301
   75SLPC   H7X 6755   3.198   6.634   7.698 -0.9789 -0.1436  0.8648
   75SLPC   H7Y 6756   3.133   6.534   7.577 -0.2298 -0.5770  0.5327
   75SLPC   C38 6757   2.977   6.626   7.691 -0.2377 -0.4509 -0.0480
   75SLPC   H8X 6758   2.893   6.620   7.617 -0.5666 -0.4743  0.3237
   75SLPC   H8Y 6759   2.951   6.724   7.738  0.0911 -0.0087 -0.7700
   75SLPC   C39 6760   2.980   6.519   7.803  0.6692  0.4771  0.5069
   75SLPC   H9X 6761   3.044   6.546   7.890  0.7759  0.1225  0.5392
   75SLPC   H9Y 6762   3.033   6.437   7.750 -0.5953  0.8543 -1.3774
   75SLPC  C310 6763   2.837   6.484   7.847  0.5851  0.3117  0.5256
   75SLPC  H10X 6764   2.841   6.389   7.905  1.3171 -0.0924 -0.1836
   75SLPC  H10Y 6765   2.772   6.469   7.758  0.7202  1.6559  0.1832
   75SLPC  C311 6766   2.775   6.587   7.946 -0.2424  0.9687  1.0473
   75SLPC  H11X 6767   2.665   6.580   7.938  0.0887 -2.3421 -1.3192
   75SLPC  H11Y 6768   2.805   6.692   7.929  1.1789  0.8887  2.8593
   75SLPC  C312 6769   2.808   6.545   8.092 -0.5005  0.1285 -0.1455
   75SLPC  H12X 6770   2.910   6.575   8.121 -0.1457  0.8449 -2.0521
   75SLPC  H12Y 6771   2.805   6.435   8.111  0.7580 -0.1441 -1.4658
   75SLPC  C313 6772   2.714   6.619   8.191 -0.1436 -0.3982 -0.4022
   75SLPC  H13X 6773   2.607   6.604   8.168 -0.0965 -0.3561 -0.6607
   75SLPC  H13Y 6774   2.728   6.729   8.176 -0.2369 -0.4473 -0.8636
   75SLPC  C314 6775   2.741   6.589   8.337 -0.8357  0.8323 -0.3929
   75SLPC  H14X 6776   2.850   6.581   8.358 -1.1733 -2.8231  0.2989
   75SLPC  H14Y 6777   2.701   6.488   8.358 -2.7662  1.3881 -1.2786
   75SLPC  C315 6778   2.677   6.694   8.429  0.6338  0.4560 -0.5570
   75SLPC  H15X 6779   2.568   6.683   8.408  0.4366  0.0364  0.6517
   75SLPC  H15Y 6780   2.700   6.794   8.385  2.2742 -0.2508 -1.3294
   75SLPC  C316 6781   2.697   6.688   8.574 -0.1464 -0.3472  0.1594
   75SLPC  H16X 6782   2.807   6.674   8.586 -0.1754 -1.8849 -1.2055
   75SLPC  H16Y 6783   2.664   6.596   8.625  0.3925 -0.8559 -0.3967
   75SLPC  C317 6784   2.647   6.821   8.643 -0.3433  1.1022 -0.3154
   75SLPC  H17X 6785   2.537   6.812   8.632  0.0857 -1.4918 -3.5426
   75SLPC  H17Y 6786   2.683   6.909   8.586 -0.3676  1.9620  0.9850
   75SLPC  C318 6787   2.688   6.841   8.788  0.0532  0.0939 -0.6586
   75SLPC  H18X 6788   2.683   6.743   8.840 -0.0158  0.8392  0.7884
   75SLPC  H18Y 6789   2.621   6.911   8.842 -0.1770  0.6192 -1.6066
   75SLPC  H18Z 6790   2.791   6.884   8.792  1.2808 -2.8435  2.3014
   76SLPC     N 6791   4.810   4.172   6.339  0.8294  0.1112 -0.1443
   76SLPC   C13 6792   4.815   4.235   6.201  0.2696 -0.0871 -0.4660
   76SLPC  H13A 6793   4.750   4.320   6.190  0.3818 -0.1013 -1.3135
   76SLPC  H13B 6794   4.915   4.272   6.184  0.2349  0.3939  0.3806
   76SLPC  H13C 6795   4.803   4.158   6.126 -2.4415 -0.3428  0.2062
   76SLPC   C14 6796   4.896   4.053   6.351 -0.9643 -0.3439  0.5474
   76SLPC  H14A 6797   4.879   3.973   6.281  2.2248  0.7625 -1.6227
   76SLPC  H14B 6798   4.995   4.088   6.325 -1.5762 -1.3839 -3.3922
   76SLPC  H14C 6799   4.900   4.023   6.455 -0.3864  2.3222  1.3226
   76SLPC   C15 6800   4.668   4.119   6.350  0.0588 -0.0663  0.2871
   76SLPC  H15A 6801   4.598   4.201   6.344 -2.5631 -2.2478  0.1712
   76SLPC  H15B 6802   4.646   4.053   6.267 -1.5358 -1.0347  1.4591
   76SLPC  H15C 6803   4.656   4.065   6.442 -0.9081  1.2025  0.9298
   76SLPC   C12 6804   4.827   4.276   6.450 -0.0897  0.2356  0.2115
   76SLPC  H12A 6805   4.802   4.232   6.545  0.5675 -0.0206  0.2669
   76SLPC  H12B 6806   4.756   4.356   6.436 -0.0861  0.1932 -0.0596
   76SLPC   C11 6807   4.966   4.343   6.446  0.5219  0.1516 -0.3838
   76SLPC  H11A 6808   5.056   4.279   6.447 -0.0871 -0.7087  0.7999
   76SLPC  H11B 6809   4.977   4.397   6.543  0.8042 -0.1436 -0.2530
   76SLPC     P 6810   4.896   4.573   6.355  0.3411 -0.2804  0.0919
   76SLPC   O13 6811   4.945   4.664   6.249 -0.1160 -0.4230 -0.3907
   76SLPC   O14 6812   4.748   4.538   6.355  0.1783 -0.1439  0.0828
   76SLPC   O12 6813   4.978   4.440   6.335 -0.5964 -0.1447 -0.1365
   76SLPC   O11 6814   4.924   4.629   6.503  0.0851  0.1180 -0.2967
   76SLPC    C1 6815   5.034   4.720   6.542  0.3616  0.7253 -0.7988
   76SLPC    HA 6816   5.098   4.753   6.458  0.3711  0.9942 -0.6868
   76SLPC    HB 6817   4.986   4.816   6.572  2.1774  2.0890 -2.1691
   76SLPC    C2 6818   5.131   4.664   6.648  1.0186  0.2658 -0.3116
   76SLPC    HS 6819   5.177   4.577   6.596  1.6781  0.0958  0.5358
   76SLPC   O21 6820   5.040   4.630   6.762 -0.3248  0.3237  0.3426
   76SLPC   C21 6821   5.089   4.518   6.819 -0.3555 -0.9453  0.2143
   76SLPC   O22 6822   5.163   4.439   6.764 -0.2246 -0.1323  0.1976
   76SLPC   C22 6823   5.050   4.515   6.964 -0.5830  0.0616  0.2585
   76SLPC   H2R 6824   4.949   4.558   6.986 -0.9458 -0.0905 -1.0685
   76SLPC   H2S 6825   5.038   4.408   6.990  1.0476 -0.8188 -2.5021
   76SLPC    C3 6826   5.242   4.766   6.691  0.0867  0.1480  0.8117
   76SLPC    HX 6827   5.189   4.854   6.733  0.2669  0.0772  1.1911
   76SLPC    HY 6828   5.294   4.805   6.601 -2.7113 -0.7257 -1.2700
   76SLPC   O31 6829   5.331   4.698   6.788 -0.0830 -0.5057  0.3706
   76SLPC   C31 6830   5.446   4.644   6.741 -0.0211  0.8023  0.3332
   76SLPC   O32 6831   5.481   4.643   6.623 -0.1542 -0.1740  0.3855
   76SLPC   C32 6832   5.529   4.585   6.860 -0.2297 -0.7421  0.5842
   76SLPC   H2X 6833   5.511   4.648   6.950 -0.3232 -1.5409  1.1263
   76SLPC   H2Y 6834   5.639   4.586   6.842 -0.5929  0.7878 -1.8089
   76SLPC   C23 6835   5.142   4.586   7.063 -0.1003  0.3812  0.0978
   76SLPC   H3R 6836   5.114   4.692   7.080 -0.9556 -0.0228  1.2440
   76SLPC   H3S 6837   5.244   4.592   7.021  0.8956  0.1812  2.4119
   76SLPC   C24 6838   5.146   4.517   7.201  0.4295  0.1617 -0.2454
   76SLPC   H4R 6839   5.185   4.416   7.176 -1.1158 -0.2371 -1.1239
   76SLPC   H4S 6840   5.041   4.504   7.233 -0.6006 -2.3420 -4.2659
   76SLPC   C25 6841   5.235   4.579   7.305  1.3123 -0.0943  0.4669
   76SLPC   H5R 6842   5.214   4.685   7.328  0.7911 -0.1627  0.3148
   76SLPC   H5S 6843   5.333   4.603   7.258  0.4214  2.7487 -0.0230
   76SLPC   C26 6844   5.255   4.493   7.434  0.3319 -0.3054 -0.1445
   76SLPC   H6R 6845   5.317   4.401   7.421 -1.2996 -1.5894  1.0111
   76SLPC   H6S 6846   5.150   4.459   7.446 -0.0512 -0.3440 -3.1167
   76SLPC   C27 6847   5.314   4.572   7.553 -0.0924  0.1152  0.0630
   76SLPC   H7R 6848   5.263   4.670   7.567 -0.3217  0.2571 -1.6899
   76SLPC   H7S 6849   5.416   4.606   7.528  0.5040 -1.1652  0.7098
   76SLPC   C28 6850   5.324   4.502   7.688  0.2916 -0.4029  0.4661
   76SLPC   H8R 6851   5.373   4.403   7.676 -0.3617 -0.8114  1.1845
   76SLPC   H8S 6852   5.394   4.569   7.742  1.6532 -1.0715 -0.4258
   76SLPC   C29 6853   5.189   4.476   7.756 -0.4396  0.4272 -0.2273
   76SLPC   H9R 6854   5.114   4.418   7.699  1.1247 -1.5416 -0.3181
   76SLPC  C210 6855   5.161   4.520   7.880  0.5023 -0.5395  0.3940
   76SLPC  H10R 6856   5.061   4.515   7.926  0.8205  2.2288  1.5157
   76SLPC  C211 6857   5.238   4.613   7.973  0.1775 -0.9313  0.0335
   76SLPC  H11R 6858   5.329   4.650   7.920  0.5576 -2.3682 -0.3639
   76SLPC  H11S 6859   5.269   4.555   8.062  1.5677 -2.3896 -1.3559
   76SLPC  C212 6860   5.160   4.736   8.010  0.3566 -0.0785 -0.5872
   76SLPC  H12R 6861   5.157   4.813   7.931  1.5956  0.8945  0.2869
   76SLPC  C213 6862   5.118   4.765   8.131  0.2231 -0.0314  0.0903
   76SLPC  H13R 6863   5.063   4.858   8.149  2.6278  1.8175 -1.7156
   76SLPC  C214 6864   5.124   4.682   8.260 -0.3286 -0.2071  0.2270
   76SLPC  H14R 6865   5.165   4.582   8.232 -2.3632 -0.8048 -0.6697
   76SLPC  H14S 6866   5.016   4.675   8.285 -0.5921  0.6712 -0.6354
   76SLPC  C215 6867   5.200   4.742   8.375  0.3032  0.7432  0.4429
   76SLPC  H15R 6868   5.185   4.676   8.464 -0.6197  1.6860  0.9991
   76SLPC  H15S 6869   5.141   4.833   8.397  1.9915  2.3112 -1.3920
   76SLPC  C216 6870   5.345   4.776   8.337 -0.3327  1.6704  0.3170
   76SLPC  H16R 6871   5.341   4.865   8.271 -0.1548  1.7459  0.4065
   76SLPC  H16S 6872   5.408   4.695   8.293 -1.5835  2.1208 -2.4586
   76SLPC  C217 6873   5.425   4.822   8.465  0.7770 -0.0770 -1.0038
   76SLPC  H17R 6874   5.438   4.724   8.515 -1.7860  0.1113  0.1085
   76SLPC  H17S 6875   5.355   4.889   8.520 -1.8187 -1.7771 -2.1822
   76SLPC  C218 6876   5.554   4.908   8.443 -0.2824  0.2262  0.1095
   76SLPC  H18R 6877   5.631   4.871   8.514  1.5277  1.0131 -1.4139
   76SLPC  H18S 6878   5.535   5.017   8.451  1.3497  0.6548 -1.5536
   76SLPC  H18T 6879   5.589   4.882   8.340 -2.4058 -0.0733 -0.5615
   76SLPC   C33 6880   5.491   4.440   6.885 -0.5862  0.4703 -0.2988
   76SLPC   H3X 6881   5.512   4.385   6.791 -1.3539  0.3958 -0.4248
   76SLPC   H3Y 6882   5.386   4.423   6.916 -1.0503  1.2222 -1.4108
   76SLPC   C34 6883   5.583   4.373   6.988  0.0685 -0.0024 -0.1216
   76SLPC   H4X 6884   5.685   4.371   6.946 -0.0582  0.8147 -0.4646
   76SLPC   H4Y 6885   5.550   4.267   6.981 -4.5950  1.3075  0.1047
   76SLPC   C35 6886   5.583   4.425   7.126 -0.4588  0.0648 -0.4170
   76SLPC   H5X 6887   5.480   4.429   7.168 -0.8521 -1.9073 -1.1575
   76SLPC   H5Y 6888   5.628   4.527   7.128  2.6409 -1.2686  0.6278
   76SLPC   C36 6889   5.678   4.333   7.209  0.4308  0.0819 -0.1277
   76SLPC   H6X 6890   5.773   4.329   7.153  0.8201 -0.8345  0.5795
   76SLPC   H6Y 6891   5.629   4.234   7.223 -0.5872  0.2502 -2.2824
   76SLPC   C37 6892   5.714   4.405   7.339 -0.2742 -0.5301  0.3728
   76SLPC   H7X 6893   5.618   4.445   7.379  0.3795  2.1318 -0.6385
   76SLPC   H7Y 6894   5.787   4.488   7.323 -0.8054 -0.1720 -0.1987
   76SLPC   C38 6895   5.780   4.312   7.444  0.4955 -0.1067 -0.5390
   76SLPC   H8X 6896   5.872   4.274   7.395  0.9375  0.2694 -0.0126
   76SLPC   H8Y 6897   5.715   4.223   7.454 -2.5435  2.1712  0.8960
   76SLPC   C39 6898   5.806   4.369   7.582  0.0023 -0.9556  0.0005
   76SLPC   H9X 6899   5.865   4.463   7.569  0.4226 -1.1598  0.3896
   76SLPC   H9Y 6900   5.872   4.311   7.649  0.9958 -1.4331 -1.3560
   76SLPC  C310 6901   5.677   4.399   7.652 -0.3858 -0.2901 -0.7626
   76SLPC  H10X 6902   5.615   4.314   7.688  0.5496  0.0570  1.7778
   76SLPC  H10Y 6903   5.607   4.455   7.587  1.2957 -0.0081 -2.3668
   76SLPC  C311 6904   5.695   4.498   7.771 -0.0368  0.0442  0.7870
   76SLPC  H11X 6905   5.616   4.468   7.843 -3.0805  1.5358 -1.8159
   76SLPC  H11Y 6906   5.688   4.600   7.728 -0.5900 -0.2492  0.1804
   76SLPC  C312 6907   5.831   4.487   7.849  0.7319  1.6037  0.2065
   76SLPC  H12X 6908   5.914   4.508   7.778 -0.7337  0.4323 -1.9086
   76SLPC  H12Y 6909   5.845   4.380   7.876  0.2662  1.1683 -1.2136
   76SLPC  C313 6910   5.841   4.578   7.968  0.0806 -0.0422 -0.0882
   76SLPC  H13X 6911   5.850   4.685   7.939  2.5860  0.5465  2.5878
   76SLPC  H13Y 6912   5.935   4.556   8.025  0.0055  1.1589  0.5265
   76SLPC  C314 6913   5.728   4.570   8.063 -0.5688 -0.9216 -0.3929
   76SLPC  H14X 6914   5.684   4.469   8.069 -1.3224 -0.4878  1.8058
   76SLPC  H14Y 6915   5.639   4.627   8.028 -0.7621 -1.5124 -0.8718
   76SLPC  C315 6916   5.765   4.630   8.203  0.4673 -0.1467  0.2102
   76SLPC  H15X 6917   5.669   4.629   8.258 -0.4941  3.1187 -1.2858
   76SLPC  H15Y 6918   5.795   4.736   8.189  1.1034 -0.5396 -1.5038
   76SLPC  C316 6919   5.889   4.563   8.273  1.0107 -0.1841  0.5145
   76SLPC  H16X 6920   5.981   4.582   8.214  0.1960 -1.3112 -1.1430
   76SLPC  H16Y 6921   5.888   4.452   8.281 -2.1601 -0.2440 -0.0284
   76SLPC  C317 6922   5.908   4.640   8.405  0.2099  0.4895  0.1071
   76SLPC  H17X 6923   5.898   4.751   8.406  1.5719  0.6399 -1.4963
   76SLPC  H17Y 6924   6.014   4.628   8.435 -0.1671 -0.2459  1.1727
   76SLPC  C318 6925   5.820   4.584   8.520 -0.0880 -0.5671 -0.2256
   76SLPC  H18X 6926   5.848   4.609   8.624 -1.1357  0.0563 -0.0888
   76SLPC  H18Y 6927   5.815   4.473   8.514  0.1930 -0.7439  2.1782
   76SLPC  H18Z 6928   5.720   4.627   8.498 -0.1627 -0.5477  0.1515
   77SLPC     N 6929   1.379   4.574   5.779  0.1028 -0.0730  0.6200
   77SLPC   C13 6930   1.420   4.668   5.668 -0.0419  0.0762  0.3570
   77SLPC  H13A 6931   1.360   4.758   5.661  0.6435  0.3944 -1.6787
   77SLPC  H13B 6932   1.523   4.694   5.683 -0.3942  0.5186  2.1884
   77SLPC  H13C 6933   1.398   4.617   5.576  2.7309 -3.0969  1.3602
   77SLPC   C14 6934   1.481   4.464   5.791 -0.1714  0.1788  0.3768
   77SLPC  H14A 6935   1.471   4.404   5.701  0.6676 -0.0534  0.4352
   77SLPC  H14B 6936   1.582   4.495   5.810  0.4812 -1.2684 -0.6211
   77SLPC  H14C 6937   1.441   4.403   5.871 -1.8330  0.8925  0.1189
   77SLPC   C15 6938   1.247   4.512   5.757  0.3596 -0.4631  0.1898
   77SLPC  H15A 6939   1.232   4.453   5.668  0.3916 -1.3900  0.7925
   77SLPC  H15B 6940   1.225   4.449   5.842  0.1516  0.6516  0.9686
   77SLPC  H15C 6941   1.178   4.595   5.755  2.3932  1.2605 -0.8620
   77SLPC   C12 6942   1.387   4.651   5.898 -0.0173 -0.0573  0.5056
   77SLPC  H12A 6943   1.333   4.743   5.879  1.8826  0.8878 -0.4381
   77SLPC  H12B 6944   1.493   4.662   5.920  0.7128  0.5515 -3.1347
   77SLPC   C11 6945   1.320   4.587   6.027  0.6538 -0.3196  0.2962
   77SLPC  H11A 6946   1.339   4.477   6.021  1.3507 -0.2437  1.0131
   77SLPC  H11B 6947   1.215   4.621   6.020  1.5431  2.4125 -0.2446
   77SLPC     P 6948   1.524   4.596   6.198 -0.2442 -0.0404 -0.5684
   77SLPC   O13 6949   1.611   4.547   6.087 -0.4244 -0.2958 -0.3156
   77SLPC   O14 6950   1.580   4.686   6.300  0.2442 -0.1038  0.1647
   77SLPC   O12 6951   1.386   4.650   6.137  0.3459  0.1527  0.4350
   77SLPC   O11 6952   1.466   4.469   6.282  0.3818 -0.2157  0.1623
   77SLPC    C1 6953   1.355   4.484   6.375  0.1470  0.3639  0.0393
   77SLPC    HA 6954   1.275   4.542   6.324 -0.9656  0.5497  1.9346
   77SLPC    HB 6955   1.316   4.382   6.396 -0.8201  0.4032 -1.5235
   77SLPC    C2 6956   1.375   4.558   6.511  1.1110 -0.3519  0.4739
   77SLPC    HS 6957   1.402   4.665   6.504  0.3047 -0.2230 -0.6540
   77SLPC   O21 6958   1.478   4.499   6.593 -0.3202  0.4821  0.7582
   77SLPC   C21 6959   1.516   4.573   6.695  0.7222 -1.2174 -0.8833
   77SLPC   O22 6960   1.468   4.683   6.718  0.0154 -0.6245 -0.1678
   77SLPC   C22 6961   1.627   4.505   6.776  0.4210 -0.8749  0.0463
   77SLPC   H2R 6962   1.595   4.400   6.795 -0.9299 -0.6849 -1.1227
   77SLPC   H2S 6963   1.723   4.510   6.719  1.6846 -0.3015  2.1756
   77SLPC    C3 6964   1.236   4.562   6.588  0.0712  0.0429  0.1487
   77SLPC    HX 6965   1.170   4.594   6.505  0.6044  0.4916 -0.1052
   77SLPC    HY 6966   1.237   4.643   6.664  1.6273  0.1172  0.0670
   77SLPC   O31 6967   1.202   4.436   6.655  0.8632  0.4198 -0.1105
   77SLPC   C31 6968   1.070   4.413   6.687 -0.2083  0.3383  0.1355
   77SLPC   O32 6969   0.984   4.499   6.682 -0.3414 -0.2345  0.4756
   77SLPC   C32 6970   1.033   4.267   6.719 -0.6002  0.4255  0.3507
   77SLPC   H2X 6971   1.023   4.213   6.623 -0.7149  1.7817 -0.4011
   77SLPC   H2Y 6972   0.939   4.264   6.778 -1.0677 -2.6817 -0.4402
   77SLPC   C23 6973   1.669   4.578   6.910  0.0104  0.2212 -0.0976
   77SLPC   H3R 6974   1.699   4.679   6.877 -0.8700  0.1894 -1.0070
   77SLPC   H3S 6975   1.753   4.519   6.953  1.5418  1.9085 -0.6996
   77SLPC   C24 6976   1.557   4.583   7.015  0.4777  0.5050  0.2948
   77SLPC   H4R 6977   1.523   4.483   7.051 -1.2603  0.2428 -1.9306
   77SLPC   H4S 6978   1.467   4.632   6.970 -1.4167 -0.3460  3.0067
   77SLPC   C25 6979   1.598   4.667   7.134 -0.1469 -0.0698  0.0902
   77SLPC   H5R 6980   1.559   4.770   7.117  0.7521  0.4419  1.0767
   77SLPC   H5S 6981   1.707   4.668   7.157 -0.7237  1.6717  3.0360
   77SLPC   C26 6982   1.514   4.630   7.259  1.3576 -0.1484 -1.2302
   77SLPC   H6R 6983   1.556   4.538   7.304  1.8362 -1.2977 -3.9546
   77SLPC   H6S 6984   1.413   4.605   7.221  0.1344  1.6599  0.6933
   77SLPC   C27 6985   1.514   4.744   7.361 -0.4308 -0.7990 -0.2272
   77SLPC   H7R 6986   1.494   4.843   7.315 -1.8283  1.5450  5.0214
   77SLPC   H7S 6987   1.621   4.756   7.388 -0.3840  0.1303 -0.8247
   77SLPC   C28 6988   1.419   4.729   7.484  0.5660 -0.4297 -0.0515
   77SLPC   H8R 6989   1.315   4.711   7.449  0.0806 -1.3664  1.7679
   77SLPC   H8S 6990   1.421   4.824   7.541 -0.3744 -0.3137 -0.1984
   77SLPC   C29 6991   1.469   4.617   7.571 -0.2296  0.3237  0.5569
   77SLPC   H9R 6992   1.536   4.551   7.515 -1.2820 -1.9521  1.9273
   77SLPC  C210 6993   1.435   4.590   7.695 -0.6129 -0.1998  0.0513
   77SLPC  H10R 6994   1.470   4.503   7.752 -1.1511  0.5478  1.5633
   77SLPC  C211 6995   1.355   4.691   7.790 -0.2116  0.1805 -0.4057
   77SLPC  H11R 6996   1.347   4.792   7.744  1.6232  0.0331 -1.1021
   77SLPC  H11S 6997   1.404   4.717   7.886 -0.8364  1.5091 -0.4280
   77SLPC  C212 6998   1.213   4.645   7.787  0.0904  0.5947 -0.1845
   77SLPC  H12R 6999   1.143   4.687   7.714 -1.8096 -0.7302  0.8123
   77SLPC  C213 7000   1.155   4.550   7.872 -0.3941 -0.2069  0.0857
   77SLPC  H13R 7001   1.053   4.521   7.844 -1.3633  3.8252 -0.8909
   77SLPC  C214 7002   1.226   4.466   7.978  0.2785  0.3820  0.1946
   77SLPC  H14R 7003   1.330   4.504   7.988  0.7508 -0.8655  0.1643
   77SLPC  H14S 7004   1.230   4.356   7.962  0.8390  0.5434 -0.8311
   77SLPC  C215 7005   1.160   4.484   8.121 -0.6675  0.0556  0.0113
   77SLPC  H15R 7006   1.209   4.427   8.203  0.5023  1.0219  0.0036
   77SLPC  H15S 7007   1.050   4.475   8.126 -0.7543  0.8111 -0.4294
   77SLPC  C216 7008   1.188   4.632   8.164  1.1353  0.3586  0.9660
   77SLPC  H16R 7009   1.141   4.701   8.090  0.3931 -1.5047 -0.3594
   77SLPC  H16S 7010   1.297   4.652   8.159  1.1095  1.0658  3.0142
   77SLPC  C217 7011   1.149   4.653   8.311  0.1348  0.2905  0.1535
   77SLPC  H17R 7012   1.209   4.585   8.375  0.2147  0.4889  0.2916
   77SLPC  H17S 7013   1.045   4.616   8.321  1.7990 -3.9470  3.1966
   77SLPC  C218 7014   1.184   4.793   8.356 -0.2809  0.3241 -0.1193
   77SLPC  H18R 7015   1.292   4.809   8.337 -0.0549 -1.0793 -0.0674
   77SLPC  H18S 7016   1.171   4.796   8.466 -0.1032  0.2479 -0.0958
   77SLPC  H18T 7017   1.129   4.871   8.300  0.1509  1.2513  0.7216
   77SLPC   C33 7018   1.137   4.192   6.803  0.4815 -0.5620  0.0464
   77SLPC   H3X 7019   1.239   4.202   6.760 -0.4573 -0.6497 -2.2963
   77SLPC   H3Y 7020   1.102   4.087   6.806 -0.7480 -0.1171  2.1017
   77SLPC   C34 7021   1.140   4.247   6.944  0.1707  1.0985  0.7982
   77SLPC   H4X 7022   1.040   4.286   6.972 -0.3073  0.0793  0.5283
   77SLPC   H4Y 7023   1.214   4.327   6.964  3.4435 -1.3081 -1.0977
   77SLPC   C35 7024   1.167   4.134   7.045 -0.1224  0.4855 -0.2511
   77SLPC   H5X 7025   1.251   4.073   7.006  0.0120  0.4432  0.1039
   77SLPC   H5Y 7026   1.082   4.063   7.055  1.9148 -1.6670  2.6205
   77SLPC   C36 7027   1.210   4.193   7.177 -0.7223 -1.0684  0.3370
   77SLPC   H6X 7028   1.123   4.240   7.227 -1.0595 -2.9367  1.5336
   77SLPC   H6Y 7029   1.287   4.266   7.143 -0.7183 -1.5544 -0.7224
   77SLPC   C37 7030   1.269   4.088   7.273  0.9893  0.6511 -0.3872
   77SLPC   H7X 7031   1.361   4.037   7.239  1.5153  0.8461  0.7090
   77SLPC   H7Y 7032   1.189   4.013   7.293  0.0641  1.5944 -0.4919
   77SLPC   C38 7033   1.277   4.149   7.416  0.1548 -0.7069  0.2780
   77SLPC   H8X 7034   1.178   4.186   7.450  0.4352 -1.2129  1.7111
   77SLPC   H8Y 7035   1.348   4.234   7.421 -0.4162 -0.2351  0.2906
   77SLPC   C39 7036   1.320   4.042   7.530  0.1987  0.3117 -0.5458
   77SLPC   H9X 7037   1.428   4.018   7.523 -0.1922 -1.4180 -0.9799
   77SLPC   H9Y 7038   1.260   3.953   7.501  3.1921 -1.7855 -0.4812
   77SLPC  C310 7039   1.289   4.079   7.681  0.3120  0.0681 -0.3885
   77SLPC  H10X 7040   1.192   4.132   7.669  0.5478  0.8839  1.1441
   77SLPC  H10Y 7041   1.376   4.133   7.724 -1.0912  1.8066  0.3547
   77SLPC  C311 7042   1.254   3.955   7.764 -0.2936 -0.4292  0.1608
   77SLPC  H11X 7043   1.348   3.898   7.779  0.9982  1.3739 -0.8679
   77SLPC  H11Y 7044   1.197   3.883   7.700 -0.1517  0.3841 -0.9017
   77SLPC  C312 7045   1.161   3.994   7.877 -0.0573  0.1429  0.2987
   77SLPC  H12X 7046   1.062   4.016   7.832  0.5728 -0.9220 -1.6630
   77SLPC  H12Y 7047   1.193   4.091   7.920  0.8731 -0.0845  0.1241
   77SLPC  C313 7048   1.136   3.877   7.970 -0.0281 -0.4723  0.3809
   77SLPC  H13X 7049   1.226   3.861   8.033  1.1466  1.8367 -0.6635
   77SLPC  H13Y 7050   1.143   3.785   7.909 -1.9502 -0.0694 -0.4814
   77SLPC  C314 7051   1.012   3.887   8.058  0.0965  0.0728  0.1096
   77SLPC  H14X 7052   1.000   3.801   8.127  0.5787 -0.9623 -1.0790
   77SLPC  H14Y 7053   0.937   3.888   7.975  1.4086  4.4205 -1.1999
   77SLPC  C315 7054   0.995   4.021   8.131  0.4241 -0.5364  0.7578
   77SLPC  H15X 7055   0.896   4.038   8.178  0.1324 -1.5796  0.5274
   77SLPC  H15Y 7056   1.007   4.098   8.052  0.2644 -0.9026  0.3778
   77SLPC  C316 7057   1.104   4.031   8.240  0.9562 -0.3767  0.2541
   77SLPC  H16X 7058   1.195   4.027   8.177  0.0945  3.7784 -1.4176
   77SLPC  H16Y 7059   1.096   3.954   8.320 -0.3353  1.0473  1.5459
   77SLPC  C317 7060   1.101   4.167   8.316  0.3900  0.0979 -0.0919
   77SLPC  H17X 7061   1.028   4.171   8.400  0.2093 -1.0604 -0.1967
   77SLPC  H17Y 7062   1.060   4.243   8.246  1.2600  0.9522  0.2993
   77SLPC  C318 7063   1.244   4.191   8.367 -0.0440  0.1933 -0.0606
   77SLPC  H18X 7064   1.235   4.257   8.455 -1.1478  0.4224 -0.3372
   77SLPC  H18Y 7065   1.298   4.243   8.285 -0.6631 -0.3840 -0.8519
   77SLPC  H18Z 7066   1.290   4.091   8.383  1.0704  0.8596  0.9546
   78SLPC     N 7067   3.340   6.024   6.162  0.0117  0.1606 -0.7567
   78SLPC   C13 7068   3.464   5.993   6.238 -0.3569  0.1965  0.0228
   78SLPC  H13A 7069   3.545   5.953   6.178 -0.1615 -3.0758  2.3408
   78SLPC  H13B 7070   3.499   6.091   6.266 -3.0717  2.0666 -2.7391
   78SLPC  H13C 7071   3.436   5.922   6.314  2.4962 -2.6215 -1.4010
   78SLPC   C14 7072   3.372   6.114   6.048  0.2109  0.1567 -0.4511
   78SLPC  H14A 7073   3.451   6.066   5.993 -0.2561 -2.5309  1.1753
   78SLPC  H14B 7074   3.288   6.129   5.981  0.0894 -1.9590 -0.8152
   78SLPC  H14C 7075   3.412   6.210   6.077  0.7767 -0.5902  1.2445
   78SLPC   C15 7076   3.245   6.102   6.251  1.1955  0.4622 -0.0957
   78SLPC  H15A 7077   3.296   6.197   6.251  1.5789  0.2557 -0.3001
   78SLPC  H15B 7078   3.144   6.120   6.219  0.4961 -1.3719  0.9650
   78SLPC  H15C 7079   3.235   6.069   6.354 -3.2810 -0.9578 -0.8933
   78SLPC   C12 7080   3.270   5.897   6.118 -0.5153 -0.2078  0.1869
   78SLPC  H12A 7081   3.322   5.852   6.034  1.7721  1.3696  0.7298
   78SLPC  H12B 7082   3.174   5.931   6.081 -2.1457 -1.5068  3.0132
   78SLPC   C11 7083   3.236   5.784   6.219  0.4352  0.5383 -0.6563
   78SLPC  H11A 7084   3.182   5.698   6.175  0.2423 -0.7725  1.9978
   78SLPC  H11B 7085   3.170   5.831   6.295 -0.7836 -0.5751 -1.0203
   78SLPC     P 7086   3.423   5.598   6.267 -0.2921 -0.0045 -0.6387
   78SLPC   O13 7087   3.452   5.574   6.123  0.6447  0.0443 -0.6085
   78SLPC   O14 7088   3.541   5.601   6.361 -0.4138  0.7475 -0.2713
   78SLPC   O12 7089   3.349   5.735   6.289  0.0214  0.8245  0.1663
   78SLPC   O11 7090   3.316   5.488   6.310  0.0817  0.8808  0.2155
   78SLPC    C1 7091   3.219   5.523   6.416 -0.0556 -0.5408  0.4035
   78SLPC    HA 7092   3.249   5.619   6.463  0.9029 -0.6744  0.0754
   78SLPC    HB 7093   3.115   5.537   6.382  0.0483  1.0533  0.6757
   78SLPC    C2 7094   3.212   5.411   6.527 -0.3517 -0.3277  0.4012
   78SLPC    HS 7095   3.130   5.433   6.600  2.2703 -0.2711  3.4613
   78SLPC   O21 7096   3.342   5.403   6.596 -0.3380 -0.0223  0.7243
   78SLPC   C21 7097   3.365   5.498   6.682 -0.3947  0.1135 -0.0849
   78SLPC   O22 7098   3.292   5.589   6.707  0.2280 -0.4004  0.0771
   78SLPC   C22 7099   3.504   5.475   6.739 -0.0255 -0.6371  0.9542
   78SLPC   H2R 7100   3.499   5.398   6.819 -0.1316 -1.9531 -0.2946
   78SLPC   H2S 7101   3.561   5.441   6.650 -1.3566 -1.3600  0.3642
   78SLPC    C3 7102   3.170   5.279   6.459  0.0719 -0.2363 -0.3123
   78SLPC    HX 7103   3.261   5.242   6.407  1.5228 -0.5296  2.3427
   78SLPC    HY 7104   3.089   5.296   6.386  0.2633 -2.9509 -1.2010
   78SLPC   O31 7105   3.124   5.187   6.563 -0.8366 -0.0927 -0.0114
   78SLPC   C31 7106   2.998   5.175   6.580 -0.3697 -0.2693  0.3213
   78SLPC   O32 7107   2.910   5.236   6.514  0.1053 -0.9111  0.2306
   78SLPC   C32 7108   2.988   5.077   6.691 -0.1607  0.3418 -0.3779
   78SLPC   H2X 7109   3.072   5.092   6.762 -0.1041 -0.4737 -0.2610
   78SLPC   H2Y 7110   3.009   4.978   6.644  0.0558  1.2060 -2.1416
   78SLPC   C23 7111   3.551   5.598   6.811 -0.4480  0.3059  0.0717
   78SLPC   H3R 7112   3.481   5.610   6.896 -1.6553  0.0665 -0.8711
   78SLPC   H3S 7113   3.563   5.687   6.745  3.9089  1.8040  2.6707
   78SLPC   C24 7114   3.695   5.573   6.859 -0.4768  0.1734  0.1804
   78SLPC   H4R 7115   3.729   5.665   6.911 -1.1801 -0.4977  1.8888
   78SLPC   H4S 7116   3.764   5.565   6.773  0.4386 -0.7684  0.9845
   78SLPC   C25 7117   3.732   5.454   6.956 -0.1287  0.2516 -0.3632
   78SLPC   H5R 7118   3.839   5.465   6.984  0.7887 -1.4890 -2.9427
   78SLPC   H5S 7119   3.721   5.354   6.907  3.1796 -0.4086  0.0792
   78SLPC   C26 7120   3.629   5.448   7.077  0.1932  0.2820  0.1018
   78SLPC   H6R 7121   3.641   5.351   7.130  0.3775 -0.0823 -0.5933
   78SLPC   H6S 7122   3.524   5.441   7.044  0.4462 -1.2526 -0.4067
   78SLPC   C27 7123   3.659   5.563   7.172 -0.3642 -0.8171  0.5737
   78SLPC   H7R 7124   3.616   5.655   7.128  1.2142 -1.2264 -1.9108
   78SLPC   H7S 7125   3.769   5.572   7.184 -0.1102 -1.5661 -0.9750
   78SLPC   C28 7126   3.600   5.541   7.312  0.3501  0.3658 -0.0244
   78SLPC   H8R 7127   3.491   5.532   7.294  0.5848 -2.4920 -0.1891
   78SLPC   H8S 7128   3.604   5.632   7.376  1.1567  0.5432 -0.3188
   78SLPC   C29 7129   3.637   5.416   7.387 -0.2953 -0.0135 -0.3102
   78SLPC   H9R 7130   3.680   5.337   7.324 -0.4522  0.5754 -1.1642
   78SLPC  C210 7131   3.632   5.407   7.524 -0.6899 -0.0821  0.2217
   78SLPC  H10R 7132   3.672   5.318   7.574  0.5401 -0.4664 -1.4077
   78SLPC  C211 7133   3.578   5.516   7.612  0.1734  0.7607 -0.8523
   78SLPC  H11R 7134   3.492   5.566   7.563  0.9102  2.6633 -0.2666
   78SLPC  H11S 7135   3.649   5.600   7.626  1.8554 -0.8600  0.6551
   78SLPC  C212 7136   3.530   5.472   7.750  0.1167 -0.2295 -0.2752
   78SLPC  H12R 7137   3.432   5.421   7.742 -0.2697  0.5646 -0.6336
   78SLPC  C213 7138   3.599   5.482   7.869  0.6294  0.8351  1.1112
   78SLPC  H13R 7139   3.555   5.434   7.958  0.6468 -0.7789  0.2637
   78SLPC  C214 7140   3.737   5.547   7.883 -0.2099  0.8792  0.1994
   78SLPC  H14R 7141   3.743   5.650   7.922 -1.2654  0.7340  0.7701
   78SLPC  H14S 7142   3.789   5.550   7.785  0.6903  0.7623  0.6681
   78SLPC  C215 7143   3.823   5.461   7.973 -0.6760 -0.2129 -0.4387
   78SLPC  H15R 7144   3.929   5.488   7.952  0.6248 -0.8341  4.6998
   78SLPC  H15S 7145   3.824   5.360   7.927 -2.8651  0.6048 -2.3625
   78SLPC  C216 7146   3.805   5.460   8.123 -0.2700 -0.5057 -0.2128
   78SLPC  H16R 7147   3.876   5.385   8.165 -0.5143 -0.3347  0.5088
   78SLPC  H16S 7148   3.698   5.438   8.143 -0.9081  1.4947 -1.3335
   78SLPC  C217 7149   3.828   5.601   8.185  0.7350  0.7676  0.3538
   78SLPC  H17R 7150   3.785   5.682   8.123 -1.0043 -1.1766 -1.0425
   78SLPC  H17S 7151   3.936   5.627   8.186  1.0028 -0.3003  0.4637
   78SLPC  C218 7152   3.792   5.609   8.336  0.7305  0.0264 -0.9288
   78SLPC  H18R 7153   3.859   5.547   8.399  0.5418  0.6745 -0.0755
   78SLPC  H18S 7154   3.695   5.556   8.329  1.0484 -0.6176 -0.4482
   78SLPC  H18T 7155   3.777   5.711   8.378 -1.0430 -0.1014 -1.2236
   78SLPC   C33 7156   2.856   5.082   6.781 -0.0928 -0.1360  0.2129
   78SLPC   H3X 7157   2.853   4.985   6.835  3.2324 -0.1047  0.5387
   78SLPC   H3Y 7158   2.772   5.070   6.709  1.4378  1.7328 -1.9419
   78SLPC   C34 7159   2.834   5.206   6.870 -0.1402  0.1977  0.0590
   78SLPC   H4X 7160   2.726   5.224   6.890 -0.4332 -0.9690 -0.4579
   78SLPC   H4Y 7161   2.866   5.294   6.811 -0.4270  0.7436  0.7066
   78SLPC   C35 7162   2.934   5.215   6.986 -0.0777  0.5934 -0.6551
   78SLPC   H5X 7163   2.943   5.315   7.033  1.2621  0.8823 -1.5085
   78SLPC   H5Y 7164   3.036   5.179   6.964 -0.1461 -0.5773  0.8432
   78SLPC   C36 7165   2.877   5.114   7.089  0.2542  1.1143 -0.2275
   78SLPC   H6X 7166   2.909   5.012   7.057  1.4326  0.9229  1.4486
   78SLPC   H6Y 7167   2.766   5.125   7.090  0.3052  1.8367 -1.9101
   78SLPC   C37 7168   2.929   5.126   7.238 -0.3528  0.4419  0.0596
   78SLPC   H7X 7169   2.903   5.223   7.285  2.9003  0.9907  0.8890
   78SLPC   H7Y 7170   3.040   5.122   7.232 -0.4319  0.1874 -1.6324
   78SLPC   C38 7171   2.862   5.020   7.329  0.4527  0.6571 -0.0608
   78SLPC   H8X 7172   2.890   4.920   7.289 -1.6207 -0.6304  1.6093
   78SLPC   H8Y 7173   2.751   5.025   7.320  0.3991 -0.1554  0.0549
   78SLPC   C39 7174   2.900   5.034   7.473 -0.1830 -0.1057 -0.7032
   78SLPC   H9X 7175   3.010   5.045   7.488 -0.5739 -0.8323  3.1987
   78SLPC   H9Y 7176   2.871   4.941   7.526 -4.0976  0.1340 -2.3100
   78SLPC  C310 7177   2.829   5.152   7.546 -0.2026  0.2363 -0.5806
   78SLPC  H10X 7178   2.719   5.139   7.534 -0.4221 -0.7591  2.1506
   78SLPC  H10Y 7179   2.860   5.252   7.507  0.0189  0.3220 -0.1884
   78SLPC  C311 7180   2.883   5.154   7.693 -0.2059 -0.5274  0.0818
   78SLPC  H11X 7181   2.889   5.258   7.732  0.8638 -0.5886  0.0852
   78SLPC  H11Y 7182   2.980   5.101   7.699  1.0047  1.7620  1.3807
   78SLPC  C312 7183   2.790   5.071   7.794  1.3292  0.6376  0.3078
   78SLPC  H12X 7184   2.785   4.971   7.745 -1.5202  1.3835 -1.0895
   78SLPC  H12Y 7185   2.691   5.122   7.795  0.3769 -1.1840  0.5863
   78SLPC  C313 7186   2.846   5.073   7.940  0.2013 -0.1649 -0.3047
   78SLPC  H13X 7187   2.952   5.042   7.930  0.2749 -0.0765  0.1539
   78SLPC  H13Y 7188   2.785   5.002   8.000 -0.3837 -0.0091 -0.7173
   78SLPC  C314 7189   2.846   5.214   8.008 -0.0758  0.0327  0.3032
   78SLPC  H14X 7190   2.742   5.255   8.004  0.0242  0.1788 -1.1397
   78SLPC  H14Y 7191   2.923   5.277   7.958 -1.6156  1.8892  0.2105
   78SLPC  C315 7192   2.895   5.200   8.149 -0.0346 -0.7690  0.2042
   78SLPC  H15X 7193   2.993   5.149   8.144 -0.9183 -2.5401  0.4562
   78SLPC  H15Y 7194   2.826   5.137   8.209 -0.1123  0.4816  1.4494
   78SLPC  C316 7195   2.901   5.335   8.214  0.6156 -0.6451  0.1656
   78SLPC  H16X 7196   2.992   5.380   8.169 -0.5307  0.1097 -1.4676
   78SLPC  H16Y 7197   2.908   5.337   8.325 -0.5071  0.8947  0.2286
   78SLPC  C317 7198   2.771   5.422   8.186  0.2148  0.1096  0.0708
   78SLPC  H17X 7199   2.676   5.368   8.206  0.4263 -0.8336 -1.3551
   78SLPC  H17Y 7200   2.777   5.445   8.077 -2.3231  1.6106  0.2106
   78SLPC  C318 7201   2.767   5.550   8.269  0.3595  0.6098 -0.4263
   78SLPC  H18X 7202   2.866   5.599   8.263  0.8987 -0.3168  0.5766
   78SLPC  H18Y 7203   2.756   5.526   8.377  0.0836 -0.4963 -0.6945
   78SLPC  H18Z 7204   2.689   5.624   8.240 -0.4832  0.1576  0.6168
   79SLPC     N 7205   0.945   0.784   6.072  0.7532  0.2577 -0.6645
   79SLPC   C13 7206   0.925   0.930   6.070 -0.0335 -0.1334 -0.3398
   79SLPC  H13A 7207   0.841   0.963   6.129 -0.9061 -0.8188 -1.1977
   79SLPC  H13B 7208   1.015   0.985   6.093  1.3842 -2.5717  0.0805
   79SLPC  H13C 7209   0.901   0.949   5.966 -1.3046 -0.5888 -0.1272
   79SLPC   C14 7210   1.079   0.757   5.998  0.7928  0.2838  0.3258
   79SLPC  H14A 7211   1.065   0.805   5.902  3.1922 -1.7801 -1.0941
   79SLPC  H14B 7212   1.167   0.800   6.043  0.7072 -0.9738  1.7398
   79SLPC  H14C 7213   1.086   0.650   5.987  1.9009  0.4488 -0.6063
   79SLPC   C15 7214   0.844   0.702   5.993 -0.3259 -0.1471 -0.5607
   79SLPC  H15A 7215   0.745   0.719   6.034 -0.7116  2.0903 -2.3417
   79SLPC  H15B 7216   0.840   0.734   5.890 -1.8646 -0.1727 -0.5241
   79SLPC  H15C 7217   0.866   0.598   6.014 -2.0632 -0.6572 -1.1775
   79SLPC   C12 7218   0.954   0.732   6.211  0.2026  0.1454 -0.9187
   79SLPC  H12A 7219   1.028   0.789   6.265  0.1766  0.4512 -1.2112
   79SLPC  H12B 7220   0.994   0.632   6.220  0.0290  0.2450  1.3664
   79SLPC   C11 7221   0.819   0.726   6.293  0.6585 -0.2397  0.1210
   79SLPC  H11A 7222   0.829   0.670   6.388  1.5858  3.3864  2.2368
   79SLPC  H11B 7223   0.743   0.667   6.237  0.1746  0.2633  0.2476
   79SLPC     P 7224   0.760   0.911   6.464 -0.5882 -0.0614 -0.0153
   79SLPC   O13 7225   0.888   0.870   6.530 -0.2308  0.5152  0.2861
   79SLPC   O14 7226   0.733   1.058   6.459  0.4122 -0.1991 -0.0111
   79SLPC   O12 7227   0.756   0.858   6.316 -0.8247  0.0497 -0.3791
   79SLPC   O11 7228   0.643   0.834   6.529  0.1282  0.5047  0.2116
   79SLPC    C1 7229   0.550   0.754   6.463  0.6849 -1.0675 -0.4402
   79SLPC    HA 7230   0.517   0.799   6.367 -0.6379  0.2828  0.6179
   79SLPC    HB 7231   0.597   0.660   6.427 -0.4140 -2.3619  1.4121
   79SLPC    C2 7232   0.434   0.712   6.557  0.1400 -0.1006  0.3618
   79SLPC    HS 7233   0.391   0.805   6.600  0.2684 -0.0741  0.4342
   79SLPC   O21 7234   0.476   0.622   6.653  0.0777  0.2837  0.2477
   79SLPC   C21 7235   0.541   0.681   6.754 -0.2520 -0.1946  1.0113
   79SLPC   O22 7236   0.540   0.797   6.777  0.8074 -0.1384 -0.2999
   79SLPC   C22 7237   0.620   0.581   6.836  0.0244  0.0333  0.8236
   79SLPC   H2R 7238   0.537   0.528   6.887 -0.0839  0.6747  1.3235
   79SLPC   H2S 7239   0.667   0.505   6.770  0.2719  0.3085  0.6836
   79SLPC    C3 7240   0.323   0.638   6.473  0.3235  0.0921 -0.1593
   79SLPC    HX 7241   0.393   0.566   6.425 -1.3435 -1.5169 -0.2336
   79SLPC    HY 7242   0.279   0.698   6.390  0.1663  1.4626  0.9107
   79SLPC   O31 7243   0.219   0.581   6.562 -0.0388  0.3221 -0.4009
   79SLPC   C31 7244   0.136   0.672   6.621  0.2844  0.1231 -0.3455
   79SLPC   O32 7245   0.141   0.792   6.599 -0.1838  0.4685 -0.0492
   79SLPC   C32 7246   0.039   0.601   6.713  0.5105 -0.4706 -0.9595
   79SLPC   H2X 7247   0.058   0.492   6.708 -0.2700 -0.5880 -1.5235
   79SLPC   H2Y 7248  -0.061   0.610   6.665 -1.1746  0.3956  2.5941
   79SLPC   C23 7249   0.715   0.637   6.934  0.1197  0.3475 -0.2535
   79SLPC   H3R 7250   0.653   0.665   7.023  0.1040 -0.0990 -0.1247
   79SLPC   H3S 7251   0.765   0.729   6.898  1.2443 -0.3078 -0.3734
   79SLPC   C24 7252   0.819   0.541   6.976 -0.3571 -0.7536  0.6156
   79SLPC   H4R 7253   0.867   0.501   6.884  2.5938  1.2729  1.2114
   79SLPC   H4S 7254   0.780   0.452   7.030  0.7228 -0.4059  1.9702
   79SLPC   C25 7255   0.926   0.582   7.073  0.2916 -0.0569  0.4961
   79SLPC   H5R 7256   0.978   0.674   7.038 -0.4778  0.8373  1.6919
   79SLPC   H5S 7257   1.004   0.504   7.091  1.7337  1.8143  2.5785
   79SLPC   C26 7258   0.866   0.618   7.208  0.2155  0.7134  0.3642
   79SLPC   H6R 7259   0.810   0.536   7.258  0.1659  0.1771 -0.5809
   79SLPC   H6S 7260   0.805   0.709   7.191  0.1077  0.4068 -0.8781
   79SLPC   C27 7261   0.986   0.659   7.299  0.4013 -0.4489  0.3048
   79SLPC   H7R 7262   1.064   0.709   7.238 -1.2322  0.0291 -1.4442
   79SLPC   H7S 7263   1.014   0.559   7.338 -1.1118 -0.7961  0.5295
   79SLPC   C28 7264   0.931   0.749   7.409  0.1114 -0.2963  0.0501
   79SLPC   H8R 7265   0.837   0.705   7.450  0.5399 -0.0191  1.3620
   79SLPC   H8S 7266   0.909   0.847   7.363  0.9522 -0.8603 -1.5683
   79SLPC   C29 7267   1.029   0.768   7.517 -0.0734  0.0611 -0.1516
   79SLPC   H9R 7268   1.117   0.830   7.495  0.1692 -0.4740 -0.6919
   79SLPC  C210 7269   1.017   0.721   7.645 -0.1736 -1.2869 -0.2541
   79SLPC  H10R 7270   1.090   0.757   7.719 -0.3830 -1.0817 -0.1449
   79SLPC  C211 7271   0.913   0.641   7.698  1.0304  0.0768 -0.1423
   79SLPC  H11R 7272   0.858   0.588   7.617 -1.3998  2.6815 -0.2587
   79SLPC  H11S 7273   0.841   0.699   7.759  2.5007  0.9322  0.8203
   79SLPC  C212 7274   0.974   0.524   7.764 -0.6189 -0.4576 -0.5642
   79SLPC  H12R 7275   1.020   0.444   7.704 -0.1876 -0.6308 -0.0047
   79SLPC  C213 7276   0.973   0.508   7.895  0.5900 -0.5295  0.1975
   79SLPC  H13R 7277   1.036   0.428   7.937  0.1858 -1.2300 -0.5173
   79SLPC  C214 7278   0.919   0.601   8.000 -0.0728 -0.7756 -0.0621
   79SLPC  H14R 7279   0.808   0.596   7.998 -0.0618 -0.9727 -0.1357
   79SLPC  H14S 7280   0.936   0.708   7.976 -2.6004  0.1955  2.1979
   79SLPC  C215 7281   0.990   0.579   8.135 -0.3946 -0.4837  0.2192
   79SLPC  H15R 7282   0.994   0.469   8.147 -0.7420 -0.6296 -0.9660
   79SLPC  H15S 7283   0.931   0.624   8.219 -0.6257 -0.0801 -0.1601
   79SLPC  C216 7284   1.132   0.640   8.128 -0.3698 -0.5212 -0.1770
   79SLPC  H16R 7285   1.146   0.746   8.098 -1.8049 -0.2065  0.2073
   79SLPC  H16S 7286   1.194   0.573   8.065 -0.5419 -0.9150  0.0674
   79SLPC  C217 7287   1.191   0.631   8.269 -1.0804  0.6422  0.1336
   79SLPC  H17R 7288   1.205   0.525   8.299 -0.0773  0.8409  0.3909
   79SLPC  H17S 7289   1.117   0.668   8.343 -1.2160 -0.1143  0.3854
   79SLPC  C218 7290   1.327   0.692   8.271 -0.1558  0.6250  0.1593
   79SLPC  H18R 7291   1.325   0.793   8.226 -1.1308  1.0291  1.1063
   79SLPC  H18S 7292   1.386   0.637   8.194 -2.2631 -0.5086 -0.6937
   79SLPC  H18T 7293   1.376   0.697   8.371  1.3683  1.3033 -0.6021
   79SLPC   C33 7294   0.044   0.665   6.852  0.2599  0.1125 -0.0679
   79SLPC   H3X 7295  -0.036   0.613   6.909 -0.6838  1.4358 -0.1646
   79SLPC   H3Y 7296   0.018   0.772   6.856 -1.4157 -0.2661 -0.4079
   79SLPC   C34 7297   0.184   0.628   6.905 -0.1629  0.2000 -0.0583
   79SLPC   H4X 7298   0.266   0.699   6.878 -0.5842  1.6839  2.4345
   79SLPC   H4Y 7299   0.220   0.532   6.863  0.3844 -0.0037  0.8574
   79SLPC   C35 7300   0.176   0.591   7.051  0.9464 -0.3443  0.2344
   79SLPC   H5X 7301   0.118   0.498   7.065 -0.0872  0.5965  2.4741
   79SLPC   H5Y 7302   0.134   0.672   7.114  0.1172  0.3349 -1.1655
   79SLPC   C36 7303   0.319   0.547   7.089  0.1667 -0.1589 -0.7798
   79SLPC   H6X 7304   0.391   0.629   7.067 -1.2550  1.0720 -0.9576
   79SLPC   H6Y 7305   0.349   0.467   7.018 -2.1217  0.3474 -2.3728
   79SLPC   C37 7306   0.325   0.491   7.234  0.0747  0.4066  0.0767
   79SLPC   H7X 7307   0.279   0.391   7.248 -1.2367  0.7245 -1.8843
   79SLPC   H7Y 7308   0.261   0.555   7.298 -1.7930  0.8118 -2.1618
   79SLPC   C38 7309   0.466   0.480   7.294 -0.2398 -0.3026 -0.4900
   79SLPC   H8X 7310   0.522   0.575   7.278 -1.9412  0.2635 -3.5325
   79SLPC   H8Y 7311   0.516   0.395   7.244 -2.4570 -1.5665 -0.6203
   79SLPC   C39 7312   0.472   0.443   7.440  0.8243  0.0752 -0.1424
   79SLPC   H9X 7313   0.409   0.355   7.465  1.2017 -0.4633 -1.0450
   79SLPC   H9Y 7314   0.427   0.519   7.507 -1.0796 -0.9793 -0.1812
   79SLPC  C310 7315   0.613   0.414   7.488 -0.3921  0.8050 -0.4681
   79SLPC  H10X 7316   0.665   0.509   7.463  0.6107 -0.2522 -2.4448
   79SLPC  H10Y 7317   0.649   0.321   7.439 -0.2204  0.3267  0.5442
   79SLPC  C311 7318   0.637   0.401   7.637 -0.4921  0.5870  0.5419
   79SLPC  H11X 7319   0.602   0.499   7.677 -0.7431  0.3721  0.8527
   79SLPC  H11Y 7320   0.745   0.386   7.657 -0.6840 -1.7038 -0.0484
   79SLPC  C312 7321   0.556   0.282   7.687  0.4111  0.0247  0.2858
   79SLPC  H12X 7322   0.576   0.194   7.621  0.3714  0.6689 -0.5985
   79SLPC  H12Y 7323   0.450   0.313   7.680  0.8279  1.0748 -1.9438
   79SLPC  C313 7324   0.589   0.244   7.831  0.0985  0.4991 -1.0655
   79SLPC  H13X 7325   0.684   0.196   7.862 -0.7998 -0.4366  0.3076
   79SLPC  H13Y 7326   0.509   0.175   7.867  2.5444 -0.6085  2.5578
   79SLPC  C314 7327   0.591   0.367   7.921 -0.0255 -0.4853 -0.2635
   79SLPC  H14X 7328   0.502   0.432   7.904 -1.0693 -1.5785  0.9490
   79SLPC  H14Y 7329   0.687   0.417   7.898 -1.7595  2.0219 -2.4185
   79SLPC  C315 7330   0.568   0.337   8.068 -0.8193  0.5813  0.0477
   79SLPC  H15X 7331   0.599   0.237   8.104 -0.4221  0.9138  0.6398
   79SLPC  H15Y 7332   0.461   0.353   8.094 -1.4742 -1.7225 -1.0688
   79SLPC  C316 7333   0.644   0.430   8.164  0.5511  0.5078  0.0893
   79SLPC  H16X 7334   0.595   0.529   8.165 -1.5853 -0.5252  0.0596
   79SLPC  H16Y 7335   0.753   0.430   8.143  0.5408 -0.4893 -0.0028
   79SLPC  C317 7336   0.631   0.371   8.304  0.0518 -0.0337  0.2009
   79SLPC  H17X 7337   0.537   0.312   8.310 -0.1950  0.3517  0.1584
   79SLPC  H17Y 7338   0.628   0.458   8.372  0.9537  0.3458 -0.2318
   79SLPC  C318 7339   0.758   0.293   8.340 -0.4151  0.6630  0.6669
   79SLPC  H18X 7340   0.853   0.349   8.353  1.7975 -2.7451 -0.1223
   79SLPC  H18Y 7341   0.783   0.214   8.266 -0.9726  0.0400  1.1241
   79SLPC  H18Z 7342   0.751   0.233   8.434 -0.3882 -0.9475 -0.3278
   80SLPC     N 7343   2.235   4.730   5.972  0.3512 -0.2552  0.0712
   80SLPC   C13 7344   2.187   4.609   5.891 -0.3783  0.0747 -0.3456
   80SLPC  H13A 7345   2.103   4.553   5.930  0.1687 -0.8084 -0.4075
   80SLPC  H13B 7346   2.169   4.633   5.787  0.3209 -0.6288 -0.6376
   80SLPC  H13C 7347   2.264   4.535   5.876 -0.2885 -0.0841  0.8466
   80SLPC   C14 7348   2.155   4.848   5.927 -0.0959  0.7116 -0.2183
   80SLPC  H14A 7349   2.167   4.860   5.820 -1.3468  0.8204 -0.3508
   80SLPC  H14B 7350   2.050   4.836   5.948 -0.1086  2.0128  0.4816
   80SLPC  H14C 7351   2.187   4.929   5.990 -1.6399 -0.9378  2.7818
   80SLPC   C15 7352   2.376   4.761   5.945 -0.0158  0.5340  0.0813
   80SLPC  H15A 7353   2.435   4.673   5.925  1.5147  1.5017  0.2417
   80SLPC  H15B 7354   2.387   4.824   5.858  0.8452 -2.0980 -1.7759
   80SLPC  H15C 7355   2.429   4.813   6.023 -0.3448  0.8698  0.0840
   80SLPC   C12 7356   2.219   4.704   6.123  0.0752 -0.0402  0.1553
   80SLPC  H12A 7357   2.271   4.614   6.151 -2.7229 -1.6574  0.2810
   80SLPC  H12B 7358   2.114   4.687   6.143 -0.1757  1.7324  0.4209
   80SLPC   C11 7359   2.254   4.827   6.219 -0.1661  0.3369  0.1616
   80SLPC  H11A 7360   2.364   4.842   6.222 -0.1884  0.8862 -1.2722
   80SLPC  H11B 7361   2.215   4.797   6.319 -0.1817  0.7926  0.2908
   80SLPC     P 7362   2.226   5.083   6.284  0.5564  0.2993 -0.0478
   80SLPC   O13 7363   2.368   5.120   6.269 -0.6793 -0.4372 -0.1689
   80SLPC   O14 7364   2.118   5.180   6.255  0.2365 -0.2181 -0.0607
   80SLPC   O12 7365   2.195   4.958   6.193 -0.3132  0.3688  0.7287
   80SLPC   O11 7366   2.200   5.024   6.427 -0.8981  0.0616 -0.4581
   80SLPC    C1 7367   2.070   5.006   6.477  0.5262  0.0389 -0.5792
   80SLPC    HA 7368   1.989   5.026   6.404 -0.2594 -1.9277 -0.2943
   80SLPC    HB 7369   2.059   4.900   6.511  1.6391  0.3821  0.9234
   80SLPC    C2 7370   2.043   5.101   6.594 -0.0994  0.7096 -0.8203
   80SLPC    HS 7371   1.939   5.080   6.626  0.0533  2.1164  0.6776
   80SLPC   O21 7372   2.074   5.234   6.549 -0.2106  0.0598  0.3778
   80SLPC   C21 7373   1.987   5.321   6.579 -0.0031 -0.9106 -0.3217
   80SLPC   O22 7374   1.887   5.307   6.643 -0.2439  0.3569 -0.5385
   80SLPC   C22 7375   2.014   5.460   6.521  0.1479 -0.3820  0.1103
   80SLPC   H2R 7376   2.027   5.449   6.411 -1.6319  2.0699 -0.3824
   80SLPC   H2S 7377   1.924   5.522   6.541 -0.5207 -1.2063 -0.3085
   80SLPC    C3 7378   2.135   5.066   6.720 -0.4388  0.2596 -0.2396
   80SLPC    HX 7379   2.236   5.111   6.705 -1.2831  2.3432  0.1839
   80SLPC    HY 7380   2.160   4.958   6.722  0.1469  0.3691 -1.1114
   80SLPC   O31 7381   2.069   5.110   6.842 -0.5225  0.4148 -0.3626
   80SLPC   C31 7382   2.103   5.228   6.891  0.1203  0.4877 -0.7068
   80SLPC   O32 7383   2.193   5.306   6.853 -0.2565  0.1693 -0.2931
   80SLPC   C32 7384   2.015   5.246   7.016  0.3121  0.5626 -0.4727
   80SLPC   H2X 7385   2.045   5.160   7.079  1.9977  2.6928  1.7062
   80SLPC   H2Y 7386   1.905   5.245   6.998 -0.2276 -1.5857  2.5229
   80SLPC   C23 7387   2.136   5.527   6.580 -0.1011  0.4829  0.3685
   80SLPC   H3R 7388   2.172   5.595   6.500 -2.0439 -0.0863 -1.0199
   80SLPC   H3S 7389   2.220   5.459   6.604 -1.9750 -1.9912  0.1329
   80SLPC   C24 7390   2.108   5.607   6.704  0.1463 -0.3076  0.0730
   80SLPC   H4R 7391   2.080   5.538   6.786  2.7003 -1.0138  0.3752
   80SLPC   H4S 7392   2.023   5.672   6.673 -0.0987 -0.4972  0.3473
   80SLPC   C25 7393   2.223   5.686   6.766  0.6827  0.0397  0.4910
   80SLPC   H5R 7394   2.256   5.764   6.694 -0.2465 -0.2979 -0.3002
   80SLPC   H5S 7395   2.310   5.617   6.777 -0.5246 -1.1383  3.3076
   80SLPC   C26 7396   2.212   5.749   6.905 -0.0525  0.4665 -0.0168
   80SLPC   H6R 7397   2.308   5.794   6.938 -0.7496  0.6786  1.7813
   80SLPC   H6S 7398   2.193   5.667   6.977  1.0862 -0.4773 -0.7726
   80SLPC   C27 7399   2.102   5.866   6.914 -0.1167  0.1616 -0.2364
   80SLPC   H7R 7400   2.005   5.821   6.884 -0.2899  2.2894 -3.1093
   80SLPC   H7S 7401   2.135   5.948   6.847  1.7112 -2.2957 -2.4279
   80SLPC   C28 7402   2.076   5.931   7.054  0.4898  0.3680 -0.0382
   80SLPC   H8R 7403   2.059   5.845   7.123  0.9497  1.3405  1.3173
   80SLPC   H8S 7404   1.986   5.996   7.045  0.0698 -0.0957  0.7057
   80SLPC   C29 7405   2.193   6.024   7.082  0.1688  0.1140 -0.9844
   80SLPC   H9R 7406   2.180   6.118   7.027  0.7174  0.0752 -1.1838
   80SLPC  C210 7407   2.293   6.027   7.172 -0.3741 -0.8384 -0.9950
   80SLPC  H10R 7408   2.353   6.117   7.190 -0.1533 -1.2935  0.5588
   80SLPC  C211 7409   2.315   5.909   7.262 -0.0410 -1.0872 -0.4619
   80SLPC  H11R 7410   2.309   5.808   7.217 -0.3950 -0.8533 -0.9342
   80SLPC  H11S 7411   2.241   5.913   7.345  0.1401 -1.8072 -0.2647
   80SLPC  C212 7412   2.447   5.915   7.338 -0.6058 -0.4163 -0.1269
   80SLPC  H12R 7413   2.525   5.872   7.273  0.4397  0.6838  0.3745
   80SLPC  C213 7414   2.473   5.966   7.464 -0.8306  0.1876 -0.6987
   80SLPC  H13R 7415   2.573   5.961   7.509 -0.0511  4.3490 -1.7525
   80SLPC  C214 7416   2.373   6.034   7.558 -1.0865 -0.1260 -0.5638
   80SLPC  H14R 7417   2.294   6.076   7.492 -0.4210 -0.0719 -1.3481
   80SLPC  H14S 7418   2.405   6.124   7.614  1.1895 -0.4706 -1.2352
   80SLPC  C215 7419   2.300   5.941   7.655 -0.2095 -0.7304  0.1089
   80SLPC  H15R 7420   2.370   5.914   7.736  0.6480 -2.1441 -1.0772
   80SLPC  H15S 7421   2.264   5.850   7.602 -1.2585  1.8285 -3.8134
   80SLPC  C216 7422   2.173   6.004   7.715 -0.3602  0.5304 -0.5832
   80SLPC  H16R 7423   2.115   6.059   7.638  0.9701  0.6277 -1.5342
   80SLPC  H16S 7424   2.213   6.076   7.791  2.4691 -1.1966 -0.3661
   80SLPC  C217 7425   2.059   5.904   7.772 -0.0836  0.7301  0.2822
   80SLPC  H17R 7426   2.074   5.799   7.739  0.2431  0.7334  0.4182
   80SLPC  H17S 7427   1.969   5.951   7.728  0.1584  2.7951  1.9011
   80SLPC  C218 7428   2.052   5.913   7.928  0.3450  0.9718  0.0375
   80SLPC  H18R 7429   1.954   5.924   7.979 -0.5144 -0.0545 -1.3770
   80SLPC  H18S 7430   2.119   5.998   7.952  0.0193  2.0543 -2.6552
   80SLPC  H18T 7431   2.098   5.826   7.980 -2.1795  0.5351  1.6576
   80SLPC   C33 7432   2.053   5.370   7.100  0.5486 -0.4152 -0.0371
   80SLPC   H3X 7433   2.048   5.468   7.047  0.7602 -0.6093 -0.4166
   80SLPC   H3Y 7434   2.160   5.370   7.132 -0.0610  1.1873  2.0829
   80SLPC   C34 7435   1.967   5.380   7.233  0.4237 -0.2716  0.3229
   80SLPC   H4X 7436   1.996   5.291   7.292  0.2288 -1.3387 -1.1588
   80SLPC   H4Y 7437   1.861   5.389   7.200  0.0091  0.0441  1.7226
   80SLPC   C35 7438   2.011   5.499   7.313 -0.1618  0.5543 -0.0238
   80SLPC   H5X 7439   1.995   5.590   7.251 -2.6524 -0.7665 -1.3552
   80SLPC   H5Y 7440   2.120   5.506   7.334  0.0924  3.6803 -2.0413
   80SLPC   C36 7441   1.941   5.513   7.447 -0.5621 -0.0559  0.0332
   80SLPC   H6X 7442   1.832   5.507   7.428 -0.9665 -1.7381  2.6196
   80SLPC   H6Y 7443   1.976   5.611   7.487  0.4007 -0.6089  0.5895
   80SLPC   C37 7444   1.977   5.426   7.566 -0.3409  0.0209  0.3274
   80SLPC   H7X 7445   2.086   5.420   7.583 -0.1701 -0.5038 -0.9137
   80SLPC   H7Y 7446   1.950   5.320   7.543 -1.7619  0.1828  1.1430
   80SLPC   C38 7447   1.903   5.471   7.695  0.5217 -0.7029 -1.3613
   80SLPC   H8X 7448   1.793   5.480   7.682  0.2292 -2.0502 -0.0178
   80SLPC   H8Y 7449   1.932   5.577   7.709  2.7784 -1.2956 -1.3368
   80SLPC   C39 7450   1.939   5.382   7.817 -0.0629 -0.0667  0.2618
   80SLPC   H9X 7451   2.050   5.384   7.817 -0.0803  1.7061  0.7756
   80SLPC   H9Y 7452   1.907   5.277   7.799  0.3985 -0.3091  0.8208
   80SLPC  C310 7453   1.882   5.422   7.952  0.4678  0.0948 -0.2308
   80SLPC  H10X 7454   1.774   5.431   7.930  0.0998 -0.4028  1.2960
   80SLPC  H10Y 7455   1.917   5.527   7.958  1.9842 -0.4401  0.5790
   80SLPC  C311 7456   1.912   5.334   8.072 -0.5745 -0.2286  0.0499
   80SLPC  H11X 7457   2.011   5.284   8.078 -0.3561  0.0862 -0.8403
   80SLPC  H11Y 7458   1.835   5.254   8.067 -1.6542  0.7974  0.2197
   80SLPC  C312 7459   1.879   5.402   8.207  0.0169 -0.3977 -1.2265
   80SLPC  H12X 7460   1.770   5.415   8.225  0.0919 -1.7179  0.2808
   80SLPC  H12Y 7461   1.934   5.498   8.215 -1.4551  0.4141 -0.4082
   80SLPC  C313 7462   1.933   5.321   8.327  0.2254  0.2107  0.5318
   80SLPC  H13X 7463   2.043   5.310   8.328  0.2883  0.7798  0.1328
   80SLPC  H13Y 7464   1.885   5.221   8.338  0.1272 -0.0793 -2.2766
   80SLPC  C314 7465   1.889   5.395   8.456  0.2023  0.3749  0.2845
   80SLPC  H14X 7466   1.779   5.400   8.458  0.2145  1.2732 -0.7846
   80SLPC  H14Y 7467   1.915   5.503   8.444 -1.2838  0.8460  1.2646
   80SLPC  C315 7468   1.950   5.322   8.576 -0.0606  0.2513 -0.9800
   80SLPC  H15X 7469   2.060   5.315   8.562  0.1020  1.8996 -0.6048
   80SLPC  H15Y 7470   1.913   5.218   8.586  1.9390 -0.2790  1.3295
   80SLPC  C316 7471   1.917   5.401   8.703  0.8148  0.4799 -0.0455
   80SLPC  H16X 7472   1.806   5.395   8.706  0.8960 -1.4492 -0.3430
   80SLPC  H16Y 7473   1.934   5.510   8.688 -0.6325  0.4901 -1.8123
   80SLPC  C317 7474   1.986   5.370   8.836  0.4328 -0.5886  0.3168
   80SLPC  H17X 7475   1.931   5.408   8.925 -1.7036 -0.5823 -0.9657
   80SLPC  H17Y 7476   2.088   5.413   8.840  0.4714 -0.8139  2.8316
   80SLPC  C318 7477   1.997   5.215   8.847 -0.2567  0.2403  0.6648
   80SLPC  H18X 7478   2.042   5.171   8.755  0.6452 -0.6344  1.5192
   80SLPC  H18Y 7479   1.901   5.160   8.855  0.2782 -0.3445  3.4278
   80SLPC  H18Z 7480   2.059   5.190   8.935  3.1967  1.8031 -1.2056
   81SAPS     N 7481   2.737   6.644  10.999 -0.1404 -0.1167 -0.6118
   81SAPS   HN1 7482   2.662   6.636  10.928 -2.4272  2.4084  1.3958
   81SAPS   HN2 7483   2.709   6.724  11.060  1.0451 -0.4221  0.3399
   81SAPS   HN3 7484   2.825   6.672  10.951 -0.2451  0.4141 -0.4988
   81SAPS   C12 7485   2.751   6.519  11.070  0.1492  0.2384  0.7938
   81SAPS  H12A 7486   2.823   6.461  11.014 -0.1638  0.0733  0.5653
   81SAPS   C13 7487   2.815   6.528  11.205 -0.2478 -0.7167 -0.2168
   81SAPS  O13A 7488   2.849   6.645  11.249  0.0160  0.2200  0.0077
   81SAPS  O13B 7489   2.822   6.425  11.272  0.2906  0.6738  0.2035
   81SAPS   C11 7490   2.616   6.450  11.080 -0.0632  0.0374  0.3789
   81SAPS  H11A 7491   2.559   6.531  11.129 -0.0109  0.0307  0.4522
   81SAPS  H11B 7492   2.621   6.354  11.136  0.0613 -0.2775 -0.1650
   81SAPS     P 7493   2.426   6.340  10.937 -0.2424  0.0342  0.1082
   81SAPS   O13 7494   2.464   6.230  10.849 -0.1488  0.3285 -0.4501
   81SAPS   O14 7495   2.381   6.305  11.073 -0.0210  0.3263  0.3455
   81SAPS   O12 7496   2.555   6.432  10.951  0.3070 -0.1964 -0.0654
   81SAPS   O11 7497   2.321   6.421  10.864 -0.0348 -0.1564  0.3986
   81SAPS    C1 7498   2.338   6.560  10.839  0.4927 -0.1003  0.1792
   81SAPS    HA 7499   2.234   6.597  10.837  0.5760  0.1018 -0.7383
   81SAPS    HB 7500   2.394   6.619  10.914 -1.5645 -0.2294  1.8275
   81SAPS    C2 7501   2.405   6.594  10.703  0.3384  0.8728  0.2338
   81SAPS    HS 7502   2.382   6.508  10.636 -1.0354 -1.2129  3.2750
   81SAPS   O21 7503   2.544   6.619  10.718 -0.5567  0.5990  0.4260
   81SAPS   C21 7504   2.626   6.555  10.624 -0.0306  0.0750 -0.0469
   81SAPS   O22 7505   2.581   6.477  10.545 -0.1143 -0.2558 -0.2914
   81SAPS   C22 7506   2.764   6.613  10.632 -0.2972  0.6423  0.2930
   81SAPS   H2R 7507   2.759   6.722  10.610  0.0882  0.1895 -2.1975
   81SAPS   H2S 7508   2.801   6.592  10.735  1.3103 -0.7401 -0.5221
   81SAPS    C3 7509   2.330   6.715  10.646  0.5575 -0.4259  0.0779
   81SAPS    HX 7510   2.348   6.809  10.702  0.3857  0.2433 -0.9905
   81SAPS    HY 7511   2.223   6.690  10.664 -0.2434  2.5722 -0.3287
   81SAPS   O31 7512   2.339   6.728  10.500  0.1071  0.1317  0.4121
   81SAPS   C31 7513   2.440   6.806  10.468  0.0221  0.5085 -0.0635
   81SAPS   O32 7514   2.517   6.868  10.538  0.0801 -0.1031  0.1497
   81SAPS   C32 7515   2.438   6.811  10.315  0.3083  0.1975 -0.1972
   81SAPS   H2X 7516   2.334   6.805  10.278  0.9275  1.0823 -2.1223
   81SAPS   H2Y 7517   2.489   6.721  10.274  0.5812  0.4544 -0.4220
   81SAPS   C23 7518   2.859   6.555  10.530  0.2914  0.5758 -0.2783
   81SAPS   H3R 7519   2.858   6.445  10.548  2.6309  0.2371 -1.8890
   81SAPS   H3S 7520   2.957   6.592  10.566  0.9800  0.9943 -2.5252
   81SAPS   C24 7521   2.821   6.585  10.384  0.2625  0.2027  0.2285
   81SAPS   H4R 7522   2.713   6.584  10.360  0.2602  0.0216  0.2480
   81SAPS   H4S 7523   2.879   6.524  10.312  0.4348  0.0472  0.4993
   81SAPS   C25 7524   2.851   6.729  10.352 -0.5360 -0.2024 -0.7082
   81SAPS   H5R 7525   2.815   6.804  10.424  1.5172  0.4191 -0.2958
   81SAPS   C26 7526   2.908   6.784  10.244  0.2857  0.2954 -0.3174
   81SAPS   H6R 7527   2.923   6.893  10.250  0.3337  0.3261 -0.9378
   81SAPS   C27 7528   2.958   6.715  10.117 -0.8170 -0.4920 -0.4667
   81SAPS   H7R 7529   2.966   6.605  10.128  0.3263 -0.4562 -0.8579
   81SAPS   H7S 7530   3.063   6.750  10.110 -0.7635 -0.3941  0.6770
   81SAPS   C28 7531   2.901   6.763   9.980 -0.6292  1.0453  0.0711
   81SAPS   H8R 7532   2.937   6.861   9.947 -2.4459  1.9538  0.7425
   81SAPS   C29 7533   2.817   6.691   9.896  0.4625  0.0903 -0.5700
   81SAPS   H9R 7534   2.785   6.738   9.802 -0.2331 -0.4758 -0.6182
   81SAPS  C210 7535   2.775   6.550   9.928  0.7050 -0.1495 -0.0264
   81SAPS  H10R 7536   2.842   6.500  10.000  0.6931 -0.1102  0.0118
   81SAPS  H10S 7537   2.810   6.499   9.836  0.5325 -2.7559  1.2967
   81SAPS  C211 7538   2.626   6.524   9.956 -0.2554 -0.5331  0.8188
   81SAPS  H11R 7539   2.592   6.535  10.060 -0.9063  0.9414  0.4552
   81SAPS  C212 7540   2.533   6.507   9.870  0.2758  0.1356 -0.7708
   81SAPS  H12R 7541   2.432   6.499   9.912  1.0193 -0.5717  0.9216
   81SAPS  C213 7542   2.539   6.502   9.716 -0.7532 -0.3595 -0.2355
   81SAPS  H13R 7543   2.636   6.459   9.683 -0.8759 -0.7580 -0.0775
   81SAPS  H13S 7544   2.552   6.601   9.666  1.8705  0.8248  2.6399
   81SAPS  C214 7545   2.424   6.418   9.660  0.2608 -0.6608  0.6261
   81SAPS  H14R 7546   2.335   6.403   9.723  1.7203 -0.0428  2.8888
   81SAPS  C215 7547   2.433   6.369   9.532  0.5376  0.0067  0.0469
   81SAPS  H15R 7548   2.346   6.318   9.487  0.4976 -0.5844  0.7790
   81SAPS  C216 7549   2.547   6.381   9.436  0.4386  0.2694  0.5589
   81SAPS  H16R 7550   2.589   6.278   9.431 -1.6748 -0.5360 -1.7725
   81SAPS  H16S 7551   2.624   6.455   9.464  2.9540 -2.3094  0.6941
   81SAPS  C217 7552   2.493   6.402   9.286  0.6661 -0.4651  0.4274
   81SAPS  H17R 7553   2.438   6.499   9.282  0.6097 -0.5135  0.0218
   81SAPS  H17S 7554   2.418   6.325   9.256  0.1254  0.9398 -1.9998
   81SAPS  C218 7555   2.591   6.394   9.169 -0.7830  0.4812  0.1155
   81SAPS  H18R 7556   2.642   6.295   9.174 -2.0436 -0.1532  0.4333
   81SAPS  H18S 7557   2.655   6.485   9.169  2.7284 -1.8020 -4.0645
   81SAPS  C219 7558   2.548   6.398   9.017  0.0154 -0.1499 -0.2336
   81SAPS  H19R 7559   2.480   6.311   9.003  1.2291 -0.8494 -1.8809
   81SAPS  H19S 7560   2.636   6.389   8.950 -0.4275 -0.2732 -0.8008
   81SAPS  C220 7561   2.471   6.527   8.988  0.0020  0.0290 -0.3358
   81SAPS  H20R 7562   2.450   6.529   8.879 -1.4432 -1.3933 -0.1001
   81SAPS  H20S 7563   2.529   6.619   9.011 -0.2780 -0.1373  1.0514
   81SAPS  H20T 7564   2.380   6.526   9.051 -0.4858  0.4866 -1.0267
   81SAPS   C33 7565   2.516   6.928  10.261 -0.3261 -0.0687 -0.3219
   81SAPS   H3X 7566   2.617   6.927  10.307 -0.0476 -0.8192 -0.9256
   81SAPS   H3Y 7567   2.476   7.026  10.294 -0.0797  0.1462 -0.6607
   81SAPS   C34 7568   2.532   6.924  10.108  0.3352 -0.3343 -0.6352
   81SAPS   H4X 7569   2.617   6.863  10.070  0.7763 -0.1099 -0.0138
   81SAPS   H4Y 7570   2.545   7.026  10.066 -1.6106 -0.3710 -1.3638
   81SAPS   C35 7571   2.409   6.872  10.042  0.1110 -0.1327  0.2197
   81SAPS   H5X 7572   2.326   6.932  10.085  1.5187  1.4557  0.7721
   81SAPS   H5Y 7573   2.392   6.767  10.074 -0.9486 -0.0872 -0.1704
   81SAPS   C36 7574   2.424   6.883   9.882 -0.2852 -0.5884  0.3513
   81SAPS   H6X 7575   2.506   6.817   9.847  0.5728 -0.0377  1.3016
   81SAPS   H6Y 7576   2.455   6.982   9.842 -1.8668 -0.5036 -0.7148
   81SAPS   C37 7577   2.294   6.847   9.809  0.4334  0.7538  0.1071
   81SAPS   H7X 7578   2.228   6.931   9.840 -0.6972 -0.4279  0.9025
   81SAPS   H7Y 7579   2.248   6.759   9.858 -0.4015  0.3349 -1.4001
   81SAPS   C38 7580   2.310   6.818   9.655  0.5597  0.1208  0.6306
   81SAPS   H8X 7581   2.383   6.737   9.638  0.2426 -0.2135  0.8668
   81SAPS   H8Y 7582   2.337   6.915   9.607 -2.5696  1.6947  1.8334
   81SAPS   C39 7583   2.181   6.784   9.567 -0.5506 -0.2731 -0.5213
   81SAPS   H9X 7584   2.119   6.873   9.546 -1.1248 -0.9908 -1.9825
   81SAPS   H9Y 7585   2.116   6.725   9.635 -0.8559  1.2775  0.5613
   81SAPS  C310 7586   2.215   6.705   9.429  0.4599 -0.3561  0.5915
   81SAPS  H10X 7587   2.303   6.638   9.443 -1.0518 -2.2364  1.2630
   81SAPS  H10Y 7588   2.246   6.783   9.355 -1.1804  0.2449  0.5256
   81SAPS  C311 7589   2.087   6.635   9.373  0.4265  0.4118 -0.0720
   81SAPS  H11X 7590   2.079   6.649   9.263 -0.3180  0.2914 -0.0380
   81SAPS  H11Y 7591   1.997   6.680   9.419  1.3097  1.5151  0.6128
   81SAPS  C312 7592   2.080   6.492   9.419 -0.1154 -0.5280 -0.4240
   81SAPS  H12X 7593   2.080   6.499   9.530 -1.7424 -2.2353 -0.2907
   81SAPS  H12Y 7594   2.175   6.441   9.393  0.4077 -0.2299  0.8506
   81SAPS  C313 7595   1.956   6.403   9.385 -0.6841 -0.0101 -0.2183
   81SAPS  H13X 7596   1.860   6.436   9.431  0.4171 -0.3511  2.4059
   81SAPS  H13Y 7597   1.969   6.304   9.435  1.9393 -0.9667 -2.6494
   81SAPS  C314 7598   1.932   6.383   9.238  0.7243  0.0803 -0.3226
   81SAPS  H14X 7599   1.898   6.481   9.196 -1.7557  0.1380  1.7037
   81SAPS  H14Y 7600   1.854   6.308   9.212  0.5170  0.4146 -0.6782
   81SAPS  C315 7601   2.059   6.341   9.167  0.8999  0.8753  0.0244
   81SAPS  H15X 7602   2.107   6.257   9.223  0.1286 -0.6540 -1.5639
   81SAPS  H15Y 7603   2.130   6.424   9.148  0.1060  1.8661  1.3113
   81SAPS  C316 7604   2.024   6.262   9.031 -0.7326  0.1545  0.4272
   81SAPS  H16X 7605   1.969   6.168   9.048  0.9703 -1.3307 -2.0056
   81SAPS  H16Y 7606   2.119   6.226   8.987 -1.0450 -0.2059  0.0491
   81SAPS  C317 7607   1.944   6.339   8.923 -0.7425  0.8059 -0.3410
   81SAPS  H17X 7608   1.973   6.445   8.936 -1.1231  0.7542  0.9736
   81SAPS  H17Y 7609   1.834   6.340   8.941 -1.2279  0.9509 -3.1302
   81SAPS  C318 7610   1.974   6.298   8.777  0.8139 -0.0753  0.4833
   81SAPS  H18X 7611   1.930   6.197   8.767 -1.0568  0.7440  0.0998
   81SAPS  H18Y 7612   2.084   6.292   8.766  0.7050  0.7381 -1.3950
   81SAPS  H18Z 7613   1.919   6.377   8.720 -1.6365 -1.9028  0.2214
   82SAPS     N 7614   1.281   5.813  11.092 -0.4730 -0.3459  0.2503
   82SAPS   HN1 7615   1.195   5.844  11.044  0.4654  0.0220 -1.2237
   82SAPS   HN2 7616   1.332   5.730  11.055 -2.3673 -0.7542 -1.5092
   82SAPS   HN3 7617   1.258   5.805  11.193 -0.7765  3.7863  0.5837
   82SAPS   C12 7618   1.388   5.921  11.073 -0.3392  0.2205 -0.3758
   82SAPS  H12A 7619   1.367   6.009  11.132  1.6735 -0.1724  1.0099
   82SAPS   C13 7620   1.527   5.891  11.130  0.3991 -0.4338 -0.2791
   82SAPS  O13A 7621   1.551   5.786  11.194  0.5754 -0.0072 -0.2407
   82SAPS  O13B 7622   1.619   5.980  11.119  0.4157 -0.0990 -0.1102
   82SAPS   C11 7623   1.397   5.956  10.926 -0.5977  0.1148 -0.4361
   82SAPS  H11A 7624   1.432   5.871  10.864  1.4942  0.6289  0.0056
   82SAPS  H11B 7625   1.470   6.039  10.917 -0.8881  0.5345  0.8874
   82SAPS     P 7626   1.216   6.137  10.901 -0.2650  0.4899  0.2036
   82SAPS   O13 7627   1.067   6.148  10.905 -0.8430  0.0425 -0.1891
   82SAPS   O14 7628   1.284   6.192  11.011  0.0977 -0.8987  0.2016
   82SAPS   O12 7629   1.265   5.984  10.877 -0.5543  0.2320  0.0528
   82SAPS   O11 7630   1.256   6.207  10.773  0.0680  0.2443  0.2909
   82SAPS    C1 7631   1.350   6.166  10.674  0.0923  0.4697  0.4431
   82SAPS    HA 7632   1.452   6.201  10.703  0.0807  0.0812  0.9605
   82SAPS    HB 7633   1.360   6.056  10.663  2.7346  1.0128 -4.0214
   82SAPS    C2 7634   1.322   6.236  10.537  0.2879  0.0343  0.5324
   82SAPS    HS 7635   1.323   6.345  10.556 -1.6760  0.0270  0.7454
   82SAPS   O21 7636   1.196   6.182  10.497 -0.5323 -0.3531  0.0051
   82SAPS   C21 7637   1.127   6.266  10.422  0.6675 -0.0139 -0.2685
   82SAPS   O22 7638   1.154   6.384  10.406 -0.3543 -0.7322  0.1405
   82SAPS   C22 7639   1.005   6.196  10.358 -0.2498  0.0526  0.0479
   82SAPS   H2R 7640   1.047   6.115  10.295  1.4990  0.4903  0.6066
   82SAPS   H2S 7641   0.939   6.151  10.435 -1.2758 -1.6350 -1.7762
   82SAPS    C3 7642   1.426   6.197  10.430  0.2661 -0.1140 -0.0591
   82SAPS    HX 7643   1.421   6.086  10.440 -0.2973 -0.0179  0.8083
   82SAPS    HY 7644   1.528   6.230  10.458  0.4552 -1.0906  0.4240
   82SAPS   O31 7645   1.391   6.238  10.296  0.4044 -0.7435 -0.0295
   82SAPS   C31 7646   1.414   6.367  10.270  0.5474  0.5256 -0.6842
   82SAPS   O32 7647   1.449   6.451  10.348 -0.0181 -0.3674 -0.2081
   82SAPS   C32 7648   1.398   6.386  10.117  0.0493  0.5428 -0.0593
   82SAPS   H2X 7649   1.404   6.282  10.080  1.1001 -0.0576  1.7303
   82SAPS   H2Y 7650   1.488   6.445  10.090  2.4037 -2.7314  0.3646
   82SAPS   C23 7651   0.927   6.302  10.281  0.0495 -0.5818 -0.2989
   82SAPS   H3R 7652   0.990   6.389  10.253  0.5264 -1.2460 -1.2912
   82SAPS   H3S 7653   0.841   6.345  10.337  0.8714  2.4298 -1.2215
   82SAPS   C24 7654   0.868   6.246  10.148  0.1703  0.5208  0.2693
   82SAPS   H4R 7655   0.805   6.160  10.181  0.1322  0.2646 -0.4561
   82SAPS   H4S 7656   0.962   6.219  10.095  0.3292  4.8265 -1.8096
   82SAPS   C25 7657   0.780   6.341  10.069  0.6772  0.6713 -0.4047
   82SAPS   H5R 7658   0.760   6.442  10.107 -1.1255  0.8896 -1.8472
   82SAPS   C26 7659   0.728   6.319   9.941 -0.3922  0.4638  0.3727
   82SAPS   H6R 7660   0.665   6.397   9.895  0.9967  1.4890  0.1845
   82SAPS   C27 7661   0.747   6.195   9.852  0.2368  1.2634 -0.7401
   82SAPS   H7R 7662   0.829   6.135   9.896 -0.0539  1.7569  0.5143
   82SAPS   H7S 7663   0.789   6.218   9.752  0.8273 -0.6864 -0.9566
   82SAPS   C28 7664   0.615   6.119   9.848 -0.3082  0.3508  0.6053
   82SAPS   H8R 7665   0.578   6.089   9.947  1.6956 -1.9265  0.7112
   82SAPS   C29 7666   0.539   6.091   9.741  0.3334 -0.0452 -0.3521
   82SAPS   H9R 7667   0.447   6.037   9.767  0.3244 -2.0225 -4.1323
   82SAPS  C210 7668   0.566   6.120   9.596 -0.5138 -0.2890  0.3916
   82SAPS  H10R 7669   0.624   6.212   9.576 -0.5483 -0.7558 -1.9998
   82SAPS  H10S 7670   0.468   6.124   9.543 -0.4396  0.3271  0.3001
   82SAPS  C211 7671   0.639   6.009   9.530 -0.5299  0.1974 -0.1399
   82SAPS  H11R 7672   0.681   5.935   9.599 -0.7588  0.3225  0.1343
   82SAPS  C212 7673   0.660   5.993   9.400 -0.1852 -0.3047 -0.6288
   82SAPS  H12R 7674   0.718   5.906   9.366 -0.7499 -0.2570 -1.7500
   82SAPS  C213 7675   0.614   6.095   9.296  0.0304 -0.1347  0.5416
   82SAPS  H13R 7676   0.701   6.160   9.274 -0.1447  0.2476  0.9645
   82SAPS  H13S 7677   0.530   6.158   9.333 -1.0534 -0.6265 -1.0175
   82SAPS  C214 7678   0.585   6.015   9.172 -0.5111 -0.0958 -0.3083
   82SAPS  H14R 7679   0.670   5.962   9.127  0.1384  0.0472  0.7352
   82SAPS  C215 7680   0.466   6.000   9.109  0.2577  0.0279 -0.7730
   82SAPS  H15R 7681   0.457   5.954   9.009 -2.1934  2.2911 -1.6595
   82SAPS  C216 7682   0.337   6.069   9.141 -0.4997 -0.1122 -0.7986
   82SAPS  H16R 7683   0.337   6.102   9.247 -0.7777 -1.6002 -0.3220
   82SAPS  H16S 7684   0.250   6.001   9.134 -1.5481  1.3962 -3.1518
   82SAPS  C217 7685   0.307   6.199   9.063 -0.2056  0.3025  0.2470
   82SAPS  H17R 7686   0.316   6.182   8.954 -3.3838  0.5164 -0.0979
   82SAPS  H17S 7687   0.375   6.278   9.101  1.6013 -0.4894 -1.2987
   82SAPS  C218 7688   0.164   6.255   9.078 -0.4836  0.1547 -0.2342
   82SAPS  H18R 7689   0.162   6.365   9.061 -1.3657 -0.0940 -1.9231
   82SAPS  H18S 7690   0.137   6.231   9.183  0.1258  1.0517  0.1316
   82SAPS  C219 7691   0.071   6.183   8.977 -0.3583 -0.0088  0.2013
   82SAPS  H19R 7692   0.079   6.073   8.992  0.6009 -0.0187 -0.3061
   82SAPS  H19S 7693   0.110   6.204   8.875  0.2022  0.4536  0.5093
   82SAPS  C220 7694  -0.068   6.223   9.001 -0.7356 -0.2017 -0.1455
   82SAPS  H20R 7695  -0.128   6.195   8.912 -3.2403 -1.1704  1.7812
   82SAPS  H20S 7696  -0.083   6.332   9.017 -1.4044 -0.4938  1.3548
   82SAPS  H20T 7697  -0.114   6.168   9.086 -1.2085 -0.5323 -0.6132
   82SAPS   C33 7698   1.270   6.447  10.075  0.1471  0.1301 -0.3185
   82SAPS   H3X 7699   1.256   6.545  10.124  1.7119  0.9402 -1.4494
   82SAPS   H3Y 7700   1.192   6.382  10.122  1.4419  0.7164  2.7440
   82SAPS   C34 7701   1.252   6.450   9.916 -0.6241 -0.2144 -0.2514
   82SAPS   H4X 7702   1.142   6.445   9.899 -0.7998  1.1173  0.4214
   82SAPS   H4Y 7703   1.294   6.356   9.874  1.1600  0.4790 -0.0568
   82SAPS   C35 7704   1.306   6.582   9.854 -0.2397 -0.2117 -0.3229
   82SAPS   H5X 7705   1.410   6.589   9.893 -0.3076 -1.5951  0.1312
   82SAPS   H5Y 7706   1.249   6.674   9.877  1.7664  1.9463 -3.6330
   82SAPS   C36 7707   1.316   6.588   9.691  0.2690  0.1089  0.5122
   82SAPS   H6X 7708   1.380   6.675   9.666 -2.7997  1.7019 -2.0983
   82SAPS   H6Y 7709   1.216   6.608   9.647  0.5977  0.8466  0.1056
   82SAPS   C37 7710   1.391   6.465   9.631  0.3280 -0.6589  0.1029
   82SAPS   H7X 7711   1.339   6.370   9.658  2.8335 -1.5316  2.0310
   82SAPS   H7Y 7712   1.483   6.448   9.691 -0.2749 -0.2400  1.1531
   82SAPS   C38 7713   1.428   6.477   9.487 -0.4611 -0.4873 -0.1226
   82SAPS   H8X 7714   1.490   6.566   9.462 -3.1090  1.8805  1.4279
   82SAPS   H8Y 7715   1.336   6.485   9.426 -0.2366  0.5659 -0.3315
   82SAPS   C39 7716   1.506   6.350   9.428 -0.7761 -0.4035 -0.3085
   82SAPS   H9X 7717   1.443   6.261   9.451 -0.3461 -0.8794 -0.9545
   82SAPS   H9Y 7718   1.599   6.326   9.484 -0.4114 -0.0010 -0.7346
   82SAPS  C310 7719   1.520   6.366   9.281 -0.6135  0.7425  0.2679
   82SAPS  H10X 7720   1.600   6.441   9.266 -1.1546  1.0398 -1.1858
   82SAPS  H10Y 7721   1.420   6.392   9.241 -0.3308  1.6604  0.1619
   82SAPS  C311 7722   1.541   6.227   9.218 -0.1346 -0.7888 -0.2174
   82SAPS  H11X 7723   1.448   6.178   9.254 -1.3527  1.3024 -0.4337
   82SAPS  H11Y 7724   1.634   6.181   9.257  0.4292 -0.4089 -1.1087
   82SAPS  C312 7725   1.522   6.215   9.066  0.0434 -0.5024  0.6419
   82SAPS  H12X 7726   1.620   6.233   9.016  0.6120 -0.8801  1.6079
   82SAPS  H12Y 7727   1.448   6.291   9.033 -0.4348 -0.2985  2.1918
   82SAPS  C313 7728   1.454   6.079   9.020  0.0505  0.3905  0.5225
   82SAPS  H13X 7729   1.434   6.075   8.911 -0.3674  1.3461  0.5626
   82SAPS  H13Y 7730   1.355   6.068   9.070  0.1693  0.6167  0.8097
   82SAPS  C314 7731   1.541   5.951   9.044  0.1539 -0.1700  0.5516
   82SAPS  H14X 7732   1.472   5.874   9.005 -2.0532  2.6244 -1.2530
   82SAPS  H14Y 7733   1.557   5.936   9.153 -0.6740  0.8766  0.8211
   82SAPS  C315 7734   1.686   5.967   8.972 -0.5359  0.0815 -0.4915
   82SAPS  H15X 7735   1.755   6.029   9.033  0.6083  0.3138 -1.9910
   82SAPS  H15Y 7736   1.680   6.009   8.869 -0.8805 -0.9159 -0.8845
   82SAPS  C316 7737   1.752   5.830   8.957  0.0579  0.2477  0.2539
   82SAPS  H16X 7738   1.707   5.756   8.888 -0.7359  1.0919 -0.1416
   82SAPS  H16Y 7739   1.754   5.788   9.060 -2.5468  3.6055  1.7665
   82SAPS  C317 7740   1.894   5.855   8.924  0.0178 -0.1373  0.5145
   82SAPS  H17X 7741   1.961   5.778   8.966 -1.6455 -2.5262 -1.0534
   82SAPS  H17Y 7742   1.935   5.953   8.956  1.3320  0.8499 -3.7894
   82SAPS  C318 7743   1.914   5.862   8.772  0.4624 -0.5263  0.6404
   82SAPS  H18X 7744   2.021   5.881   8.748  0.4357  0.1050  1.0040
   82SAPS  H18Y 7745   1.859   5.948   8.729  1.0606  0.4110  1.7134
   82SAPS  H18Z 7746   1.875   5.774   8.717 -2.6287  0.1712  1.6197
   83SAPS     N 7747   2.486   0.328  10.988  0.1581 -0.0378 -0.4940
   83SAPS   HN1 7748   2.396   0.369  10.956 -1.3266 -0.7895  2.5533
   83SAPS   HN2 7749   2.534   0.399  11.046  1.9982  0.3005 -2.3746
   83SAPS   HN3 7750   2.536   0.296  10.902 -1.6356  0.1628 -1.6392
   83SAPS   C12 7751   2.459   0.198  11.073  0.0086 -0.3163  0.5011
   83SAPS  H12A 7752   2.387   0.139  11.018 -1.3346 -1.8797  3.8427
   83SAPS   C13 7753   2.587   0.118  11.109 -0.0390 -0.2342  0.2714
   83SAPS  O13A 7754   2.699   0.152  11.063 -0.0862 -0.5620  0.0066
   83SAPS  O13B 7755   2.569   0.003  11.158  0.6775  0.4327 -0.1385
   83SAPS   C11 7756   2.386   0.244  11.204 -0.0582 -0.2033  0.1965
   83SAPS  H11A 7757   2.374   0.147  11.258 -0.7644 -0.1997  0.0430
   83SAPS  H11B 7758   2.289   0.295  11.190 -0.2119 -0.1782  1.2833
   83SAPS     P 7759   2.431   0.470  11.329 -0.1070  0.6462  0.0282
   83SAPS   O13 7760   2.287   0.461  11.354 -0.2446  0.7472  0.1161
   83SAPS   O14 7761   2.521   0.532  11.426 -0.3149 -0.2922  0.0021
   83SAPS   O12 7762   2.478   0.326  11.282  0.3102  0.4760  0.6351
   83SAPS   O11 7763   2.447   0.539  11.183 -0.0763  0.2795 -0.6014
   83SAPS    C1 7764   2.577   0.583  11.140  0.6246  1.1752  0.6855
   83SAPS    HA 7765   2.624   0.650  11.215 -2.1401  0.5706  3.0521
   83SAPS    HB 7766   2.641   0.492  11.138 -0.8060  0.1224  2.2174
   83SAPS    C2 7767   2.578   0.663  11.006 -0.2059  0.3783 -0.4129
   83SAPS    HS 7768   2.503   0.745  11.013 -1.0240 -0.4231  0.2688
   83SAPS   O21 7769   2.547   0.580  10.893  0.4627 -0.4740  0.7335
   83SAPS   C21 7770   2.478   0.632  10.791  0.3848 -0.1384  0.0733
   83SAPS   O22 7771   2.437   0.749  10.791 -0.3091 -0.0284  0.2281
   83SAPS   C22 7772   2.465   0.536  10.674  0.1565 -0.3709  0.1523
   83SAPS   H2R 7773   2.552   0.554  10.606 -2.3372  3.9648 -2.1047
   83SAPS   H2S 7774   2.479   0.430  10.703 -2.4378 -0.5778  0.7878
   83SAPS    C3 7775   2.723   0.722  10.994  0.7418  0.0875  0.3590
   83SAPS    HX 7776   2.804   0.648  11.015  0.0896 -0.8848 -0.4743
   83SAPS    HY 7777   2.718   0.804  11.068 -2.9995  1.5808 -1.3977
   83SAPS   O31 7778   2.752   0.774  10.865 -0.8965  0.2078  0.4715
   83SAPS   C31 7779   2.866   0.855  10.874  0.2059  0.3514  0.7973
   83SAPS   O32 7780   2.930   0.878  10.975 -0.3196 -0.4094  0.4828
   83SAPS   C32 7781   2.904   0.910  10.736  0.1331  0.8152 -0.3545
   83SAPS   H2X 7782   2.971   0.834  10.689  0.7562  0.3958  1.1924
   83SAPS   H2Y 7783   2.956   1.008  10.740  2.0221 -0.1239 -1.4596
   83SAPS   C23 7784   2.335   0.556  10.590 -0.3389  0.1081  0.0058
   83SAPS   H3R 7785   2.338   0.658  10.546  0.1446 -0.0953 -0.4371
   83SAPS   H3S 7786   2.253   0.550  10.664  1.7258  0.7787  2.4342
   83SAPS   C24 7787   2.330   0.459  10.463  0.3766 -0.7399  0.4419
   83SAPS   H4R 7788   2.313   0.357  10.502  1.6697 -1.0153  0.3047
   83SAPS   H4S 7789   2.425   0.467  10.405  0.6362 -2.3505  0.6327
   83SAPS   C25 7790   2.217   0.514  10.378 -0.2499  0.4858  0.1308
   83SAPS   H5R 7791   2.125   0.550  10.425 -0.3865  0.2015  0.0858
   83SAPS   C26 7792   2.212   0.509  10.242  0.3160  0.4216 -0.7066
   83SAPS   H6R 7793   2.132   0.559  10.185  0.5888  0.5603 -0.9675
   83SAPS   C27 7794   2.317   0.463  10.140  0.3238 -0.6531 -0.2007
   83SAPS   H7R 7795   2.266   0.443  10.043  0.6482 -1.6531 -0.1698
   83SAPS   H7S 7796   2.387   0.381  10.168  0.1102 -0.1545  1.8539
   83SAPS   C28 7797   2.422   0.569  10.123  0.1489  0.1514 -0.1318
   83SAPS   H8R 7798   2.453   0.619  10.216 -0.1441  0.3291 -0.1280
   83SAPS   C29 7799   2.467   0.613  10.003 -0.3694 -0.0147 -0.8293
   83SAPS   H9R 7800   2.540   0.696  10.004 -0.5437  0.1697  2.5211
   83SAPS  C210 7801   2.414   0.561   9.872 -0.1239  0.3041  0.0488
   83SAPS  H10R 7802   2.303   0.558   9.861 -0.4620  1.6539  2.6424
   83SAPS  H10S 7803   2.438   0.452   9.873 -2.7416 -0.3189  0.5093
   83SAPS  C211 7804   2.482   0.628   9.756 -1.0168 -0.1179  0.4163
   83SAPS  H11R 7805   2.471   0.737   9.759  1.6500  0.1414  2.1972
   83SAPS  C212 7806   2.535   0.559   9.652  0.5591  0.1762 -0.2181
   83SAPS  H12R 7807   2.599   0.612   9.580 -0.4026  2.9640  0.9047
   83SAPS  C213 7808   2.542   0.407   9.636 -0.5005  0.1323 -0.6498
   83SAPS  H13R 7809   2.552   0.386   9.528 -0.7810 -0.7714 -0.5039
   83SAPS  H13S 7810   2.442   0.374   9.671 -1.5579  3.5475 -0.2532
   83SAPS  C214 7811   2.665   0.348   9.705 -0.0824  0.0835  0.0570
   83SAPS  H14R 7812   2.679   0.367   9.813  0.5890 -1.3037  0.2297
   83SAPS  C215 7813   2.739   0.243   9.660 -0.7341 -0.3352  0.0317
   83SAPS  H15R 7814   2.830   0.214   9.715 -0.5571 -1.4488 -0.8402
   83SAPS  C216 7815   2.729   0.186   9.518 -0.1222 -0.1453 -0.0157
   83SAPS  H16R 7816   2.814   0.217   9.453 -0.7643  0.1643 -0.7081
   83SAPS  H16S 7817   2.638   0.215   9.461 -0.5447 -0.5886  0.4321
   83SAPS  C217 7818   2.737   0.036   9.505 -0.0329 -0.1322 -0.3576
   83SAPS  H17R 7819   2.649  -0.000   9.562  1.2827 -2.6343  0.1440
   83SAPS  H17S 7820   2.824  -0.007   9.560  0.5050  0.6232 -0.6060
   83SAPS  C218 7821   2.716  -0.019   9.360  0.0217 -0.2966 -0.0085
   83SAPS  H18R 7822   2.623   0.029   9.325  0.7948  1.0071 -0.2800
   83SAPS  H18S 7823   2.703  -0.130   9.363 -1.4554 -0.1192  0.2554
   83SAPS  C219 7824   2.829   0.017   9.261  0.0677 -0.0586 -0.0705
   83SAPS  H19R 7825   2.928  -0.015   9.301 -0.8540 -1.9921  0.7323
   83SAPS  H19S 7826   2.830   0.128   9.260 -2.2291  0.0207  1.8287
   83SAPS  C220 7827   2.811  -0.036   9.124 -0.7676 -0.5418  0.4319
   83SAPS  H20R 7828   2.715  -0.020   9.070 -0.1587  0.0902 -0.4802
   83SAPS  H20S 7829   2.823  -0.147   9.121 -2.0865 -0.6946  0.3215
   83SAPS  H20T 7830   2.890   0.000   9.056 -0.1784 -3.1062 -0.3201
   83SAPS   C33 7831   2.777   0.941  10.650  0.1903 -0.6580  0.1337
   83SAPS   H3X 7832   2.710   0.997  10.719 -0.2145 -2.6218  1.3566
   83SAPS   H3Y 7833   2.724   0.854  10.607  0.5445 -1.9713  2.3046
   83SAPS   C34 7834   2.800   1.037  10.532 -0.5790 -0.3396 -0.4722
   83SAPS   H4X 7835   2.873   1.118  10.553  1.6034 -1.8884 -1.8693
   83SAPS   H4Y 7836   2.698   1.074  10.507 -0.1571  0.7824 -0.5639
   83SAPS   C35 7837   2.859   0.969  10.411 -0.3400 -0.1247 -0.4551
   83SAPS   H5X 7838   2.784   0.889  10.394 -1.9558  1.6112 -1.7191
   83SAPS   H5Y 7839   2.949   0.906  10.428 -0.7970 -0.3063  1.3787
   83SAPS   C36 7840   2.873   1.068  10.293 -0.1129  0.0446  0.5945
   83SAPS   H6X 7841   2.777   1.122  10.286 -0.8407 -1.3933 -0.8300
   83SAPS   H6Y 7842   2.888   1.005  10.203  0.8826  0.5883  0.3678
   83SAPS   C37 7843   2.991   1.166  10.291 -0.8051 -0.0287  0.0458
   83SAPS   H7X 7844   3.091   1.119  10.282 -0.8958  0.1788 -2.2628
   83SAPS   H7Y 7845   2.989   1.226  10.385  0.4719  1.8437 -1.0818
   83SAPS   C38 7846   2.983   1.263  10.173 -0.1067 -0.2442 -0.1395
   83SAPS   H8X 7847   3.074   1.324  10.193 -1.2162  1.3000  0.3595
   83SAPS   H8Y 7848   2.892   1.326  10.186  0.6648  1.1055 -1.1868
   83SAPS   C39 7849   2.984   1.194  10.035 -0.2594  0.1050 -1.0583
   83SAPS   H9X 7850   2.881   1.152  10.030 -0.8004  1.0417  1.7192
   83SAPS   H9Y 7851   3.066   1.119  10.045 -0.1886  0.1174 -1.5158
   83SAPS  C310 7852   2.991   1.292   9.922  0.1093 -0.0990 -0.1333
   83SAPS  H10X 7853   3.080   1.356   9.942  0.1060  0.2659 -1.2702
   83SAPS  H10Y 7854   2.902   1.360   9.920  0.1610 -0.0502 -1.1158
   83SAPS  C311 7855   3.008   1.222   9.787  0.6548 -0.3868 -0.2550
   83SAPS  H11X 7856   2.914   1.167   9.767 -0.3475  0.6837  1.3428
   83SAPS  H11Y 7857   3.090   1.147   9.786 -1.4104 -2.6826 -2.0061
   83SAPS  C312 7858   3.039   1.320   9.674  0.5129  0.3060 -0.4899
   83SAPS  H12X 7859   3.144   1.355   9.676  0.7867 -0.3696 -2.3662
   83SAPS  H12Y 7860   2.969   1.406   9.684 -0.6765 -0.5549 -1.2101
   83SAPS  C313 7861   3.028   1.256   9.536  0.0510  0.4065 -0.0094
   83SAPS  H13X 7862   3.033   1.343   9.467  1.3023  0.0510 -0.3735
   83SAPS  H13Y 7863   2.932   1.202   9.519  0.5749 -1.0305  1.4519
   83SAPS  C314 7864   3.145   1.166   9.492 -0.7549 -0.0580 -0.0192
   83SAPS  H14X 7865   3.144   1.085   9.568 -0.0485  0.3807  0.4623
   83SAPS  H14Y 7866   3.238   1.226   9.500 -1.3854  0.6602  1.9967
   83SAPS  C315 7867   3.124   1.111   9.349  0.2463 -0.2325 -0.5041
   83SAPS  H15X 7868   3.029   1.160   9.318  0.1611  0.9913  1.5286
   83SAPS  H15Y 7869   3.119   1.000   9.353  3.4455 -0.3996  0.0312
   83SAPS  C316 7870   3.233   1.140   9.239 -0.0069 -0.3536 -0.4680
   83SAPS  H16X 7871   3.307   1.057   9.244  2.4156  1.8342  0.8976
   83SAPS  H16Y 7872   3.289   1.232   9.267  0.7295 -0.3030 -2.0769
   83SAPS  C317 7873   3.168   1.154   9.094 -0.2291  0.0002  0.2605
   83SAPS  H17X 7874   3.120   1.254   9.085  1.7493  1.1899  2.3500
   83SAPS  H17Y 7875   3.087   1.077   9.087 -1.4722  1.4480 -1.6972
   83SAPS  C318 7876   3.271   1.140   8.981  0.4869  0.5244 -0.7319
   83SAPS  H18X 7877   3.325   1.043   8.983 -0.5465 -0.0689 -1.5487
   83SAPS  H18Y 7878   3.338   1.228   8.974 -0.3795  1.2376 -0.2560
   83SAPS  H18Z 7879   3.213   1.134   8.887  2.2768  1.7951 -1.9374
   84SAPS     N 7880   4.021   0.609  11.068 -0.8395  0.7154  0.3030
   84SAPS   HN1 7881   3.983   0.692  11.117 -0.2478  2.2580 -1.7672
   84SAPS   HN2 7882   4.101   0.633  11.006 -0.4376 -1.7421 -0.2083
   84SAPS   HN3 7883   3.942   0.561  11.019 -1.3177  0.8070  0.9858
   84SAPS   C12 7884   4.075   0.513  11.175 -0.0866 -0.0563  0.3913
   84SAPS  H12A 7885   4.178   0.543  11.186  0.4212 -1.5290 -0.1550
   84SAPS   C13 7886   4.014   0.525  11.316  0.5099  0.3453 -0.0173
   84SAPS  O13A 7887   3.909   0.587  11.329 -0.4236 -0.1285 -0.7880
   84SAPS  O13B 7888   4.055   0.455  11.416  0.3519 -0.3955 -0.0423
   84SAPS   C11 7889   4.071   0.370  11.123 -0.5438 -0.0292 -0.4860
   84SAPS  H11A 7890   3.966   0.337  11.119 -1.0938  1.7761 -1.6564
   84SAPS  H11B 7891   4.118   0.298  11.193 -0.0687  0.4713 -0.2756
   84SAPS     P 7892   4.292   0.345  10.987 -0.1899 -0.2599  0.1838
   84SAPS   O13 7893   4.353   0.478  10.986 -0.4284  0.2255  0.3886
   84SAPS   O14 7894   4.343   0.247  11.086  0.4257  0.4410 -0.0794
   84SAPS   O12 7895   4.137   0.356  10.996 -0.1049  0.2090  0.4644
   84SAPS   O11 7896   4.311   0.273  10.852  0.1725 -0.1800 -0.1967
   84SAPS    C1 7897   4.242   0.310  10.729 -0.4782 -0.2840 -0.1042
   84SAPS    HA 7898   4.155   0.244  10.712 -1.0894  0.3192  0.6565
   84SAPS    HB 7899   4.200   0.413  10.728 -0.1409 -0.1469 -0.2923
   84SAPS    C2 7900   4.332   0.292  10.603 -0.4620  0.4375 -0.3244
   84SAPS    HS 7901   4.353   0.183  10.593 -1.4065  0.2321 -0.0477
   84SAPS   O21 7902   4.446   0.377  10.633  0.3449  0.0204  0.0416
   84SAPS   C21 7903   4.559   0.324  10.573  0.1479 -0.3079 -0.0484
   84SAPS   O22 7904   4.562   0.221  10.512  0.4868  0.1174 -0.1705
   84SAPS   C22 7905   4.681   0.413  10.606 -0.3057  0.5428 -0.1873
   84SAPS   H2R 7906   4.663   0.523  10.614  0.5824  0.6288  0.6960
   84SAPS   H2S 7907   4.729   0.361  10.691  0.0977  1.3061  0.0561
   84SAPS    C3 7908   4.252   0.341  10.482  0.4881 -0.3652  0.2965
   84SAPS    HX 7909   4.248   0.452  10.487 -1.5624 -0.4045  0.1822
   84SAPS    HY 7910   4.150   0.298  10.496 -0.3419  1.2103 -0.7111
   84SAPS   O31 7911   4.317   0.308  10.360 -0.1915  0.1000  0.0969
   84SAPS   C31 7912   4.314   0.185  10.311 -0.5384  0.1106  0.1588
   84SAPS   O32 7913   4.236   0.098  10.352 -0.4839 -0.5286  0.5827
   84SAPS   C32 7914   4.429   0.184  10.210  0.2879 -0.3516  0.5178
   84SAPS   H2X 7915   4.453   0.078  10.188 -0.2163 -0.6530  1.3825
   84SAPS   H2Y 7916   4.508   0.235  10.269 -0.2316  0.4820  0.5075
   84SAPS   C23 7917   4.802   0.395  10.507  0.2671  0.5010 -0.2099
   84SAPS   H3R 7918   4.809   0.288  10.479 -2.5009 -0.8522  3.7698
   84SAPS   H3S 7919   4.891   0.416  10.568  1.1292  0.8183 -1.5498
   84SAPS   C24 7920   4.797   0.487  10.380  0.6039 -0.3183  0.5925
   84SAPS   H4R 7921   4.787   0.594  10.407 -0.4586 -0.4587  0.7765
   84SAPS   H4S 7922   4.708   0.464  10.318  1.1994 -0.0385 -0.3816
   84SAPS   C25 7923   4.925   0.471  10.297 -0.0338  0.6221  0.7103
   84SAPS   H5R 7924   5.021   0.456  10.349  0.6704 -0.0088 -0.7398
   84SAPS   C26 7925   4.927   0.490  10.167 -0.1755 -0.2136 -0.1134
   84SAPS   H6R 7926   5.027   0.477  10.125 -0.3130 -2.0473  0.0665
   84SAPS   C27 7927   4.820   0.515  10.068  0.0777  0.2462 -0.0908
   84SAPS   H7R 7928   4.721   0.482  10.106 -0.1410  2.4850  1.3744
   84SAPS   H7S 7929   4.826   0.453   9.976 -1.1485 -0.8466  0.5347
   84SAPS   C28 7930   4.819   0.669  10.045  0.0767  0.0049  0.1189
   84SAPS   H8R 7931   4.806   0.727  10.138 -1.4893 -1.9195  1.1421
   84SAPS   C29 7932   4.842   0.732   9.930  0.3655 -0.0702 -0.0255
   84SAPS   H9R 7933   4.824   0.840   9.938 -0.3113 -0.1885  0.0509
   84SAPS  C210 7934   4.869   0.689   9.790  0.0563 -0.7825 -0.1408
   84SAPS  H10R 7935   4.904   0.583   9.794  1.0403 -0.4243  1.2935
   84SAPS  H10S 7936   4.965   0.736   9.761 -0.0751  2.3031  4.0325
   84SAPS  C211 7937   4.748   0.697   9.703  0.0640  0.3738  0.4546
   84SAPS  H11R 7938   4.655   0.661   9.749  0.5187  0.3273  1.3462
   84SAPS  C212 7939   4.739   0.717   9.569  0.0471  0.7491 -0.2086
   84SAPS  H12R 7940   4.645   0.693   9.517  0.4558  0.5360 -0.8490
   84SAPS  C213 7941   4.858   0.746   9.478  0.4829 -0.3561 -0.3683
   84SAPS  H13R 7942   4.876   0.647   9.431  2.7564 -1.7603  3.2862
   84SAPS  H13S 7943   4.951   0.767   9.534  0.4678 -2.7200  0.6393
   84SAPS  C214 7944   4.814   0.853   9.379 -0.2108 -0.1484  0.0829
   84SAPS  H14R 7945   4.753   0.934   9.421  0.1999 -0.0460  0.4884
   84SAPS  C215 7946   4.840   0.864   9.245  0.9753  0.0697 -0.4251
   84SAPS  H15R 7947   4.804   0.957   9.198 -0.6490 -0.9276 -1.1790
   84SAPS  C216 7948   4.919   0.784   9.150  0.2626  0.0196 -0.1830
   84SAPS  H16R 7949   4.858   0.720   9.083  0.6333 -1.3194  0.7394
   84SAPS  H16S 7950   4.978   0.715   9.214 -1.0608 -0.2719  0.7263
   84SAPS  C217 7951   5.036   0.859   9.075 -0.0075 -0.4485 -0.4957
   84SAPS  H17R 7952   5.107   0.909   9.145 -0.9371  0.0265  0.1231
   84SAPS  H17S 7953   5.004   0.950   9.020 -2.8998 -1.1831 -0.1086
   84SAPS  C218 7954   5.121   0.777   8.984 -0.3025  0.2451 -0.6607
   84SAPS  H18R 7955   5.073   0.776   8.884  1.9296  2.3968 -1.8035
   84SAPS  H18S 7956   5.121   0.670   9.014 -0.4474  0.3754 -0.1966
   84SAPS  C219 7957   5.264   0.839   8.967  0.4467 -0.5358 -0.1304
   84SAPS  H19R 7958   5.321   0.844   9.063  0.5416 -0.4439 -0.1909
   84SAPS  H19S 7959   5.254   0.940   8.922  0.0634 -0.7162 -0.4478
   84SAPS  C220 7960   5.339   0.757   8.872 -0.3976  0.1412 -0.0195
   84SAPS  H20R 7961   5.443   0.794   8.859  0.0185 -1.1810 -0.5574
   84SAPS  H20S 7962   5.284   0.754   8.776  1.6733  0.1794 -1.2431
   84SAPS  H20T 7963   5.340   0.653   8.913  2.4069 -0.3647 -1.2239
   84SAPS   C33 7964   4.398   0.272  10.082  0.0467  0.4624 -0.1329
   84SAPS   H3X 7965   4.497   0.282  10.034 -0.2613  1.7796 -0.4994
   84SAPS   H3Y 7966   4.357   0.370  10.113 -0.0103  0.6234 -0.7250
   84SAPS   C34 7967   4.309   0.205   9.978  0.3666  0.1090 -0.0731
   84SAPS   H4X 7968   4.207   0.192  10.021  0.6083 -2.4806 -0.1914
   84SAPS   H4Y 7969   4.349   0.104   9.955 -2.4626 -1.0540 -0.0582
   84SAPS   C35 7970   4.285   0.297   9.866  0.4236  0.6093 -0.4262
   84SAPS   H5X 7971   4.257   0.395   9.910 -0.3161  0.2139 -0.0139
   84SAPS   H5Y 7972   4.207   0.249   9.804 -0.4551  0.6135  0.6651
   84SAPS   C36 7973   4.402   0.319   9.779  0.0569 -0.3017 -0.7248
   84SAPS   H6X 7974   4.436   0.229   9.724  1.5112  0.2264 -0.7176
   84SAPS   H6Y 7975   4.491   0.351   9.838 -1.0279  2.3926 -0.4546
   84SAPS   C37 7976   4.377   0.411   9.657 -0.1264 -0.1444  0.1850
   84SAPS   H7X 7977   4.351   0.514   9.690  4.1089  1.2673 -0.5516
   84SAPS   H7Y 7978   4.284   0.378   9.605  0.2013 -0.4334 -0.2318
   84SAPS   C38 7979   4.482   0.414   9.547  0.2105 -0.0747  0.0315
   84SAPS   H8X 7980   4.503   0.310   9.516 -2.0510 -0.7314  0.5695
   84SAPS   H8Y 7981   4.579   0.459   9.576  0.4602  0.3981 -1.4778
   84SAPS   C39 7982   4.445   0.482   9.414  0.2314  0.2506  0.7022
   84SAPS   H9X 7983   4.442   0.592   9.426  3.7429  0.4353  0.4286
   84SAPS   H9Y 7984   4.345   0.442   9.385  0.9294 -0.6727 -0.4826
   84SAPS  C310 7985   4.549   0.455   9.303 -0.2035  0.4570  0.0511
   84SAPS  H10X 7986   4.569   0.346   9.294 -0.4438  0.1175  3.1129
   84SAPS  H10Y 7987   4.650   0.495   9.330  1.0194 -0.9659 -2.2526
   84SAPS  C311 7988   4.501   0.519   9.170  0.2516  0.3532  0.7690
   84SAPS  H11X 7989   4.462   0.621   9.188 -0.1874  0.2502  0.4092
   84SAPS  H11Y 7990   4.413   0.467   9.127  0.6376  0.3127  0.0109
   84SAPS  C312 7991   4.607   0.535   9.063 -0.4430  0.4707 -0.3337
   84SAPS  H12X 7992   4.644   0.433   9.039  0.1454  1.4142 -3.6203
   84SAPS  H12Y 7993   4.690   0.595   9.107 -1.3032  0.7757  0.9211
   84SAPS  C313 7994   4.546   0.591   8.935  0.1865  0.1803 -0.4914
   84SAPS  H13X 7995   4.498   0.690   8.949 -1.1730 -0.0644 -3.1696
   84SAPS  H13Y 7996   4.475   0.512   8.904  1.3633 -1.5025  0.9854
   84SAPS  C314 7997   4.642   0.619   8.826  0.1377  0.9241 -0.2422
   84SAPS  H14X 7998   4.673   0.526   8.775 -0.1972  0.1943  0.8842
   84SAPS  H14Y 7999   4.735   0.657   8.873  0.7969  0.5547 -1.2358
   84SAPS  C315 8000   4.604   0.728   8.730  0.5116  0.1156 -0.4449
   84SAPS  H15X 8001   4.693   0.767   8.674  0.3881  1.4776  0.2831
   84SAPS  H15Y 8002   4.566   0.819   8.782  0.3115 -0.8208  1.0703
   84SAPS  C316 8003   4.486   0.688   8.627 -0.0246 -0.5571 -0.2355
   84SAPS  H16X 8004   4.399   0.638   8.675  0.4778 -0.0962  1.1808
   84SAPS  H16Y 8005   4.521   0.601   8.567  2.2553 -0.1710  0.4801
   84SAPS  C317 8006   4.444   0.813   8.542 -0.8318 -0.2918 -0.1112
   84SAPS  H17X 8007   4.536   0.868   8.513 -2.3936  1.8840 -1.0349
   84SAPS  H17Y 8008   4.381   0.878   8.606 -0.6896  0.9274 -1.1941
   84SAPS  C318 8009   4.367   0.783   8.406  0.1494  0.4419 -0.1557
   84SAPS  H18X 8010   4.318   0.880   8.385 -2.4234 -0.4747  1.3677
   84SAPS  H18Y 8011   4.294   0.699   8.413  1.6283 -0.9749 -1.2530
   84SAPS  H18Z 8012   4.438   0.756   8.325  0.2939  1.2025 -0.2839
   85SAPS     N 8013   1.042   1.210  11.137 -0.3629  1.0955 -0.4290
   85SAPS   HN1 8014   0.941   1.189  11.132  0.2350 -1.8799 -1.1108
   85SAPS   HN2 8015   1.084   1.195  11.042  0.7610  3.0399 -0.2653
   85SAPS   HN3 8016   1.075   1.141  11.207 -0.0479  1.1204 -0.5528
   85SAPS   C12 8017   1.081   1.343  11.191 -0.3139 -0.2375  0.1660
   85SAPS  H12A 8018   1.017   1.419  11.149 -0.5615  0.5976  1.9839
   85SAPS   C13 8019   1.066   1.359  11.342  0.0426 -0.1432  0.2910
   85SAPS  O13A 8020   1.026   1.261  11.407 -0.5067 -0.1123 -0.1783
   85SAPS  O13B 8021   1.106   1.460  11.402  0.4605  0.1627  0.1161
   85SAPS   C11 8022   1.227   1.376  11.151  0.1129 -0.2880  0.0304
   85SAPS  H11A 8023   1.312   1.317  11.193 -0.7831 -0.0209  2.2647
   85SAPS  H11B 8024   1.237   1.475  11.201  0.0175 -0.4364  0.3450
   85SAPS     P 8025   1.279   1.294  10.902 -0.4437  0.1717  0.4360
   85SAPS   O13 8026   1.427   1.285  10.884 -0.1290  0.0492  0.3774
   85SAPS   O14 8027   1.209   1.170  10.934 -0.7004 -0.3090  0.2392
   85SAPS   O12 8028   1.244   1.406  11.006 -0.2289 -0.2986 -0.2918
   85SAPS   O11 8029   1.218   1.353  10.768  0.0131 -0.2328  0.7419
   85SAPS    C1 8030   1.291   1.340  10.646  0.1801  0.1417  0.7776
   85SAPS    HA 8031   1.347   1.245  10.644 -0.4775 -0.2367 -0.4701
   85SAPS    HB 8032   1.215   1.340  10.565  1.4645  0.2154 -0.4337
   85SAPS    C2 8033   1.394   1.461  10.611 -0.2749  0.7603 -0.9377
   85SAPS    HS 8034   1.466   1.487  10.691 -0.7212  1.9267 -0.9180
   85SAPS   O21 8035   1.314   1.583  10.592  0.1381  0.1395 -0.2436
   85SAPS   C21 8036   1.379   1.691  10.565 -0.1763  0.0018 -0.3898
   85SAPS   O22 8037   1.500   1.705  10.571  0.0034  0.2003 -0.0167
   85SAPS   C22 8038   1.272   1.791  10.538  0.1811  0.3121 -0.5376
   85SAPS   H2R 8039   1.199   1.748  10.466 -0.1912 -0.1595  0.1153
   85SAPS   H2S 8040   1.230   1.809  10.639  2.4338 -0.9480  0.6800
   85SAPS    C3 8041   1.476   1.426  10.489  0.4621 -0.7096 -0.4045
   85SAPS    HX 8042   1.507   1.322  10.511  3.4862  0.3151  0.3750
   85SAPS    HY 8043   1.566   1.488  10.469  0.3537 -0.6217 -0.6227
   85SAPS   O31 8044   1.397   1.420  10.368 -0.3265  0.5766 -0.1214
   85SAPS   C31 8045   1.418   1.503  10.271  0.0189 -0.4122 -0.1497
   85SAPS   O32 8046   1.488   1.603  10.277  0.2844 -0.8186 -0.1529
   85SAPS   C32 8047   1.339   1.466  10.142  0.5364 -0.2425  0.5724
   85SAPS   H2X 8048   1.237   1.508  10.152  0.2181 -0.7984 -0.3127
   85SAPS   H2Y 8049   1.316   1.357  10.139  0.4499 -0.2606  1.5940
   85SAPS   C23 8050   1.328   1.931  10.504  0.5105 -0.7846  0.2358
   85SAPS   H3R 8051   1.405   1.954  10.581  2.7012  0.5012 -2.2812
   85SAPS   H3S 8052   1.251   2.009  10.523  3.5856  2.2887  0.5754
   85SAPS   C24 8053   1.380   1.952  10.361  0.2118 -0.6970  0.3465
   85SAPS   H4R 8054   1.292   1.921  10.299 -0.4113 -0.0586  0.9062
   85SAPS   H4S 8055   1.460   1.878  10.338 -1.2745 -2.4719  0.7750
   85SAPS   C25 8056   1.423   2.092  10.317 -0.2798 -0.3145  0.2675
   85SAPS   H5R 8057   1.436   2.160  10.403 -0.0203  2.4619 -1.8976
   85SAPS   C26 8058   1.438   2.145  10.195 -0.5171  0.0428 -0.2570
   85SAPS   H6R 8059   1.471   2.250  10.192  1.0100 -0.2997  3.1947
   85SAPS   C27 8060   1.419   2.079  10.062 -0.5345  0.0133  0.6924
   85SAPS   H7R 8061   1.464   1.979  10.083 -1.7881 -0.7661 -0.2474
   85SAPS   H7S 8062   1.486   2.122   9.984  0.4656  1.5108  2.3397
   85SAPS   C28 8063   1.277   2.063  10.020  0.3226  0.4161 -0.9429
   85SAPS   H8R 8064   1.211   2.009  10.090  1.3111 -1.0562 -1.1384
   85SAPS   C29 8065   1.219   2.094   9.901  0.1448  0.3195  0.5641
   85SAPS   H9R 8066   1.111   2.076   9.890 -0.1901  1.6007  1.5809
   85SAPS  C210 8067   1.286   2.140   9.771 -0.2697  0.3473  0.5382
   85SAPS  H10R 8068   1.396   2.127   9.782 -0.0169  1.2489 -0.8326
   85SAPS  H10S 8069   1.272   2.250   9.763  1.8086  0.6294  0.3805
   85SAPS  C211 8070   1.224   2.080   9.639  0.6401  0.2501 -0.1197
   85SAPS  H11R 8071   1.163   1.989   9.653  0.9685  0.2167  1.1458
   85SAPS  C212 8072   1.245   2.137   9.511 -0.5637 -0.5412  0.3062
   85SAPS  H12R 8073   1.200   2.091   9.421  0.5195  2.4986 -1.8748
   85SAPS  C213 8074   1.337   2.257   9.482 -0.5364  0.1592 -0.3414
   85SAPS  H13R 8075   1.424   2.221   9.423 -1.2454 -3.5415  0.7614
   85SAPS  H13S 8076   1.376   2.321   9.564  0.9555 -0.8258 -0.2803
   85SAPS  C214 8077   1.263   2.360   9.394  0.6500  0.3520 -0.3340
   85SAPS  H14R 8078   1.206   2.433   9.453  0.1378  0.1470 -0.5732
   85SAPS  C215 8079   1.269   2.384   9.266 -0.4135 -0.4076  0.0477
   85SAPS  H15R 8080   1.205   2.449   9.204  0.2342  1.5146  1.3314
   85SAPS  C216 8081   1.353   2.306   9.171  0.3504 -0.6660 -0.4144
   85SAPS  H16R 8082   1.391   2.215   9.222 -0.3797 -1.4150 -1.1784
   85SAPS  H16S 8083   1.438   2.365   9.131  0.0434  1.0316  1.3374
   85SAPS  C217 8084   1.266   2.275   9.049 -0.1488  0.2281  0.4782
   85SAPS  H17R 8085   1.251   2.373   8.997 -2.4638 -0.2141  0.2595
   85SAPS  H17S 8086   1.165   2.235   9.071 -0.5225  0.5131 -0.6749
   85SAPS  C218 8087   1.336   2.184   8.946  0.4048  0.3048 -0.1955
   85SAPS  H18R 8088   1.383   2.098   8.997 -0.8896  0.5151  1.3712
   85SAPS  H18S 8089   1.411   2.239   8.884  1.5237 -0.9897 -0.0177
   85SAPS  C219 8090   1.234   2.130   8.846 -0.0466  1.1707  0.5813
   85SAPS  H19R 8091   1.155   2.089   8.913  1.0380 -0.0102  1.1729
   85SAPS  H19S 8092   1.274   2.042   8.792 -1.3621  0.4795  0.7059
   85SAPS  C220 8093   1.171   2.221   8.742 -0.5133  0.1841  0.0612
   85SAPS  H20R 8094   1.112   2.171   8.662 -0.9374 -0.0735  0.5350
   85SAPS  H20S 8095   1.252   2.282   8.697 -0.8437 -0.3546 -1.2843
   85SAPS  H20T 8096   1.106   2.298   8.789 -1.0229 -0.9611  1.2589
   85SAPS   C33 8097   1.397   1.514  10.006 -0.2849 -0.1138 -0.8850
   85SAPS   H3X 8098   1.353   1.449   9.928  1.3420 -1.7318 -0.4852
   85SAPS   H3Y 8099   1.508   1.510  10.002  0.0706  3.1771  2.3374
   85SAPS   C34 8100   1.367   1.663   9.978 -0.1736 -0.0040 -0.3413
   85SAPS   H4X 8101   1.412   1.725  10.058 -1.5979  0.8562 -0.1939
   85SAPS   H4Y 8102   1.256   1.663   9.974 -0.1518 -0.7156 -1.0681
   85SAPS   C35 8103   1.416   1.719   9.854 -0.2825 -0.1791  0.0373
   85SAPS   H5X 8104   1.527   1.714   9.854 -0.1529  2.0368  0.6725
   85SAPS   H5Y 8105   1.380   1.824   9.854 -1.1433 -0.4281  2.7456
   85SAPS   C36 8106   1.354   1.642   9.734  1.0827  0.3352  0.1924
   85SAPS   H6X 8107   1.260   1.587   9.753  0.6315  0.2073 -2.1958
   85SAPS   H6Y 8108   1.423   1.559   9.707 -0.0976 -0.7583  0.4699
   85SAPS   C37 8109   1.342   1.726   9.605 -0.7734 -0.1453  0.0123
   85SAPS   H7X 8110   1.264   1.805   9.609  0.8596  1.5459 -0.4716
   85SAPS   H7Y 8111   1.311   1.657   9.524 -0.4649  0.9401 -1.0500
   85SAPS   C38 8112   1.477   1.794   9.563 -0.0051 -0.3083  0.2759
   85SAPS   H8X 8113   1.552   1.713   9.567  1.4653  0.9615 -0.8024
   85SAPS   H8Y 8114   1.503   1.854   9.653  0.9734 -0.3396  0.0167
   85SAPS   C39 8115   1.458   1.859   9.425  0.1765 -0.5381  0.4325
   85SAPS   H9X 8116   1.544   1.929   9.432 -0.1135 -0.2668  1.3449
   85SAPS   H9Y 8117   1.358   1.905   9.416  0.4009 -0.3034 -1.0041
   85SAPS  C310 8118   1.482   1.764   9.308 -0.1088 -0.6055 -0.4277
   85SAPS  H10X 8119   1.412   1.679   9.325 -0.2282  0.4120  5.0635
   85SAPS  H10Y 8120   1.583   1.721   9.321  0.0858  0.6245  2.5255
   85SAPS  C311 8121   1.471   1.836   9.172 -0.6436 -0.7033 -0.6675
   85SAPS  H11X 8122   1.520   1.935   9.183 -2.0722 -0.3397  3.2665
   85SAPS  H11Y 8123   1.367   1.866   9.146 -0.3017 -0.7426 -2.1141
   85SAPS  C312 8124   1.530   1.765   9.050  0.5430  0.3818  0.1411
   85SAPS  H12X 8125   1.640   1.756   9.058  0.7622  2.6190  0.1621
   85SAPS  H12Y 8126   1.525   1.829   8.959 -0.2470 -0.2237 -0.2429
   85SAPS  C313 8127   1.464   1.631   9.024 -0.6588 -0.3243 -0.5630
   85SAPS  H13X 8128   1.371   1.636   9.086 -1.7120  3.7164 -2.2621
   85SAPS  H13Y 8129   1.531   1.553   9.066  2.3203  1.7118 -1.3624
   85SAPS  C314 8130   1.418   1.606   8.881  0.7522 -0.0256  0.0030
   85SAPS  H14X 8131   1.504   1.629   8.815  1.1003  1.2369  0.8835
   85SAPS  H14Y 8132   1.340   1.681   8.857 -1.1639 -1.8686  0.2528
   85SAPS  C315 8133   1.360   1.472   8.860 -0.6081  0.2726 -0.1262
   85SAPS  H15X 8134   1.272   1.475   8.928  0.2958 -0.5771  1.0981
   85SAPS  H15Y 8135   1.434   1.403   8.907 -1.0902 -0.1814 -0.0362
   85SAPS  C316 8136   1.305   1.426   8.722  0.1805  0.0279 -0.7158
   85SAPS  H16X 8137   1.389   1.445   8.652  0.2435 -0.8279 -0.8748
   85SAPS  H16Y 8138   1.222   1.499   8.706 -0.6509 -0.4661  1.1921
   85SAPS  C317 8139   1.267   1.275   8.718  0.5916 -0.8158  1.0494
   85SAPS  H17X 8140   1.238   1.245   8.821  1.2647  0.0985  1.5138
   85SAPS  H17Y 8141   1.347   1.207   8.682  1.1589  0.0601  0.6403
   85SAPS  C318 8142   1.155   1.248   8.620 -0.5929  0.3924 -0.1771
   85SAPS  H18X 8143   1.185   1.291   8.522  2.8399 -2.1485 -0.3400
   85SAPS  H18Y 8144   1.064   1.297   8.661  0.4538 -0.4897  3.4195
   85SAPS  H18Z 8145   1.123   1.142   8.605  1.1879 -0.1898 -0.0148
   86SAPS     N 8146   3.165   1.494  10.951 -0.0734  0.8765  0.5195
   86SAPS   HN1 8147   3.079   1.449  10.988  0.6496  0.4097  1.6773
   86SAPS   HN2 8148   3.140   1.549  10.866 -3.0530 -2.2919 -0.7165
   86SAPS   HN3 8149   3.229   1.423  10.912 -1.3624  1.0676 -1.9942
   86SAPS   C12 8150   3.208   1.583  11.063  1.0744 -0.2863  0.3586
   86SAPS  H12A 8151   3.127   1.651  11.083  1.0551 -0.2518  0.1652
   86SAPS   C13 8152   3.239   1.507  11.194 -0.0695 -0.4955 -0.0364
   86SAPS  O13A 8153   3.202   1.390  11.212  0.3038 -0.1770  0.0796
   86SAPS  O13B 8154   3.287   1.578  11.289 -0.1014 -0.0766 -0.6649
   86SAPS   C11 8155   3.324   1.672  11.023 -0.3627 -0.5038 -0.0560
   86SAPS  H11A 8156   3.335   1.745  11.106 -2.1943 -0.3397  0.0411
   86SAPS  H11B 8157   3.291   1.725  10.930  1.0778 -0.8523 -0.7865
   86SAPS     P 8158   3.574   1.684  10.972  0.0502 -0.1754  0.6291
   86SAPS   O13 8159   3.577   1.805  11.056  0.4022 -0.0215 -0.6903
   86SAPS   O14 8160   3.687   1.584  10.983  0.2482 -0.1262 -0.1276
   86SAPS   O12 8161   3.444   1.602  11.004 -0.5140  0.5313 -0.4512
   86SAPS   O11 8162   3.566   1.712  10.819  0.1488  0.4532 -0.3339
   86SAPS    C1 8163   3.504   1.609  10.737  0.4536  0.4427  0.5967
   86SAPS    HA 8164   3.535   1.507  10.768  2.9315  0.9270 -0.1727
   86SAPS    HB 8165   3.393   1.607  10.746  0.4667 -3.5815  0.4209
   86SAPS    C2 8166   3.547   1.632  10.590  0.4103  0.0134 -0.1722
   86SAPS    HS 8167   3.651   1.593  10.582 -0.2673 -1.3476 -2.7586
   86SAPS   O21 8168   3.531   1.767  10.565 -0.5578  0.0334 -0.0972
   86SAPS   C21 8169   3.626   1.833  10.498 -0.5307  0.6749  0.2163
   86SAPS   O22 8170   3.741   1.794  10.470  0.1634 -0.0848  0.4850
   86SAPS   C22 8171   3.575   1.970  10.458 -0.3268  0.4256  0.6488
   86SAPS   H2R 8172   3.523   2.032  10.535 -0.8300 -0.2155  0.8310
   86SAPS   H2S 8173   3.661   2.031  10.422  0.0720 -0.4160  0.1819
   86SAPS    C3 8174   3.456   1.549  10.505 -0.6870  0.6464  0.2963
   86SAPS    HX 8175   3.354   1.549  10.549 -1.3608  0.9606 -1.2270
   86SAPS    HY 8176   3.497   1.446  10.507 -1.5134  0.3211  0.5170
   86SAPS   O31 8177   3.448   1.591  10.365  0.0240 -0.5753 -0.1008
   86SAPS   C31 8178   3.366   1.514  10.298 -0.1153 -0.2157  0.2496
   86SAPS   O32 8179   3.300   1.429  10.352  0.7453  0.4112 -0.1033
   86SAPS   C32 8180   3.371   1.550  10.151  0.1744  0.1453 -0.0577
   86SAPS   H2X 8181   3.458   1.494  10.110  0.7618 -1.5215  3.3084
   86SAPS   H2Y 8182   3.392   1.659  10.147 -1.1077  0.4636  1.5652
   86SAPS   C23 8183   3.473   1.952  10.344 -0.3049 -0.2484 -0.4861
   86SAPS   H3R 8184   3.427   2.051  10.323 -2.5069 -1.1697 -0.1279
   86SAPS   H3S 8185   3.388   1.891  10.382  1.3662 -1.1297  1.9999
   86SAPS   C24 8186   3.523   1.878  10.220 -0.4926 -0.0263 -0.4192
   86SAPS   H4R 8187   3.423   1.866  10.174 -0.9390 -0.8045  0.7386
   86SAPS   H4S 8188   3.558   1.775  10.243  1.1035  0.8097  1.0030
   86SAPS   C25 8189   3.618   1.965  10.144 -0.9013 -0.8016 -0.7035
   86SAPS   H5R 8190   3.686   2.020  10.211  1.0640 -4.7597  0.7559
   86SAPS   C26 8191   3.635   1.973  10.010  0.4198  0.4762  0.1945
   86SAPS   H6R 8192   3.707   2.049   9.975 -1.6358  1.0236 -3.0654
   86SAPS   C27 8193   3.560   1.902   9.903 -0.3809  0.2655  0.3581
   86SAPS   H7R 8194   3.461   1.865   9.938 -1.6725  0.7062 -2.6700
   86SAPS   H7S 8195   3.617   1.815   9.863  0.2292  0.8979 -0.1538
   86SAPS   C28 8196   3.529   1.997   9.789 -0.3173 -0.7242  0.1631
   86SAPS   H8R 8197   3.422   2.012   9.768  0.0436  0.8401 -0.6006
   86SAPS   C29 8198   3.614   2.069   9.705  0.4669  0.1312 -0.0933
   86SAPS   H9R 8199   3.575   2.140   9.630 -1.5628  1.6496  2.2875
   86SAPS  C210 8200   3.767   2.052   9.696 -0.6013 -0.2191 -0.5689
   86SAPS  H10R 8201   3.806   1.956   9.735 -0.8756  0.0625  0.3987
   86SAPS  H10S 8202   3.825   2.128   9.752 -1.0792  0.5689 -1.1228
   86SAPS  C211 8203   3.825   2.061   9.560  0.5520 -0.1261  0.7866
   86SAPS  H11R 8204   3.900   2.142   9.558 -3.7766  4.1199  0.7832
   86SAPS  C212 8205   3.810   1.992   9.450 -0.0563 -0.1944  0.9799
   86SAPS  H12R 8206   3.879   2.004   9.365 -0.3932  1.4381  0.9245
   86SAPS  C213 8207   3.704   1.884   9.420  0.0828 -0.4120  0.3132
   86SAPS  H13R 8208   3.693   1.822   9.511  1.5687  0.6789  1.2607
   86SAPS  H13S 8209   3.742   1.820   9.337 -2.0790 -3.2309  1.4006
   86SAPS  C214 8210   3.574   1.946   9.385 -0.0162 -0.1232  0.0047
   86SAPS  H14R 8211   3.515   1.997   9.462  0.0059 -0.6951  0.3970
   86SAPS  C215 8212   3.497   1.918   9.266  0.5363 -0.1065  0.2768
   86SAPS  H15R 8213   3.406   1.978   9.250  0.8281  0.1311 -0.5140
   86SAPS  C216 8214   3.539   1.830   9.154  0.8332  0.0774 -0.1279
   86SAPS  H16R 8215   3.444   1.788   9.113  1.6396 -1.4470 -0.5021
   86SAPS  H16S 8216   3.592   1.744   9.201 -0.7372 -0.9051 -0.0960
   86SAPS  C217 8217   3.608   1.885   9.029  0.2854  0.1283 -0.0823
   86SAPS  H17R 8218   3.545   1.967   8.988 -1.8903 -1.8400 -0.7622
   86SAPS  H17S 8219   3.608   1.805   8.952 -1.2491  0.4380 -0.4285
   86SAPS  C218 8220   3.751   1.935   9.045 -0.5252  0.0378  0.6193
   86SAPS  H18R 8221   3.803   1.843   9.079 -0.7389 -0.8132 -1.3056
   86SAPS  H18S 8222   3.753   2.009   9.128 -0.0808  1.5166 -0.6925
   86SAPS  C219 8223   3.813   1.984   8.917  0.0298 -0.7738  0.8833
   86SAPS  H19R 8224   3.804   1.901   8.843  3.0412 -0.9006  0.6103
   86SAPS  H19S 8225   3.919   1.995   8.947  0.1931  0.0837  0.0356
   86SAPS  C220 8226   3.754   2.110   8.848  0.2350  0.0439  0.0918
   86SAPS  H20R 8227   3.644   2.100   8.847  0.4739 -3.1113  1.4162
   86SAPS  H20S 8228   3.787   2.130   8.744 -2.3134 -0.1952 -0.7816
   86SAPS  H20T 8229   3.779   2.196   8.914 -0.8086  0.0956  0.4302
   86SAPS   C33 8230   3.244   1.525  10.067 -0.6350  0.6310  0.0269
   86SAPS   H3X 8231   3.151   1.544  10.124 -0.7548  0.2871 -0.0595
   86SAPS   H3Y 8232   3.259   1.422  10.029 -2.1754  0.2729  0.3690
   86SAPS   C34 8233   3.234   1.619   9.947  0.1725  0.4885  0.1484
   86SAPS   H4X 8234   3.253   1.725   9.972 -2.1569  0.5525  1.7815
   86SAPS   H4Y 8235   3.130   1.616   9.908  0.3167 -2.0097 -0.1431
   86SAPS   C35 8236   3.324   1.573   9.832  0.3817  0.0447  0.0048
   86SAPS   H5X 8237   3.303   1.464   9.828  0.6396 -0.0797  1.9115
   86SAPS   H5Y 8238   3.430   1.596   9.854  0.7758 -0.9430 -0.7942
   86SAPS   C36 8239   3.281   1.643   9.701 -0.0925 -0.0915 -0.5538
   86SAPS   H6X 8240   3.286   1.753   9.711  1.4007  0.0446 -2.3840
   86SAPS   H6Y 8241   3.175   1.638   9.668 -1.3880  3.3335  2.7331
   86SAPS   C37 8242   3.366   1.600   9.584 -0.1467 -0.2311  0.8188
   86SAPS   H7X 8243   3.396   1.494   9.602  1.1489 -0.1285 -0.6066
   86SAPS   H7Y 8244   3.467   1.646   9.596 -0.0959 -0.2475  0.4715
   86SAPS   C38 8245   3.318   1.631   9.442  0.1274  0.5399 -0.2371
   86SAPS   H8X 8246   3.403   1.606   9.375  1.5827  1.8599  1.1045
   86SAPS   H8Y 8247   3.298   1.740   9.443  1.7339  0.8393  0.3853
   86SAPS   C39 8248   3.197   1.555   9.389 -0.0269 -0.3356 -0.5360
   86SAPS   H9X 8249   3.105   1.591   9.440  0.8019  0.9759  0.0774
   86SAPS   H9Y 8250   3.202   1.449   9.422 -1.3331 -0.5798 -1.1124
   86SAPS  C310 8251   3.184   1.550   9.242  0.1692  0.5815  0.2638
   86SAPS  H10X 8252   3.111   1.472   9.212 -0.6872  0.8001  1.7443
   86SAPS  H10Y 8253   3.277   1.520   9.189  1.0397 -0.9477  2.5832
   86SAPS  C311 8254   3.143   1.691   9.183 -0.1684 -0.4695  0.6680
   86SAPS  H11X 8255   3.207   1.775   9.217 -0.3928  0.8944 -2.1724
   86SAPS  H11Y 8256   3.045   1.715   9.229 -0.7243 -1.3709 -0.0314
   86SAPS  C312 8257   3.142   1.681   9.033  0.4030 -0.8834  0.6349
   86SAPS  H12X 8258   3.069   1.604   9.002  0.7333 -1.0397  0.2446
   86SAPS  H12Y 8259   3.244   1.645   9.005  0.7562 -0.2267  1.0515
   86SAPS  C313 8260   3.133   1.822   8.968  0.4789  0.8136 -0.7618
   86SAPS  H13X 8261   3.214   1.889   9.003 -1.6799  2.7133  0.7760
   86SAPS  H13Y 8262   3.038   1.867   9.002  0.8056  2.7271 -2.3225
   86SAPS  C314 8263   3.116   1.809   8.815 -0.3361 -0.2961 -0.2484
   86SAPS  H14X 8264   3.019   1.762   8.788  0.0565 -0.5266 -1.2935
   86SAPS  H14Y 8265   3.194   1.739   8.777  0.1975 -1.1384  2.3426
   86SAPS  C315 8266   3.121   1.945   8.746 -0.2484  0.6119  0.5212
   86SAPS  H15X 8267   3.094   2.030   8.812  0.1844 -1.4228  3.4332
   86SAPS  H15Y 8268   3.048   1.946   8.663  1.1343 -2.2526 -0.7995
   86SAPS  C316 8269   3.260   1.968   8.684  0.4265 -0.0143 -0.1340
   86SAPS  H16X 8270   3.274   1.894   8.602 -0.7739 -0.1127 -0.2627
   86SAPS  H16Y 8271   3.337   1.940   8.759  0.3208  1.0328  0.3755
   86SAPS  C317 8272   3.282   2.114   8.635  0.5781 -0.5551 -0.5553
   86SAPS  H17X 8273   3.249   2.194   8.705  0.7678  1.4811 -2.7006
   86SAPS  H17Y 8274   3.213   2.113   8.547 -1.9137 -3.1196  1.3302
   86SAPS  C318 8275   3.428   2.136   8.581  0.2007 -0.0213 -0.4717
   86SAPS  H18X 8276   3.443   2.241   8.548  0.2279  1.0171  2.6598
   86SAPS  H18Y 8277   3.467   2.066   8.504 -0.0950 -2.1199  1.2363
   86SAPS  H18Z 8278   3.492   2.117   8.670 -1.3413 -3.8239 -0.1049
   87SAPS     N 8279   3.643   2.193  11.211 -0.2749  0.9496  0.0481
   87SAPS   HN1 8280   3.741   2.155  11.210 -0.2970  0.8910  0.0542
   87SAPS   HN2 8281   3.638   2.283  11.262  2.9829  1.0752  0.3140
   87SAPS   HN3 8282   3.576   2.129  11.259  2.2964 -1.9366  0.0050
   87SAPS   C12 8283   3.593   2.225  11.079  0.0368  0.3240  0.3149
   87SAPS  H12A 8284   3.616   2.138  11.020  1.3999  1.1923 -0.4505
   87SAPS   C13 8285   3.448   2.277  11.059 -0.4652 -0.0830 -0.1415
   87SAPS  O13A 8286   3.369   2.298  11.160 -0.1843 -0.2470  0.1259
   87SAPS  O13B 8287   3.417   2.291  10.940 -0.1104 -0.8724  0.9131
   87SAPS   C11 8288   3.685   2.345  11.031 -0.0243 -0.1950 -0.5249
   87SAPS  H11A 8289   3.658   2.425  11.104  0.5988 -0.9533  0.5631
   87SAPS  H11B 8290   3.647   2.366  10.929  0.2957 -1.9543 -1.0156
   87SAPS     P 8291   3.930   2.427  10.980 -0.0433 -0.4253 -0.3158
   87SAPS   O13 8292   3.923   2.555  11.060  0.1007 -0.7442  0.2707
   87SAPS   O14 8293   4.056   2.355  10.969 -0.1003 -0.5170 -0.2696
   87SAPS   O12 8294   3.824   2.322  11.030  0.4559  0.0132 -0.5802
   87SAPS   O11 8295   3.879   2.448  10.826  0.5499  0.4890 -0.3100
   87SAPS    C1 8296   3.862   2.579  10.770 -1.2143  0.3356 -0.5402
   87SAPS    HA 8297   3.836   2.650  10.852 -3.6856 -0.5052 -0.5659
   87SAPS    HB 8298   3.955   2.622  10.727  0.5124 -2.2206  0.5360
   87SAPS    C2 8299   3.744   2.601  10.674 -0.1225  0.3234  0.0743
   87SAPS    HS 8300   3.645   2.577  10.716 -0.9716 -1.0856 -2.6057
   87SAPS   O21 8301   3.769   2.530  10.550  0.0634 -0.1039  0.0096
   87SAPS   C21 8302   3.691   2.427  10.520  0.3114 -0.6698 -0.4796
   87SAPS   O22 8303   3.597   2.393  10.592  0.5334  0.1427  0.3034
   87SAPS   C22 8304   3.736   2.364  10.389  0.0003  0.2600  0.0664
   87SAPS   H2R 8305   3.820   2.419  10.340 -0.9121 -0.3446 -2.2582
   87SAPS   H2S 8306   3.775   2.262  10.407  0.0246  0.3247  0.3740
   87SAPS    C3 8307   3.742   2.748  10.629  0.4969  1.2285  0.4014
   87SAPS    HX 8308   3.826   2.757  10.557  0.3637  0.0638  0.0770
   87SAPS    HY 8309   3.751   2.810  10.720  1.1939 -3.0293  3.4156
   87SAPS   O31 8310   3.622   2.772  10.559  0.1557 -0.5100 -0.1762
   87SAPS   C31 8311   3.574   2.896  10.549 -0.1357  0.1364 -0.2430
   87SAPS   O32 8312   3.625   2.999  10.581 -0.9860 -0.4724  0.0887
   87SAPS   C32 8313   3.441   2.888  10.467 -0.1242  0.1417 -0.0076
   87SAPS   H2X 8314   3.353   2.890  10.534  0.2796  0.6462  0.5047
   87SAPS   H2Y 8315   3.450   2.796  10.405  1.1671  0.1486  0.1661
   87SAPS   C23 8316   3.613   2.356  10.292 -0.0115 -0.4858 -0.2861
   87SAPS   H3R 8317   3.532   2.288  10.327 -2.7065  3.7698  2.4330
   87SAPS   H3S 8318   3.655   2.313  10.200  0.7173  1.1063 -0.7215
   87SAPS   C24 8319   3.534   2.491  10.280 -1.0688  0.5530  0.5606
   87SAPS   H4R 8320   3.499   2.523  10.381 -0.4569  1.1163  0.5892
   87SAPS   H4S 8321   3.438   2.472  10.227  0.7696 -2.6388 -1.7417
   87SAPS   C25 8322   3.606   2.609  10.222 -0.6639 -0.1641 -1.1086
   87SAPS   H5R 8323   3.645   2.694  10.279 -4.3124  2.3422 -2.2068
   87SAPS   C26 8324   3.626   2.629  10.094  0.4782  0.4078  0.9689
   87SAPS   H6R 8325   3.675   2.720  10.056  0.4955 -0.2366 -0.6121
   87SAPS   C27 8326   3.585   2.539   9.977  0.1413  0.4928 -0.6750
   87SAPS   H7R 8327   3.556   2.602   9.890  2.8044  1.2166 -1.0873
   87SAPS   H7S 8328   3.489   2.499  10.016 -0.0948  0.6225 -1.1142
   87SAPS   C28 8329   3.691   2.437   9.933  0.3195 -0.7096 -0.3016
   87SAPS   H8R 8330   3.690   2.353  10.004  0.4762  0.7232  1.4181
   87SAPS   C29 8331   3.763   2.430   9.818 -0.2516 -0.5418  0.4167
   87SAPS   H9R 8332   3.842   2.354   9.809 -2.6643 -3.2490  1.1982
   87SAPS  C210 8333   3.752   2.537   9.717  0.1885 -0.4412  0.8874
   87SAPS  H10R 8334   3.836   2.529   9.644 -0.3772 -1.9997  0.3837
   87SAPS  H10S 8335   3.765   2.639   9.757  1.5232 -0.0595 -0.4693
   87SAPS  C211 8336   3.627   2.520   9.632 -0.3086 -0.0644  0.3227
   87SAPS  H11R 8337   3.538   2.562   9.681 -0.1399  1.1209 -0.3643
   87SAPS  C212 8338   3.612   2.463   9.510 -0.5224  0.5382  0.4689
   87SAPS  H12R 8339   3.515   2.470   9.461 -0.7578  3.0665  1.2179
   87SAPS  C213 8340   3.715   2.395   9.417  0.1000 -0.2603 -0.0714
   87SAPS  H13R 8341   3.694   2.287   9.406 -0.7048  0.1025 -2.4323
   87SAPS  H13S 8342   3.817   2.406   9.459 -1.1432 -0.5352  3.1318
   87SAPS  C214 8343   3.710   2.452   9.274 -0.0235 -0.1052 -0.3588
   87SAPS  H14R 8344   3.770   2.544   9.263  1.9426 -1.3259  0.0847
   87SAPS  C215 8345   3.637   2.392   9.173 -0.5387 -0.4047  0.7911
   87SAPS  H15R 8346   3.637   2.430   9.070 -1.7365 -0.7610  0.6537
   87SAPS  C216 8347   3.554   2.260   9.180 -0.2147 -0.1250  0.4052
   87SAPS  H16R 8348   3.515   2.248   9.283  2.0807  1.8834  1.5582
   87SAPS  H16S 8349   3.622   2.172   9.179 -0.1875 -0.0921 -0.4019
   87SAPS  C217 8350   3.434   2.259   9.079  0.0659 -0.0823 -0.2739
   87SAPS  H17R 8351   3.371   2.172   9.108  0.2489  0.3236  1.4017
   87SAPS  H17S 8352   3.472   2.260   8.974  0.3512  0.5927 -0.1647
   87SAPS  C218 8353   3.333   2.369   9.096 -0.2663  0.3117  0.0950
   87SAPS  H18R 8354   3.381   2.469   9.089  1.6938 -0.4924  1.5840
   87SAPS  H18S 8355   3.276   2.355   9.190  0.9672 -0.2388  0.7751
   87SAPS  C219 8356   3.234   2.371   8.977 -0.2446  0.8854  0.5437
   87SAPS  H19R 8357   3.150   2.441   8.996  1.2937  3.3702 -1.4647
   87SAPS  H19S 8358   3.197   2.268   8.958  1.4515  0.0762  1.5663
   87SAPS  C220 8359   3.295   2.445   8.851 -0.2841 -0.0812  0.8092
   87SAPS  H20R 8360   3.351   2.535   8.884  1.8638 -0.9357 -0.3517
   87SAPS  H20S 8361   3.211   2.474   8.784  1.9649  1.8426 -1.2939
   87SAPS  H20T 8362   3.364   2.381   8.792  0.6330  2.2776 -0.7802
   87SAPS   C33 8363   3.402   3.013  10.377 -0.5052  0.5797  0.0609
   87SAPS   H3X 8364   3.456   3.006  10.280  1.2161  0.7670  0.9775
   87SAPS   H3Y 8365   3.428   3.110  10.424 -0.2789  0.8144 -0.5447
   87SAPS   C34 8366   3.254   3.012  10.345  0.1587 -0.4316 -0.0498
   87SAPS   H4X 8367   3.182   3.046  10.421 -1.1082 -0.7116 -1.1079
   87SAPS   H4Y 8368   3.224   2.906  10.335 -1.9761  0.0144  1.4211
   87SAPS   C35 8369   3.227   3.083  10.208  0.5464  0.6304 -0.3219
   87SAPS   H5X 8370   3.295   3.039  10.132  1.5815  0.4346  0.7246
   87SAPS   H5Y 8371   3.257   3.190  10.214  0.1105  0.7732 -0.6261
   87SAPS   C36 8372   3.080   3.080  10.166  0.5293  0.0527  0.6485
   87SAPS   H6X 8373   3.022   3.130  10.247  1.7755 -1.7445  2.7195
   87SAPS   H6Y 8374   3.037   2.977  10.160  2.8099 -0.9636  1.4222
   87SAPS   C37 8375   3.045   3.137  10.029  0.0728 -0.1019  0.2994
   87SAPS   H7X 8376   3.085   3.241  10.031 -2.8310  1.0830 -0.8293
   87SAPS   H7Y 8377   2.935   3.147  10.017  0.1729  2.1217  1.0873
   87SAPS   C38 8378   3.103   3.066   9.898  0.5822  0.2479  0.1733
   87SAPS   H8X 8379   3.055   2.967   9.886  0.3119  0.2789  0.9698
   87SAPS   H8Y 8380   3.209   3.047   9.925  1.0948  2.3277 -0.2600
   87SAPS   C39 8381   3.082   3.160   9.776  0.0034  0.1799 -0.4071
   87SAPS   H9X 8382   3.111   3.264   9.803  0.0047 -0.0107  0.3155
   87SAPS   H9Y 8383   2.972   3.168   9.759 -0.0318  1.5604  0.3566
   87SAPS  C310 8384   3.163   3.120   9.651  0.1521  0.1729 -0.7541
   87SAPS  H10X 8385   3.126   3.021   9.619  1.4701  0.2688 -2.6441
   87SAPS  H10Y 8386   3.273   3.113   9.668  0.3101  1.1430 -1.3110
   87SAPS  C311 8387   3.140   3.229   9.536 -0.1942  0.5206 -0.1746
   87SAPS  H11X 8388   3.187   3.324   9.568  0.9627  0.2789 -1.1327
   87SAPS  H11Y 8389   3.033   3.255   9.515  0.2722  1.4621 -1.4653
   87SAPS  C312 8390   3.199   3.179   9.404 -0.1479  0.0061  0.2756
   87SAPS  H12X 8391   3.145   3.090   9.363  1.8284 -0.5067 -1.3255
   87SAPS  H12Y 8392   3.305   3.146   9.401 -0.2144 -0.1300 -2.7187
   87SAPS  C313 8393   3.181   3.294   9.316 -0.1110 -0.0932  0.3645
   87SAPS  H13X 8394   3.251   3.373   9.349  0.0500 -0.9320  2.0645
   87SAPS  H13Y 8395   3.081   3.342   9.319 -0.1663 -0.1963  0.2008
   87SAPS  C314 8396   3.224   3.261   9.170 -0.5784 -0.1074  0.5956
   87SAPS  H14X 8397   3.317   3.201   9.181 -0.1224  0.1710 -1.4986
   87SAPS  H14Y 8398   3.259   3.352   9.118  2.6862 -0.7759  1.5249
   87SAPS  C315 8399   3.122   3.192   9.075  0.2477 -0.7110  0.0593
   87SAPS  H15X 8400   3.032   3.249   9.044 -1.3259 -2.7810  0.6663
   87SAPS  H15Y 8401   3.092   3.104   9.137  2.0167 -1.2533  0.1663
   87SAPS  C316 8402   3.199   3.150   8.949 -0.2392  0.2402 -0.3567
   87SAPS  H16X 8403   3.131   3.095   8.880 -0.1764 -0.4659  0.1341
   87SAPS  H16Y 8404   3.286   3.084   8.968 -0.1227  0.8637  1.4259
   87SAPS  C317 8405   3.247   3.272   8.867  0.1298  0.4904 -0.1751
   87SAPS  H17X 8406   3.302   3.343   8.933 -0.0218  0.6694 -0.2448
   87SAPS  H17Y 8407   3.149   3.317   8.845 -1.4796 -1.4184  2.6880
   87SAPS  C318 8408   3.326   3.242   8.741  0.1500 -0.4757  0.2331
   87SAPS  H18X 8409   3.365   3.334   8.693  0.4319 -0.9407 -0.4315
   87SAPS  H18Y 8410   3.255   3.195   8.669 -1.0218 -0.0045  1.0599
   87SAPS  H18Z 8411   3.405   3.167   8.763 -0.5058 -0.9220  1.1231
   88SAPS     N 8412   5.900   1.329  10.932 -0.2631 -0.8893  0.1226
   88SAPS   HN1 8413   5.814   1.359  10.882  0.3324 -0.8451 -0.8902
   88SAPS   HN2 8414   5.921   1.232  10.901 -1.1080 -0.9646 -0.2410
   88SAPS   HN3 8415   5.889   1.341  11.035 -0.5244  0.2326 -0.0287
   88SAPS   C12 8416   6.015   1.406  10.883  0.0684  0.6777  0.2810
   88SAPS  H12A 8417   6.015   1.397  10.776  0.7838 -2.0461  0.4788
   88SAPS   C13 8418   6.015   1.558  10.917 -0.6175 -0.2887  0.1300
   88SAPS  O13A 8419   5.910   1.618  10.951 -1.1409 -0.3071  0.2842
   88SAPS  O13B 8420   6.121   1.618  10.883 -0.7179  0.5858 -0.0657
   88SAPS   C11 8421   6.144   1.336  10.955  0.7470 -0.7135 -0.5024
   88SAPS  H11A 8422   6.135   1.359  11.064 -0.6806  0.3214 -0.8203
   88SAPS  H11B 8423   6.231   1.388  10.908 -1.5152  0.6558 -3.2775
   88SAPS     P 8424   6.246   1.116  10.828 -0.1406  0.2166 -0.2679
   88SAPS   O13 8425   6.389   1.133  10.853 -0.4625  0.2866  0.5889
   88SAPS   O14 8426   6.197   0.975  10.814 -0.8275 -0.7447 -0.2097
   88SAPS   O12 8427   6.150   1.193  10.937  0.5501  0.2502  0.8094
   88SAPS   O11 8428   6.205   1.194  10.697 -0.6264  0.6246  0.7920
   88SAPS    C1 8429   6.286   1.304  10.653 -0.7137  0.1580  0.0211
   88SAPS    HA 8430   6.210   1.380  10.624  0.3284  1.0053 -0.5376
   88SAPS    HB 8431   6.352   1.345  10.732 -0.4204  1.4065 -0.8458
   88SAPS    C2 8432   6.369   1.275  10.528  0.5834 -0.2492  0.3498
   88SAPS    HS 8433   6.452   1.347  10.518  0.3577  0.0575  0.6953
   88SAPS   O21 8434   6.276   1.287  10.419  0.1338  0.3682  0.5554
   88SAPS   C21 8435   6.279   1.402  10.357 -0.5394 -0.1792  0.0532
   88SAPS   O22 8436   6.349   1.499  10.391 -0.0624  0.1242 -0.2282
   88SAPS   C22 8437   6.170   1.404  10.248 -0.4769  0.5189 -0.4203
   88SAPS   H2R 8438   6.191   1.323  10.175  2.4052 -0.9500  1.9125
   88SAPS   H2S 8439   6.065   1.394  10.281  0.3179 -1.0133  1.8342
   88SAPS    C3 8440   6.447   1.137  10.544 -0.2022 -0.2487  0.3202
   88SAPS    HX 8441   6.374   1.054  10.557  1.4627 -1.6619  0.9220
   88SAPS    HY 8442   6.491   1.140  10.647 -1.8058  0.8029  0.9825
   88SAPS   O31 8443   6.543   1.108  10.440 -0.1240  0.6567 -0.0744
   88SAPS   C31 8444   6.635   1.020  10.478 -0.1580 -0.3210  0.1028
   88SAPS   O32 8445   6.671   0.986  10.588  0.2329 -0.3885  0.1487
   88SAPS   C32 8446   6.703   0.971  10.344  0.5180  0.0920 -0.2323
   88SAPS   H2X 8447   6.773   0.890  10.375 -0.4327 -1.8785 -2.9981
   88SAPS   H2Y 8448   6.754   1.055  10.292  0.7190  0.0427 -0.1158
   88SAPS   C23 8449   6.188   1.531  10.153  0.3859  0.2278 -0.3155
   88SAPS   H3R 8450   6.284   1.518  10.099  0.9383 -2.0959  1.1340
   88SAPS   H3S 8451   6.194   1.624  10.213  1.9475 -0.1585  0.1563
   88SAPS   C24 8452   6.077   1.545  10.051  0.0295 -0.4959 -0.0027
   88SAPS   H4R 8453   5.984   1.520  10.106  1.1028 -0.5357  1.8162
   88SAPS   H4S 8454   6.076   1.465   9.974  1.6293 -2.0143  1.5195
   88SAPS   C25 8455   6.072   1.686   9.997 -0.1477 -0.4839  0.3231
   88SAPS   H5R 8456   6.021   1.760  10.060  0.4677  1.1130 -1.0267
   88SAPS   C26 8457   6.126   1.721   9.876  0.5981 -0.1255 -0.2848
   88SAPS   H6R 8458   6.122   1.823   9.834  0.9599 -0.0147 -0.0461
   88SAPS   C27 8459   6.178   1.629   9.766 -0.2704 -0.0576 -0.6739
   88SAPS   H7R 8460   6.144   1.676   9.672 -1.8093 -0.4638 -0.3222
   88SAPS   H7S 8461   6.137   1.526   9.769 -0.5511  0.1065  1.9662
   88SAPS   C28 8462   6.323   1.605   9.769  0.1199  0.0916  0.2655
   88SAPS   H8R 8463   6.371   1.636   9.863 -0.7294  0.4953  0.5710
   88SAPS   C29 8464   6.400   1.569   9.665 -0.9554  0.6652  0.6111
   88SAPS   H9R 8465   6.509   1.574   9.683 -1.0827  2.1622  1.0168
   88SAPS  C210 8466   6.369   1.557   9.517  0.3140  0.5566 -0.7358
   88SAPS  H10R 8467   6.458   1.565   9.451  0.8316 -0.9468 -0.2425
   88SAPS  H10S 8468   6.314   1.649   9.488 -0.9998 -0.7264 -2.4130
   88SAPS  C211 8469   6.295   1.433   9.475 -0.4259  0.7387  1.1112
   88SAPS  H11R 8470   6.320   1.338   9.525 -0.6084  0.2991  0.3684
   88SAPS  C212 8471   6.205   1.435   9.368  0.6027  0.3510  0.1993
   88SAPS  H12R 8472   6.144   1.346   9.346  0.7333  0.5494 -0.9520
   88SAPS  C213 8473   6.167   1.547   9.272  0.2824 -0.1739 -0.3853
   88SAPS  H13R 8474   6.117   1.626   9.332  1.3412 -0.0981  0.4204
   88SAPS  H13S 8475   6.085   1.504   9.212 -0.3229  1.2413 -0.5913
   88SAPS  C214 8476   6.276   1.600   9.187  0.6585  0.0223  0.7110
   88SAPS  H14R 8477   6.335   1.531   9.125  0.0215  0.0705  0.0529
   88SAPS  C215 8478   6.311   1.732   9.180  0.8119  0.3168 -0.6292
   88SAPS  H15R 8479   6.391   1.755   9.107  0.4291 -0.5276 -1.3140
   88SAPS  C216 8480   6.240   1.843   9.243 -0.0168 -0.1293 -0.0801
   88SAPS  H16R 8481   6.290   1.871   9.338  0.8279 -0.1284 -0.5204
   88SAPS  H16S 8482   6.133   1.815   9.256 -0.0431  0.7815  1.7815
   88SAPS  C217 8483   6.255   1.966   9.146  0.5921  0.1764 -0.1949
   88SAPS  H17R 8484   6.221   1.934   9.045  2.0473  1.4928 -1.1201
   88SAPS  H17S 8485   6.362   1.982   9.124 -0.2369  1.0182 -3.9314
   88SAPS  C218 8486   6.188   2.090   9.196  0.2248 -0.2952 -0.2119
   88SAPS  H18R 8487   6.235   2.120   9.292 -1.1275  0.2386  0.2989
   88SAPS  H18S 8488   6.082   2.062   9.214  0.5646 -1.8953 -0.5974
   88SAPS  C219 8489   6.206   2.207   9.100  0.5607  1.0128  0.2881
   88SAPS  H19R 8490   6.312   2.226   9.073  1.0204 -0.4515  1.0170
   88SAPS  H19S 8491   6.173   2.297   9.157  0.7712  1.7028 -0.6664
   88SAPS  C220 8492   6.120   2.195   8.977  0.2292  0.2468  0.0209
   88SAPS  H20R 8493   6.127   2.293   8.925  0.3841 -0.1341 -0.6806
   88SAPS  H20S 8494   6.016   2.176   9.009  0.7559 -1.3647  0.8304
   88SAPS  H20T 8495   6.149   2.116   8.905 -2.0118 -1.4237  0.8764
   88SAPS   C33 8496   6.594   0.916  10.239  0.1019 -0.4662 -0.3789
   88SAPS   H3X 8497   6.544   1.008  10.201 -2.6081 -1.2271  1.2279
   88SAPS   H3Y 8498   6.517   0.859  10.295 -1.5607  1.7311 -0.3768
   88SAPS   C34 8499   6.650   0.850  10.114  0.4053  0.3059  0.3758
   88SAPS   H4X 8500   6.563   0.833  10.046  0.7612 -0.0646  0.0051
   88SAPS   H4Y 8501   6.692   0.747  10.124 -0.3283  0.0108  0.4894
   88SAPS   C35 8502   6.744   0.937  10.029 -0.3119 -0.3376 -0.2051
   88SAPS   H5X 8503   6.819   0.983  10.097  0.4074 -3.1119  0.9758
   88SAPS   H5Y 8504   6.681   1.025  10.003  1.3315  1.4299  1.5818
   88SAPS   C36 8505   6.800   0.874   9.903  0.0816  0.1936 -0.2704
   88SAPS   H6X 8506   6.847   0.776   9.928 -0.3658  0.0577  0.0449
   88SAPS   H6Y 8507   6.887   0.940   9.885 -1.4637  2.2010 -0.4781
   88SAPS   C37 8508   6.701   0.863   9.787  1.0800 -0.1682  0.2465
   88SAPS   H7X 8509   6.629   0.946   9.769 -0.0894 -1.0782  0.7287
   88SAPS   H7Y 8510   6.630   0.780   9.806 -0.0545  0.9243  0.8432
   88SAPS   C38 8511   6.763   0.827   9.647  0.8132  0.7653  0.9158
   88SAPS   H8X 8512   6.818   0.733   9.670 -0.4544 -0.2370 -0.0941
   88SAPS   H8Y 8513   6.840   0.906   9.628 -1.3010  2.3377 -1.4949
   88SAPS   C39 8514   6.674   0.797   9.523  0.5777  0.9219  0.2619
   88SAPS   H9X 8515   6.592   0.872   9.518 -0.8928 -0.6923 -0.3862
   88SAPS   H9Y 8516   6.632   0.700   9.558  1.1490  0.0864 -1.3211
   88SAPS  C310 8517   6.750   0.785   9.390 -0.1850  0.4653 -0.3710
   88SAPS  H10X 8518   6.839   0.721   9.409 -0.2503  0.8610  1.3843
   88SAPS  H10Y 8519   6.776   0.891   9.370 -2.7925  1.5000  1.4532
   88SAPS  C311 8520   6.667   0.719   9.274 -0.7716  0.2713  0.5043
   88SAPS  H11X 8521   6.567   0.764   9.292  0.1962  1.9571  1.7806
   88SAPS  H11Y 8522   6.659   0.610   9.292  0.2306 -0.0541 -0.8921
   88SAPS  C312 8523   6.715   0.756   9.136 -0.0773 -0.1376  0.5282
   88SAPS  H12X 8524   6.813   0.708   9.119 -1.0308 -1.0490 -2.7342
   88SAPS  H12Y 8525   6.743   0.863   9.130  0.3369 -0.0695  3.2301
   88SAPS  C313 8526   6.611   0.723   9.020  0.2185  0.6823  0.0160
   88SAPS  H13X 8527   6.532   0.799   9.004  0.8771  1.2236 -0.7271
   88SAPS  H13Y 8528   6.557   0.631   9.049 -1.1335  1.2492 -0.6841
   88SAPS  C314 8529   6.685   0.701   8.884  0.3235 -0.4997  0.1755
   88SAPS  H14X 8530   6.766   0.626   8.900  0.9604  0.3016  0.7801
   88SAPS  H14Y 8531   6.738   0.793   8.852  1.6265 -1.7113 -1.3051
   88SAPS  C315 8532   6.585   0.659   8.775 -0.4541 -0.0603  0.4739
   88SAPS  H15X 8533   6.515   0.744   8.757  0.1874 -0.0770 -2.3672
   88SAPS  H15Y 8534   6.531   0.571   8.814 -0.7746  0.3225  0.8949
   88SAPS  C316 8535   6.650   0.625   8.639  0.2034 -0.0273 -0.1731
   88SAPS  H16X 8536   6.747   0.679   8.636 -0.5190  1.4680  1.6658
   88SAPS  H16Y 8537   6.579   0.670   8.566 -0.2148  0.5893  0.5986
   88SAPS  C317 8538   6.669   0.477   8.599  0.7245 -0.4770 -0.3382
   88SAPS  H17X 8539   6.571   0.427   8.611 -1.0724  2.2136 -2.9824
   88SAPS  H17Y 8540   6.741   0.422   8.662  1.7181  0.8819 -0.2643
   88SAPS  C318 8541   6.704   0.450   8.452 -0.1285  0.0037 -0.8025
   88SAPS  H18X 8542   6.694   0.341   8.433  1.8207  0.0874 -2.4943
   88SAPS  H18Y 8543   6.809   0.476   8.426 -0.3992  1.2887 -0.6235
   88SAPS  H18Z 8544   6.642   0.510   8.383 -4.2672 -1.2114  1.6981
   89SAPS     N 8545   5.353   4.330  11.070  0.3037  0.0075 -0.2015
   89SAPS   HN1 8546   5.412   4.415  11.063  1.4925 -0.9211 -1.6456
   89SAPS   HN2 8547   5.259   4.347  11.027  1.2787  0.6136 -2.1265
   89SAPS   HN3 8548   5.320   4.322  11.168  2.0533 -1.0674  0.3055
   89SAPS   C12 8549   5.406   4.201  11.018 -0.2980  0.3373 -0.5491
   89SAPS  H12A 8550   5.507   4.208  11.054 -0.1753  2.8292 -1.3013
   89SAPS   C13 8551   5.354   4.067  11.078  0.4104 -0.1606  0.3637
   89SAPS  O13A 8552   5.253   4.061  11.149  1.4353 -0.1110  0.1761
   89SAPS  O13B 8553   5.417   3.965  11.036  0.3388 -0.8720 -0.6241
   89SAPS   C11 8554   5.400   4.199  10.867  0.1122 -0.1836 -0.5007
   89SAPS  H11A 8555   5.297   4.181  10.830 -0.1348 -3.5410  1.5685
   89SAPS  H11B 8556   5.450   4.107  10.830 -1.2116 -0.3576 -1.8982
   89SAPS     P 8557   5.560   4.326  10.687 -0.2895  0.1719  0.1134
   89SAPS   O13 8558   5.501   4.430  10.594  0.4383 -0.1222 -0.1207
   89SAPS   O14 8559   5.696   4.348  10.739  0.2419  0.0826  0.8691
   89SAPS   O12 8560   5.463   4.313  10.810  0.5423  0.1256 -0.7476
   89SAPS   O11 8561   5.555   4.189  10.611 -0.3949 -0.1871 -0.2357
   89SAPS    C1 8562   5.460   4.155  10.516  0.5415  0.5413  0.0320
   89SAPS    HA 8563   5.403   4.067  10.554  1.9879  0.0903  1.2165
   89SAPS    HB 8564   5.377   4.226  10.499 -1.0147 -1.7117 -2.1249
   89SAPS    C2 8565   5.506   4.150  10.366 -0.1068  0.1881 -0.0608
   89SAPS    HS 8566   5.418   4.170  10.300 -0.3662  0.1981  0.2890
   89SAPS   O21 8567   5.560   4.021  10.332  0.0015  0.0692  0.2971
   89SAPS   C21 8568   5.484   3.915  10.341 -0.1618  0.4607  0.2816
   89SAPS   O22 8569   5.364   3.905  10.362  0.1445  0.1753  0.2392
   89SAPS   C22 8570   5.567   3.787  10.333 -0.5389 -0.7698 -0.3302
   89SAPS   H2R 8571   5.653   3.794  10.404 -0.7671 -0.7647 -0.0541
   89SAPS   H2S 8572   5.513   3.696  10.366 -2.3241  0.0106 -1.0945
   89SAPS    C3 8573   5.606   4.263  10.320 -0.5080  0.0447 -0.2178
   89SAPS    HX 8574   5.695   4.273  10.385 -0.2617 -3.2347  0.0071
   89SAPS    HY 8575   5.539   4.348  10.347 -0.8794 -0.5718  0.8366
   89SAPS   O31 8576   5.630   4.269  10.178  0.3897 -0.5921  0.7538
   89SAPS   C31 8577   5.736   4.207  10.128 -0.7370 -0.0017 -1.0542
   89SAPS   O32 8578   5.822   4.154  10.193  0.2541  0.1038 -0.0753
   89SAPS   C32 8579   5.729   4.215   9.975  0.3377 -0.3048  0.5291
   89SAPS   H2X 8580   5.744   4.319   9.939 -1.6818 -0.1799 -0.0287
   89SAPS   H2Y 8581   5.625   4.194   9.941  0.3755 -1.1022  0.8977
   89SAPS   C23 8582   5.639   3.758  10.198  0.1072 -0.8050 -0.4304
   89SAPS   H3R 8583   5.706   3.672  10.219  1.9586  0.5456 -0.6165
   89SAPS   H3S 8584   5.701   3.849  10.178 -0.5527 -0.4184 -0.7349
   89SAPS   C24 8585   5.541   3.732  10.078  0.4523  0.1381  0.6923
   89SAPS   H4R 8586   5.455   3.687  10.131 -0.4190  1.0368  0.0440
   89SAPS   H4S 8587   5.589   3.661  10.007 -1.5739 -0.5852  0.0378
   89SAPS   C25 8588   5.508   3.854   9.994 -0.1997 -0.1536 -0.4171
   89SAPS   H5R 8589   5.492   3.944  10.056 -1.6380 -0.2200 -0.6832
   89SAPS   C26 8590   5.482   3.857   9.861  0.7917  0.2993  0.3829
   89SAPS   H6R 8591   5.465   3.956   9.817  0.7058  0.2228  0.2434
   89SAPS   C27 8592   5.474   3.747   9.760  0.1255 -0.2994 -0.8206
   89SAPS   H7R 8593   5.375   3.745   9.710 -0.0747 -1.6018 -0.3973
   89SAPS   H7S 8594   5.477   3.643   9.798  0.5340 -0.1678 -0.4785
   89SAPS   C28 8595   5.582   3.772   9.667 -0.6557 -0.6466 -0.3362
   89SAPS   H8R 8596   5.677   3.752   9.719 -0.8767 -0.0930  0.2991
   89SAPS   C29 8597   5.569   3.816   9.540  0.2480 -0.2402 -0.0788
   89SAPS   H9R 8598   5.659   3.851   9.486  1.6299 -0.1535  2.2215
   89SAPS  C210 8599   5.447   3.854   9.459 -0.1835  0.5612 -0.4099
   89SAPS  H10R 8600   5.469   3.945   9.400 -0.4324  2.0456  1.7532
   89SAPS  H10S 8601   5.372   3.885   9.535 -3.5224 -4.8294 -1.2551
   89SAPS  C211 8602   5.375   3.744   9.394 -1.2411  0.2150 -0.6734
   89SAPS  H11R 8603   5.361   3.663   9.467  0.1552  1.1615  0.6879
   89SAPS  C212 8604   5.328   3.741   9.273 -0.3221  0.1984  0.3862
   89SAPS  H12R 8605   5.275   3.655   9.229  0.4055  0.0925 -0.2897
   89SAPS  C213 8606   5.351   3.841   9.164  0.3125 -0.0663  0.4952
   89SAPS  H13R 8607   5.427   3.918   9.192  0.9231 -0.5992  0.3137
   89SAPS  H13S 8608   5.253   3.885   9.138 -0.2162 -1.9755 -0.7681
   89SAPS  C214 8609   5.416   3.782   9.037  0.8081  0.1446 -0.3144
   89SAPS  H14R 8610   5.497   3.709   9.054  2.3310  0.9364 -3.7726
   89SAPS  C215 8611   5.392   3.825   8.911 -0.0497  0.5228  0.2332
   89SAPS  H15R 8612   5.433   3.761   8.831  3.0410  3.5611 -0.7121
   89SAPS  C216 8613   5.294   3.930   8.866 -0.5113  0.1263  0.0479
   89SAPS  H16R 8614   5.347   4.024   8.838 -0.8144  1.0501  2.4108
   89SAPS  H16S 8615   5.241   3.966   8.957  1.6638 -2.0090  2.2415
   89SAPS  C217 8616   5.187   3.893   8.767  0.0570 -0.6972 -0.3752
   89SAPS  H17R 8617   5.135   3.988   8.743 -1.6465 -1.4653  0.1597
   89SAPS  H17S 8618   5.112   3.834   8.824  0.5679 -0.8206  0.1795
   89SAPS  C218 8619   5.223   3.837   8.627  0.3328  0.0472  0.4853
   89SAPS  H18R 8620   5.131   3.780   8.603  1.4553 -1.2949 -0.7457
   89SAPS  H18S 8621   5.299   3.757   8.637  0.4620  0.0548 -0.4403
   89SAPS  C219 8622   5.263   3.936   8.520 -0.8439 -0.4936  0.0859
   89SAPS  H19R 8623   5.352   3.995   8.549 -1.9731  0.6433  1.3470
   89SAPS  H19S 8624   5.189   4.019   8.519  1.1256  1.3170  1.8993
   89SAPS  C220 8625   5.274   3.882   8.377 -0.1303 -0.8331  1.0416
   89SAPS  H20R 8626   5.339   3.947   8.314 -0.0072  0.4107  2.4173
   89SAPS  H20S 8627   5.176   3.874   8.326  1.1580 -0.6812 -1.5466
   89SAPS  H20T 8628   5.326   3.783   8.375  0.9047 -0.3132  1.4213
   89SAPS   C33 8629   5.829   4.126   9.898  0.2979 -0.4665 -0.1362
   89SAPS   H3X 8630   5.793   4.022   9.888 -1.9943  0.0896  1.8152
   89SAPS   H3Y 8631   5.923   4.117   9.957 -0.3508  0.4057  1.0607
   89SAPS   C34 8632   5.878   4.174   9.754 -0.2251 -0.6805  0.0266
   89SAPS   H4X 8633   5.957   4.102   9.724  1.1675  0.4441  0.8833
   89SAPS   H4Y 8634   5.935   4.270   9.760 -1.3974  0.1171 -1.2382
   89SAPS   C35 8635   5.775   4.184   9.649  0.0462 -0.7089  0.2990
   89SAPS   H5X 8636   5.699   4.260   9.677 -2.7406 -2.5298 -2.0063
   89SAPS   H5Y 8637   5.724   4.086   9.660  0.6549 -1.1008 -0.3441
   89SAPS   C36 8638   5.828   4.203   9.506  0.1473 -0.3353  0.4468
   89SAPS   H6X 8639   5.897   4.125   9.466  0.6651  0.0446  0.6000
   89SAPS   H6Y 8640   5.884   4.297   9.489 -0.1926 -0.3146 -0.6112
   89SAPS   C37 8641   5.712   4.190   9.400 -0.1552 -0.0112 -0.3605
   89SAPS   H7X 8642   5.625   4.250   9.432  0.8128  1.5694 -0.6652
   89SAPS   H7Y 8643   5.680   4.083   9.401 -0.8624  0.1693  3.9593
   89SAPS   C38 8644   5.748   4.232   9.252  0.3924  0.1206  0.5365
   89SAPS   H8X 8645   5.831   4.173   9.209 -1.3918 -2.2514  0.2568
   89SAPS   H8Y 8646   5.784   4.337   9.253  2.9792 -0.6895 -2.5816
   89SAPS   C39 8647   5.623   4.231   9.161  0.0301 -0.5346 -0.0221
   89SAPS   H9X 8648   5.575   4.331   9.175  2.2037  0.9214 -2.5113
   89SAPS   H9Y 8649   5.548   4.150   9.174 -2.0807  1.1342 -1.4191
   89SAPS  C310 8650   5.661   4.247   9.008 -0.6240  0.1989 -0.5028
   89SAPS  H10X 8651   5.703   4.154   8.964  1.3542 -0.3622  2.3566
   89SAPS  H10Y 8652   5.746   4.319   9.015 -1.5695  1.2628  0.0499
   89SAPS  C311 8653   5.542   4.293   8.919 -0.6972  0.2280  0.1456
   89SAPS  H11X 8654   5.496   4.389   8.951 -0.5130 -0.5695  2.9057
   89SAPS  H11Y 8655   5.464   4.214   8.930  2.5932 -2.9149  1.9624
   89SAPS  C312 8656   5.575   4.296   8.776  0.3821 -0.2638  0.0764
   89SAPS  H12X 8657   5.633   4.203   8.758  0.5975 -0.2857  0.8760
   89SAPS  H12Y 8658   5.651   4.376   8.759 -1.9300  1.8471 -0.5086
   89SAPS  C313 8659   5.466   4.316   8.672 -0.0672 -0.8628  0.1881
   89SAPS  H13X 8660   5.389   4.387   8.708  0.8070  0.0733  0.2262
   89SAPS  H13Y 8661   5.412   4.219   8.664  1.2007 -1.8430  2.7947
   89SAPS  C314 8662   5.519   4.367   8.540  0.3911 -0.4331 -0.3459
   89SAPS  H14X 8663   5.583   4.291   8.491 -2.7383 -2.6114 -1.1269
   89SAPS  H14Y 8664   5.587   4.452   8.564  0.2899 -0.6775  0.8607
   89SAPS  C315 8665   5.411   4.403   8.442  0.3622 -0.0272  0.0431
   89SAPS  H15X 8666   5.465   4.453   8.358 -0.8705  0.1812 -0.6465
   89SAPS  H15Y 8667   5.330   4.468   8.483 -1.0293 -1.0353 -1.0565
   89SAPS  C316 8668   5.347   4.273   8.373  0.7615 -0.9047  0.5716
   89SAPS  H16X 8669   5.288   4.211   8.444 -0.5094  0.3923  0.6871
   89SAPS  H16Y 8670   5.431   4.210   8.339  2.6660  0.9381  1.7078
   89SAPS  C317 8671   5.273   4.314   8.250  0.3494  0.6508 -0.0561
   89SAPS  H17X 8672   5.340   4.376   8.187 -2.8817  2.1471 -2.1741
   89SAPS  H17Y 8673   5.185   4.378   8.273 -0.9326 -0.5821 -1.3789
   89SAPS  C318 8674   5.239   4.202   8.152  0.2768 -0.1345 -0.1846
   89SAPS  H18X 8675   5.198   4.232   8.053  0.2502 -0.1520 -0.1792
   89SAPS  H18Y 8676   5.168   4.128   8.195 -0.7722  0.2938 -1.1548
   89SAPS  H18Z 8677   5.337   4.156   8.128  0.0376 -0.6285 -0.2145
   90SAPS     N 8678   1.183   3.930  10.620 -0.2679 -0.1837 -0.3168
   90SAPS   HN1 8679   1.085   3.966  10.615 -1.0811 -2.2000  0.4648
   90SAPS   HN2 8680   1.244   4.011  10.642 -0.7806  0.1701 -0.1918
   90SAPS   HN3 8681   1.216   3.894  10.528 -0.9661  1.4698 -1.2326
   90SAPS   C12 8682   1.179   3.835  10.732  0.0443 -0.6768  0.2986
   90SAPS  H12A 8683   1.279   3.801  10.753 -0.6971 -2.0758  1.6156
   90SAPS   C13 8684   1.116   3.892  10.862 -0.6253 -0.1544  0.8762
   90SAPS  O13A 8685   1.073   4.010  10.858 -0.3581 -0.4057 -0.2208
   90SAPS  O13B 8686   1.088   3.826  10.963 -0.5256 -0.1571  0.7713
   90SAPS   C11 8687   1.104   3.711  10.693 -0.3829 -0.0622  0.4260
   90SAPS  H11A 8688   1.108   3.648  10.784  1.3362 -1.8023 -0.8173
   90SAPS  H11B 8689   1.157   3.651  10.615  2.4028  0.2639  2.0097
   90SAPS     P 8690   0.879   3.613  10.615 -0.4085 -0.2867 -0.1783
   90SAPS   O13 8691   0.934   3.485  10.660  0.1997  0.0762  0.2538
   90SAPS   O14 8692   0.742   3.643  10.655 -0.3693 -0.6818  0.0544
   90SAPS   O12 8693   0.969   3.738  10.646  0.6291 -0.3540 -0.4079
   90SAPS   O11 8694   0.870   3.595  10.456  0.5170 -0.4632  0.2324
   90SAPS    C1 8695   0.870   3.704  10.369 -0.0437 -1.1254  0.5224
   90SAPS    HA 8696   0.789   3.772  10.401  0.2544 -0.2737 -0.5257
   90SAPS    HB 8697   0.973   3.747  10.364 -1.6996  2.9571  0.1526
   90SAPS    C2 8698   0.839   3.653  10.218  0.1204  0.0792 -0.2564
   90SAPS    HS 8699   0.740   3.607  10.240 -1.0501  2.4166 -0.4052
   90SAPS   O21 8700   0.941   3.563  10.164 -0.1085 -0.3324  0.2763
   90SAPS   C21 8701   0.891   3.463  10.091  0.5066 -0.8333 -0.3617
   90SAPS   O22 8702   0.776   3.443  10.068 -0.2924 -0.3105  0.5589
   90SAPS   C22 8703   1.008   3.376  10.038  0.1339  0.2550  0.6588
   90SAPS   H2R 8704   1.103   3.433  10.027  0.2352  0.2216  1.3509
   90SAPS   H2S 8705   1.035   3.306  10.120 -0.9250  0.4209  1.1541
   90SAPS    C3 8706   0.826   3.769  10.124 -0.0664  0.0847 -0.9218
   90SAPS    HX 8707   0.925   3.813  10.099 -1.3975  4.2788  0.6750
   90SAPS    HY 8708   0.771   3.847  10.181 -3.0816 -2.7744  0.2447
   90SAPS   O31 8709   0.748   3.744  10.006  0.2118  0.4928 -0.2910
   90SAPS   C31 8710   0.615   3.740  10.013  0.4576  0.6735  0.0513
   90SAPS   O32 8711   0.549   3.746  10.113 -0.8907  0.1545 -0.3080
   90SAPS   C32 8712   0.559   3.713   9.873 -0.0011 -0.2503 -0.3047
   90SAPS   H2X 8713   0.605   3.790   9.807  2.2016 -1.1540  0.1023
   90SAPS   H2Y 8714   0.449   3.719   9.869 -0.0153  0.8995  1.2589
   90SAPS   C23 8715   0.963   3.307   9.906  0.0701 -0.0357  0.2507
   90SAPS   H3R 8716   0.858   3.268   9.907  0.0317 -0.1623 -3.0510
   90SAPS   H3S 8717   1.025   3.220   9.875  0.2954  0.2063  0.0323
   90SAPS   C24 8718   0.936   3.391   9.782  0.2645  0.5413  0.6997
   90SAPS   H4R 8719   0.897   3.491   9.810  1.2659  0.9791  0.5610
   90SAPS   H4S 8720   0.872   3.334   9.712  0.5799  1.5402 -0.4284
   90SAPS   C25 8721   1.070   3.402   9.713 -0.4850 -0.1370 -0.6904
   90SAPS   H5R 8722   1.152   3.411   9.785 -0.2177  1.6662 -1.1860
   90SAPS   C26 8723   1.098   3.401   9.582 -0.6208 -0.4842  0.2516
   90SAPS   H6R 8724   1.201   3.412   9.545 -1.4907  0.1269 -2.0834
   90SAPS   C27 8725   0.983   3.390   9.483 -0.4490 -0.5418  0.3678
   90SAPS   H7R 8726   1.005   3.467   9.405 -0.4513  2.5376  3.2784
   90SAPS   H7S 8727   0.884   3.419   9.524  0.1301  1.4337  0.4486
   90SAPS   C28 8728   0.974   3.252   9.414 -0.5566  0.3709 -0.4372
   90SAPS   H8R 8729   0.949   3.175   9.489  1.7548 -1.1476 -1.1794
   90SAPS   C29 8730   1.005   3.226   9.288  0.0773  0.0275 -0.2826
   90SAPS   H9R 8731   0.992   3.122   9.252  1.8580 -0.4317  0.3649
   90SAPS  C210 8732   1.039   3.324   9.182  0.0683 -1.0774  0.2990
   90SAPS  H10R 8733   1.115   3.388   9.231  2.2308 -2.6240 -0.9859
   90SAPS  H10S 8734   0.959   3.400   9.168  1.4746  0.8529  2.3055
   90SAPS  C211 8735   1.095   3.269   9.055 -0.1260  0.3745  0.8916
   90SAPS  H11R 8736   1.196   3.227   9.060  0.3656  1.3378 -0.7064
   90SAPS  C212 8737   1.036   3.263   8.934 -0.3787  0.0525  0.0697
   90SAPS  H12R 8738   1.095   3.240   8.844  1.5315 -1.4768  1.6513
   90SAPS  C213 8739   0.893   3.311   8.909  0.3596  0.0720  0.1146
   90SAPS  H13R 8740   0.854   3.389   8.977  2.1528 -0.8168  2.2017
   90SAPS  H13S 8741   0.824   3.224   8.917 -0.2257  0.3489 -1.6462
   90SAPS  C214 8742   0.862   3.349   8.768  0.3905 -0.9353 -0.1201
   90SAPS  H14R 8743   0.797   3.286   8.706 -2.3798  0.5315  1.1915
   90SAPS  C215 8744   0.904   3.465   8.713 -0.4414  0.6759  0.3567
   90SAPS  H15R 8745   0.874   3.494   8.611  1.9417  1.5059 -0.1415
   90SAPS  C216 8746   0.992   3.571   8.770 -0.0794 -0.0445  0.5839
   90SAPS  H16R 8747   1.083   3.583   8.706 -0.6373 -0.0585 -0.2155
   90SAPS  H16S 8748   1.032   3.533   8.866  0.8575 -4.2589 -1.3466
   90SAPS  C217 8749   0.933   3.711   8.769  0.5200 -0.4175  0.3045
   90SAPS  H17R 8750   0.833   3.711   8.819  0.8148  1.7363  0.9311
   90SAPS  H17S 8751   0.923   3.773   8.678 -0.4143  2.9243  2.5922
   90SAPS  C218 8752   1.018   3.800   8.866 -0.7106  0.0201 -0.4646
   90SAPS  H18R 8753   1.120   3.824   8.828  0.0583 -1.0740  0.8696
   90SAPS  H18S 8754   1.029   3.750   8.964  0.3190 -0.6796 -0.9296
   90SAPS  C219 8755   0.957   3.944   8.894 -0.0898  0.2453 -0.3658
   90SAPS  H19R 8756   0.898   3.973   8.805  3.0627 -1.7282 -3.2013
   90SAPS  H19S 8757   1.045   4.012   8.895 -0.3138  0.5284  0.9523
   90SAPS  C220 8758   0.879   3.957   9.024  0.0907  0.1679  0.5804
   90SAPS  H20R 8759   0.956   3.961   9.104  1.1449 -0.0287 -0.4010
   90SAPS  H20S 8760   0.820   3.865   9.039 -1.6241  1.0990 -0.2921
   90SAPS  H20T 8761   0.817   4.047   9.005 -1.0679 -0.5120  1.0821
   90SAPS   C33 8762   0.602   3.568   9.816 -0.2641  0.3790  0.6750
   90SAPS   H3X 8763   0.531   3.497   9.864 -0.5578  0.3478  0.1944
   90SAPS   H3Y 8764   0.707   3.557   9.852 -0.0689 -0.1914 -0.0426
   90SAPS   C34 8765   0.581   3.562   9.664  0.8906  0.1395 -0.4970
   90SAPS   H4X 8766   0.479   3.604   9.652 -0.6346 -2.3998  2.8616
   90SAPS   H4Y 8767   0.592   3.456   9.633  0.6910 -0.2562  0.7656
   90SAPS   C35 8768   0.677   3.657   9.584  0.6184  0.1562  0.3675
   90SAPS   H5X 8769   0.779   3.644   9.625  0.6154 -1.4478 -0.1040
   90SAPS   H5Y 8770   0.649   3.764   9.590  1.0039  0.3592 -1.2908
   90SAPS   C36 8771   0.658   3.610   9.436  0.0001  0.1127 -0.1138
   90SAPS   H6X 8772   0.562   3.647   9.392  0.5648  2.6824  0.7074
   90SAPS   H6Y 8773   0.661   3.500   9.424 -2.5818 -0.1227  0.9997
   90SAPS   C37 8774   0.761   3.670   9.341 -0.1123 -0.1106 -0.0433
   90SAPS   H7X 8775   0.859   3.645   9.387 -0.7810 -1.8427  0.4513
   90SAPS   H7Y 8776   0.744   3.779   9.356  1.7940  0.0459  1.0786
   90SAPS   C38 8777   0.756   3.623   9.193 -0.0490 -0.1945 -0.3154
   90SAPS   H8X 8778   0.759   3.512   9.188  0.8594 -0.2145  0.5615
   90SAPS   H8Y 8779   0.852   3.646   9.143 -1.0396  0.4420 -1.9762
   90SAPS   C39 8780   0.635   3.680   9.115  0.3163  0.3192 -0.3887
   90SAPS   H9X 8781   0.637   3.792   9.113  2.1989  0.3327  0.4461
   90SAPS   H9Y 8782   0.543   3.650   9.168  1.2415 -0.9586  0.5288
   90SAPS  C310 8783   0.622   3.640   8.966  0.2047  0.1328  0.4050
   90SAPS  H10X 8784   0.701   3.564   8.949 -1.0197 -0.7055 -1.7445
   90SAPS  H10Y 8785   0.655   3.723   8.901 -1.4386 -0.0577 -0.7120
   90SAPS  C311 8786   0.487   3.583   8.917  0.5399 -0.0798  0.2448
   90SAPS  H11X 8787   0.400   3.652   8.912 -1.1220 -1.9486  2.3485
   90SAPS  H11Y 8788   0.448   3.495   8.973 -0.3435  0.5583  0.6360
   90SAPS  C312 8789   0.509   3.525   8.769  0.0293 -0.0105 -0.3716
   90SAPS  H12X 8790   0.417   3.476   8.732  0.5721 -1.5721  0.2941
   90SAPS  H12Y 8791   0.596   3.456   8.765  0.7552  0.9685 -1.7875
   90SAPS  C313 8792   0.556   3.633   8.672  0.4890  0.2683  0.1545
   90SAPS  H13X 8793   0.565   3.587   8.571  0.3951 -1.0201  0.7203
   90SAPS  H13Y 8794   0.659   3.662   8.700  0.3130 -0.2084  1.2973
   90SAPS  C314 8795   0.487   3.772   8.666  0.0727  0.9409 -0.0675
   90SAPS  H14X 8796   0.538   3.839   8.740  0.8044  0.3345 -0.0158
   90SAPS  H14Y 8797   0.380   3.763   8.692  0.4244  2.1296  1.9414
   90SAPS  C315 8798   0.498   3.840   8.530  0.0507 -0.4082 -0.8688
   90SAPS  H15X 8799   0.435   3.932   8.529 -2.8028 -2.2809  0.3597
   90SAPS  H15Y 8800   0.451   3.785   8.446 -0.2432 -1.7846  0.1879
   90SAPS  C316 8801   0.641   3.881   8.488  0.3437 -0.2389  0.5899
   90SAPS  H16X 8802   0.712   3.799   8.512  0.1723 -0.9479 -1.2493
   90SAPS  H16Y 8803   0.669   3.973   8.542 -1.3832  1.1953 -0.8892
   90SAPS  C317 8804   0.658   3.919   8.339 -0.1457  0.1691  0.8719
   90SAPS  H17X 8805   0.760   3.960   8.329 -0.5937  1.1878  0.3307
   90SAPS  H17Y 8806   0.588   4.000   8.310 -2.1087 -1.4697  0.9008
   90SAPS  C318 8807   0.646   3.798   8.239 -0.0045 -0.1929  0.9770
   90SAPS  H18X 8808   0.650   3.842   8.137 -2.6264 -3.1100 -0.4817
   90SAPS  H18Y 8809   0.552   3.742   8.262 -1.0854  2.1424  2.4241
   90SAPS  H18Z 8810   0.728   3.725   8.257 -0.5271 -1.2524 -0.7892
   91SAPS     N 8811   5.823   2.406   5.821  0.1027 -0.1374  0.7474
   91SAPS   HN1 8812   5.887   2.396   5.903  1.2627 -0.8012 -0.2173
   91SAPS   HN2 8813   5.873   2.431   5.733 -0.0622 -0.3247  0.6002
   91SAPS   HN3 8814   5.751   2.477   5.845  0.6862  0.1252  1.7472
   91SAPS   C12 8815   5.756   2.276   5.789  0.1809  0.7349 -0.3316
   91SAPS  H12A 8816   5.654   2.298   5.761  0.5422  0.6168 -1.8011
   91SAPS   C13 8817   5.833   2.171   5.699 -0.1925 -0.4731  0.3067
   91SAPS  O13A 8818   5.921   2.222   5.627  0.4191  0.0802  0.1416
   91SAPS  O13B 8819   5.784   2.058   5.669  0.5242  0.2313  0.1760
   91SAPS   C11 8820   5.725   2.210   5.927  0.2352 -0.1275 -0.4127
   91SAPS  H11A 8821   5.666   2.117   5.910 -0.4125  0.0577  0.7724
   91SAPS  H11B 8822   5.662   2.281   5.985 -0.0357 -0.6972 -0.0068
   91SAPS     P 8823   5.839   2.062   6.106 -0.2806  0.2243  0.6539
   91SAPS   O13 8824   5.704   2.061   6.168  0.6290 -0.6889 -0.2060
   91SAPS   O14 8825   5.891   1.934   6.049 -0.1480 -0.1090  0.3499
   91SAPS   O12 8826   5.845   2.181   5.995 -0.4068 -0.5889  0.2433
   91SAPS   O11 8827   5.945   2.113   6.208 -0.9484  0.4863 -0.5507
   91SAPS    C1 8828   5.924   2.228   6.288  0.2581 -0.5889  0.2189
   91SAPS    HA 8829   6.005   2.302   6.274 -1.1494  0.8644 -0.4123
   91SAPS    HB 8830   5.833   2.287   6.262  0.7402  0.3086  0.5647
   91SAPS    C2 8831   5.924   2.197   6.442  0.1210 -0.2278 -0.2349
   91SAPS    HS 8832   6.020   2.149   6.473 -0.4396 -0.5668  1.0135
   91SAPS   O21 8833   5.819   2.105   6.476  0.2651  0.2260 -1.2514
   91SAPS   C21 8834   5.840   1.972   6.457  0.4258 -0.0043 -0.1799
   91SAPS   O22 8835   5.946   1.927   6.418  0.1434 -0.3140 -0.4675
   91SAPS   C22 8836   5.716   1.894   6.496  0.0106 -0.4346 -0.1483
   91SAPS   H2R 8837   5.660   1.944   6.578  1.5541  0.0627  0.6310
   91SAPS   H2S 8838   5.646   1.896   6.410  0.2673  2.4392 -0.3346
   91SAPS    C3 8839   5.907   2.331   6.513 -0.0254 -0.3400  0.5618
   91SAPS    HX 8840   5.812   2.379   6.482  0.3417 -0.7854 -1.3393
   91SAPS    HY 8841   5.993   2.398   6.491  0.5751 -0.4152  2.5962
   91SAPS   O31 8842   5.924   2.309   6.649 -0.5195  0.8005 -0.6827
   91SAPS   C31 8843   5.825   2.294   6.729 -0.1641  1.1430 -0.3923
   91SAPS   O32 8844   5.703   2.291   6.712 -0.5043  0.1708 -0.0205
   91SAPS   C32 8845   5.892   2.263   6.859  0.5697 -0.7665  0.3059
   91SAPS   H2X 8846   5.990   2.214   6.844  0.1344 -1.6876  0.4397
   91SAPS   H2Y 8847   5.840   2.185   6.919  1.2809 -1.8724 -0.5097
   91SAPS   C23 8848   5.739   1.750   6.534 -0.3721 -0.1322 -0.3326
   91SAPS   H3R 8849   5.814   1.712   6.461  1.5032 -0.3443  1.6703
   91SAPS   H3S 8850   5.644   1.696   6.516  0.0580 -0.8096 -0.6204
   91SAPS   C24 8851   5.785   1.730   6.674 -0.6728 -0.0068  0.3921
   91SAPS   H4R 8852   5.721   1.788   6.745  1.8657  0.3964  2.4671
   91SAPS   H4S 8853   5.881   1.786   6.684 -1.1481  1.3901 -2.3613
   91SAPS   C25 8854   5.802   1.578   6.710  0.1246 -0.5052 -0.2246
   91SAPS   H5R 8855   5.898   1.537   6.674  0.9996  0.1156  1.3691
   91SAPS   C26 8856   5.730   1.509   6.801  0.0948 -0.0801 -0.7253
   91SAPS   H6R 8857   5.743   1.401   6.813  0.9493 -0.1767 -2.2874
   91SAPS   C27 8858   5.618   1.562   6.888  0.4706 -0.3193 -0.3865
   91SAPS   H7R 8859   5.599   1.669   6.868  0.9123  0.1974  1.8045
   91SAPS   H7S 8860   5.641   1.561   6.997 -0.7501  2.2984 -0.0681
   91SAPS   C28 8861   5.494   1.489   6.851 -0.6880 -0.5970  0.4787
   91SAPS   H8R 8862   5.498   1.440   6.752 -1.1521  0.6932 -0.1865
   91SAPS   C29 8863   5.375   1.478   6.918 -0.2261 -0.0125  0.3774
   91SAPS   H9R 8864   5.302   1.416   6.863  1.0712  0.5146 -2.0151
   91SAPS  C210 8865   5.338   1.537   7.059 -0.8855 -0.2231  0.3332
   91SAPS  H10R 8866   5.330   1.648   7.054  0.2745 -0.0156  2.6235
   91SAPS  H10S 8867   5.422   1.530   7.132 -0.1379  0.8350 -0.3997
   91SAPS  C211 8868   5.208   1.480   7.110  0.0554  0.1630 -0.3920
   91SAPS  H11R 8869   5.155   1.406   7.048 -2.4249  2.4685 -1.1228
   91SAPS  C212 8870   5.161   1.516   7.231 -0.2702 -0.2425  0.1308
   91SAPS  H12R 8871   5.063   1.471   7.254  0.1992 -1.2841  0.0931
   91SAPS  C213 8872   5.220   1.619   7.324  0.2469 -0.5221 -0.1840
   91SAPS  H13R 8873   5.147   1.696   7.357 -0.8868 -0.7443 -2.0668
   91SAPS  H13S 8874   5.306   1.670   7.274  1.0216  2.8474  4.2801
   91SAPS  C214 8875   5.286   1.553   7.444 -0.5924 -0.1157  0.1512
   91SAPS  H14R 8876   5.371   1.486   7.423 -0.2867 -1.2566  4.6799
   91SAPS  C215 8877   5.270   1.562   7.582 -0.5362 -0.3045  0.7837
   91SAPS  H15R 8878   5.341   1.502   7.640  1.0959  0.3679 -0.4805
   91SAPS  C216 8879   5.172   1.636   7.659 -0.2702  0.2903 -0.3822
   91SAPS  H16R 8880   5.132   1.568   7.737  0.5758 -0.1400 -0.3141
   91SAPS  H16S 8881   5.088   1.668   7.594 -0.8239  0.1571  0.2588
   91SAPS  C217 8882   5.220   1.769   7.728  0.3751 -0.3496 -0.1655
   91SAPS  H17R 8883   5.312   1.746   7.788  0.1026  3.1318  1.7414
   91SAPS  H17S 8884   5.132   1.797   7.790  0.8241 -1.6111  1.0944
   91SAPS  C218 8885   5.248   1.897   7.638  0.2405  0.0565  0.9434
   91SAPS  H18R 8886   5.157   1.922   7.579  1.2857 -0.2433 -0.8475
   91SAPS  H18S 8887   5.322   1.861   7.563 -1.4531  0.2856 -0.8855
   91SAPS  C219 8888   5.297   2.019   7.713 -0.1369 -0.4360  0.4147
   91SAPS  H19R 8889   5.342   2.100   7.652 -2.1409 -1.1460 -2.1004
   91SAPS  H19S 8890   5.364   1.985   7.795 -0.7426 -0.2036  1.0073
   91SAPS  C220 8891   5.187   2.097   7.790  0.1442  0.1829  0.1313
   91SAPS  H20R 8892   5.103   2.111   7.720 -1.0513 -0.4040  1.4351
   91SAPS  H20S 8893   5.224   2.198   7.817  0.5752 -0.0438  0.4131
   91SAPS  H20T 8894   5.155   2.039   7.879  3.3453 -0.5789  0.8489
   91SAPS   C33 8895   5.902   2.395   6.945 -0.0881  0.0545  0.0220
   91SAPS   H3X 8896   5.805   2.449   6.952 -0.6131 -0.6668 -1.4084
   91SAPS   H3Y 8897   5.972   2.461   6.888  0.4181 -0.6317 -0.1580
   91SAPS   C34 8898   5.957   2.370   7.086  0.1015  0.2105  0.0730
   91SAPS   H4X 8899   5.973   2.473   7.126  1.1496 -0.0869  0.4093
   91SAPS   H4Y 8900   6.055   2.320   7.075  0.3684  0.6654  0.3349
   91SAPS   C35 8901   5.856   2.299   7.169  0.1020  0.5754  0.0504
   91SAPS   H5X 8902   5.818   2.205   7.123  1.1105  1.9617 -3.8042
   91SAPS   H5Y 8903   5.772   2.370   7.184 -1.7979 -1.2473 -1.6331
   91SAPS   C36 8904   5.908   2.275   7.303 -0.3255 -0.4044 -0.0111
   91SAPS   H6X 8905   5.952   2.367   7.347 -1.6740  1.0474 -1.5908
   91SAPS   H6Y 8906   5.984   2.194   7.304  0.2251  0.0376 -2.9772
   91SAPS   C37 8907   5.798   2.240   7.415  0.5275  0.6313  0.0385
   91SAPS   H7X 8908   5.737   2.153   7.381  0.8042  1.6762 -3.2621
   91SAPS   H7Y 8909   5.743   2.337   7.412 -0.5204  0.1424  2.5018
   91SAPS   C38 8910   5.855   2.211   7.550  0.3161 -0.0815 -0.3887
   91SAPS   H8X 8911   5.913   2.301   7.578 -1.2978  0.1513  2.3273
   91SAPS   H8Y 8912   5.916   2.120   7.530 -2.5650 -2.2350  0.2633
   91SAPS   C39 8913   5.749   2.199   7.665  0.4457  0.6908  0.9266
   91SAPS   H9X 8914   5.731   2.092   7.690 -1.2941  0.8536  0.4369
   91SAPS   H9Y 8915   5.650   2.244   7.640 -0.1511  0.0889  2.1394
   91SAPS  C310 8916   5.798   2.275   7.793 -0.0231 -0.4674 -1.1372
   91SAPS  H10X 8917   5.793   2.381   7.759  0.0813  1.2364  3.8287
   91SAPS  H10Y 8918   5.903   2.248   7.818  0.5649  2.0732 -0.7955
   91SAPS  C311 8919   5.705   2.251   7.914  0.3115 -0.2979 -1.2717
   91SAPS  H11X 8920   5.602   2.275   7.880  0.6246  4.1039  0.4949
   91SAPS  H11Y 8921   5.735   2.334   7.982 -2.2604  2.5056 -3.4153
   91SAPS  C312 8922   5.722   2.116   7.986  0.3847  0.1499  0.7050
   91SAPS  H12X 8923   5.827   2.113   8.024  1.7941  1.9134 -2.7718
   91SAPS  H12Y 8924   5.701   2.031   7.917  0.9329 -0.2187  0.9845
   91SAPS  C313 8925   5.625   2.089   8.100  0.0770 -0.8156 -0.7564
   91SAPS  H13X 8926   5.660   2.157   8.181 -1.6944  0.1219 -0.7641
   91SAPS  H13Y 8927   5.643   1.982   8.124  0.4547 -0.7323 -0.6719
   91SAPS  C314 8928   5.482   2.121   8.049 -0.3698 -0.3869  0.6257
   91SAPS  H14X 8929   5.474   2.070   7.951  0.3479 -0.3709  0.5540
   91SAPS  H14Y 8930   5.474   2.231   8.050  0.7999 -0.2894  1.4164
   91SAPS  C315 8931   5.368   2.057   8.127 -0.2829 -0.4847 -0.2332
   91SAPS  H15X 8932   5.278   2.093   8.073  0.2423 -0.0439 -0.8239
   91SAPS  H15Y 8933   5.358   2.108   8.225  1.3866 -1.0220  0.2359
   91SAPS  C316 8934   5.368   1.903   8.140  0.3035  0.2016  0.0835
   91SAPS  H16X 8935   5.469   1.870   8.173  0.7362 -0.1960 -1.5950
   91SAPS  H16Y 8936   5.351   1.864   8.038 -1.0734  1.4283 -0.1742
   91SAPS  C317 8937   5.274   1.852   8.253  0.0069 -0.3864 -0.5936
   91SAPS  H17X 8938   5.294   1.916   8.341 -0.7919 -0.5375 -0.2975
   91SAPS  H17Y 8939   5.301   1.749   8.285 -1.7162 -0.3391  1.0999
   91SAPS  C318 8940   5.121   1.860   8.214 -0.1572  0.0366  0.8003
   91SAPS  H18X 8941   5.065   1.801   8.290 -3.2185  1.6648 -0.0678
   91SAPS  H18Y 8942   5.103   1.842   8.106 -0.6206  2.7347  0.3845
   91SAPS  H18Z 8943   5.077   1.960   8.235 -0.5694  0.1492 -0.5521
   92SAPS     N 8944   5.208   6.644   6.223  0.2063 -0.1485 -0.4623
   92SAPS   HN1 8945   5.150   6.576   6.171  2.5330 -1.0862 -1.8918
   92SAPS   HN2 8946   5.150   6.718   6.267 -0.1264 -0.4436 -0.4034
   92SAPS   HN3 8947   5.268   6.692   6.152 -0.0452  1.2679  0.2504
   92SAPS   C12 8948   5.296   6.585   6.326  0.2269 -0.2923  0.0119
   92SAPS  H12A 8949   5.312   6.483   6.294 -3.1878 -0.6307 -0.8002
   92SAPS   C13 8950   5.430   6.663   6.346 -0.9060  0.4519  0.2053
   92SAPS  O13A 8951   5.462   6.769   6.285 -0.5613  0.4083 -0.1097
   92SAPS  O13B 8952   5.515   6.623   6.433  0.1792 -0.2827 -0.0550
   92SAPS   C11 8953   5.225   6.583   6.465 -0.1912  0.4649 -0.6982
   92SAPS  H11A 8954   5.193   6.686   6.490 -1.3749 -0.6743  2.7662
   92SAPS  H11B 8955   5.284   6.536   6.547 -2.4103 -1.2162 -0.0133
   92SAPS     P 8956   4.958   6.532   6.508 -0.3364  0.1643 -0.1133
   92SAPS   O13 8957   4.952   6.678   6.524  0.1586 -0.1997  0.1849
   92SAPS   O14 8958   4.862   6.475   6.416 -0.0996 -0.4105 -0.0669
   92SAPS   O12 8959   5.106   6.500   6.459 -0.4536  0.2831 -0.0642
   92SAPS   O11 8960   4.956   6.455   6.650 -0.0566  0.3615 -0.2764
   92SAPS    C1 8961   4.978   6.318   6.671  0.0465  0.3507  0.4022
   92SAPS    HA 8962   4.885   6.261   6.693  1.0525 -1.0749  1.0685
   92SAPS    HB 8963   5.021   6.265   6.583 -0.2314 -0.4763  0.7509
   92SAPS    C2 8964   5.081   6.299   6.788  0.5164 -0.1932 -0.7830
   92SAPS    HS 8965   5.086   6.191   6.816  0.4366  0.3532  1.4126
   92SAPS   O21 8966   5.037   6.367   6.902 -0.1384 -0.4391  0.0584
   92SAPS   C21 8967   4.916   6.366   6.948  0.4981  0.1696 -0.0239
   92SAPS   O22 8968   4.826   6.292   6.919  0.8704 -0.6076 -0.5588
   92SAPS   C22 8969   4.916   6.464   7.072 -0.8171 -0.2448  0.0398
   92SAPS   H2R 8970   5.018   6.468   7.118 -0.3678  1.6427 -1.0783
   92SAPS   H2S 8971   4.888   6.564   7.032  2.6606  0.3779 -1.0177
   92SAPS    C3 8972   5.222   6.344   6.750 -0.2917 -0.1249 -0.6880
   92SAPS    HX 8973   5.232   6.455   6.753 -1.2912  0.0486 -2.7634
   92SAPS    HY 8974   5.260   6.309   6.651  1.4710  4.2120 -1.6561
   92SAPS   O31 8975   5.303   6.280   6.846  0.5432  0.8420 -0.7069
   92SAPS   C31 8976   5.416   6.346   6.881 -0.1862 -0.1792  0.9501
   92SAPS   O32 8977   5.462   6.447   6.830  0.4929  0.5596  0.5516
   92SAPS   C32 8978   5.478   6.277   7.000 -0.3391  0.0191  0.7194
   92SAPS   H2X 8979   5.511   6.176   6.968  1.4664  0.9104 -0.3060
   92SAPS   H2Y 8980   5.408   6.269   7.086  1.5096  0.9771  2.3497
   92SAPS   C23 8981   4.808   6.435   7.177 -0.5870  0.2064  0.6666
   92SAPS   H3R 8982   4.838   6.486   7.271 -1.4206  0.1297  0.9752
   92SAPS   H3S 8983   4.813   6.326   7.195  2.7959 -0.2317 -2.2663
   92SAPS   C24 8984   4.665   6.468   7.136  0.3882 -0.0192 -0.2334
   92SAPS   H4R 8985   4.593   6.417   7.203  0.5026 -0.9487 -0.8144
   92SAPS   H4S 8986   4.636   6.433   7.035 -1.0469  1.7570 -0.4795
   92SAPS   C25 8987   4.638   6.615   7.144  0.2682  0.1479 -0.7177
   92SAPS   H5R 8988   4.651   6.665   7.047 -1.7653  0.6648 -0.7432
   92SAPS   C26 8989   4.591   6.678   7.253 -0.6918  0.5099  0.4559
   92SAPS   H6R 8990   4.567   6.785   7.243 -0.5834  0.5731  0.8567
   92SAPS   C27 8991   4.567   6.617   7.387 -0.1855 -0.2389  0.2590
   92SAPS   H7R 8992   4.595   6.510   7.393 -0.3920 -0.3628 -0.8968
   92SAPS   H7S 8993   4.456   6.616   7.401 -0.0905 -1.0696  1.0150
   92SAPS   C28 8994   4.634   6.684   7.504  0.7642 -0.4514  0.1965
   92SAPS   H8R 8995   4.717   6.750   7.476 -0.0420 -0.1878 -1.6518
   92SAPS   C29 8996   4.603   6.664   7.634  0.2272  0.3746 -0.2095
   92SAPS   H9R 8997   4.659   6.712   7.715  0.0133  1.0909 -0.4847
   92SAPS  C210 8998   4.508   6.569   7.693 -0.7077  1.0818  0.1489
   92SAPS  H10R 8999   4.532   6.534   7.795 -0.4025  2.8321  0.6897
   92SAPS  H10S 9000   4.490   6.479   7.630  1.1737  0.0147  1.0960
   92SAPS  C211 9001   4.382   6.640   7.698  0.2371  0.2411 -0.6341
   92SAPS  H11R 9002   4.339   6.643   7.597  1.9894 -3.5984 -1.5950
   92SAPS  C212 9003   4.308   6.680   7.803 -0.2441 -0.1487  0.0678
   92SAPS  H12R 9004   4.206   6.717   7.786  0.1949  1.5412  1.0124
   92SAPS  C213 9005   4.343   6.654   7.951 -0.4520  0.4303 -0.7234
   92SAPS  H13R 9006   4.436   6.708   7.981  0.8018 -1.5042 -1.0474
   92SAPS  H13S 9007   4.369   6.547   7.963 -1.8181  0.1556 -0.1201
   92SAPS  C214 9008   4.233   6.678   8.050 -0.2171 -0.5672  0.2930
   92SAPS  H14R 9009   4.131   6.701   8.016 -1.2724  0.6993  3.9930
   92SAPS  C215 9010   4.259   6.678   8.182 -0.3708 -0.0125 -0.3100
   92SAPS  H15R 9011   4.171   6.691   8.246 -1.1024  0.1693 -1.3405
   92SAPS  C216 9012   4.387   6.651   8.258  0.7011 -0.0824 -0.1250
   92SAPS  H16R 9013   4.469   6.625   8.187 -0.3434 -2.5649 -0.4593
   92SAPS  H16S 9014   4.374   6.571   8.333 -0.9565 -1.0260 -1.3699
   92SAPS  C217 9015   4.440   6.780   8.331 -0.1312 -0.0800 -0.2969
   92SAPS  H17R 9016   4.379   6.813   8.418  0.3201 -0.8085  0.3020
   92SAPS  H17S 9017   4.433   6.856   8.250 -0.5956  0.9329  0.6824
   92SAPS  C218 9018   4.589   6.767   8.362  0.3022  0.0117  0.2070
   92SAPS  H18R 9019   4.647   6.707   8.289  0.3209  1.1424 -0.7308
   92SAPS  H18S 9020   4.607   6.713   8.457  1.5454  2.7864  1.6071
   92SAPS  C219 9021   4.661   6.900   8.379 -0.5100  0.4160  0.5256
   92SAPS  H19R 9022   4.666   6.958   8.285 -1.9156 -3.6880 -2.2144
   92SAPS  H19S 9023   4.764   6.868   8.404 -0.8538 -0.9012  0.3013
   92SAPS  C220 9024   4.604   6.984   8.490  0.4249  0.7302 -0.0742
   92SAPS  H20R 9025   4.673   7.066   8.521  0.5797  0.0718  1.3962
   92SAPS  H20S 9026   4.598   6.904   8.567 -2.2035  0.0261 -0.9444
   92SAPS  H20T 9027   4.505   7.030   8.469  0.0314 -0.0528  0.0344
   92SAPS   C33 9028   5.601   6.353   7.052 -0.2708 -0.1344 -0.0326
   92SAPS   H3X 9029   5.572   6.458   7.074 -0.8801 -0.5339  1.1283
   92SAPS   H3Y 9030   5.683   6.346   6.977 -0.3293 -0.4451 -0.0705
   92SAPS   C34 9031   5.660   6.292   7.180  0.7883 -0.4666  0.1805
   92SAPS   H4X 9032   5.749   6.356   7.198 -0.8117  2.8497 -3.1214
   92SAPS   H4Y 9033   5.696   6.187   7.174 -0.5349 -0.9289  0.2624
   92SAPS   C35 9034   5.566   6.300   7.297  0.7316 -0.6186 -0.2049
   92SAPS   H5X 9035   5.483   6.228   7.279  0.4617 -0.2052 -0.6128
   92SAPS   H5Y 9036   5.530   6.404   7.308 -1.4748 -1.2924 -0.7835
   92SAPS   C36 9037   5.633   6.270   7.428  0.0918  0.1891  0.2652
   92SAPS   H6X 9038   5.732   6.318   7.439  0.4276 -0.6652  1.0326
   92SAPS   H6Y 9039   5.641   6.161   7.448  1.5220  0.5825  1.9474
   92SAPS   C37 9040   5.557   6.311   7.553  0.0065 -0.0342 -0.5378
   92SAPS   H7X 9041   5.450   6.281   7.553 -0.1098  0.2972 -3.7276
   92SAPS   H7Y 9042   5.542   6.421   7.562  0.3573  0.0325 -0.7521
   92SAPS   C38 9043   5.621   6.260   7.686  0.4273  0.0423 -0.0775
   92SAPS   H8X 9044   5.721   6.309   7.691 -1.2157  3.4093  1.2973
   92SAPS   H8Y 9045   5.638   6.151   7.679  1.8881  0.2201  0.3540
   92SAPS   C39 9046   5.530   6.300   7.806  0.4407 -1.1057  0.2167
   92SAPS   H9X 9047   5.430   6.252   7.795  0.1513 -0.3086 -0.7438
   92SAPS   H9Y 9048   5.518   6.410   7.808  3.7873 -0.6462 -1.6249
   92SAPS  C310 9049   5.605   6.275   7.935 -0.4945  0.1871 -0.2699
   92SAPS  H10X 9050   5.698   6.333   7.919  0.5437 -1.4199 -0.1406
   92SAPS  H10Y 9051   5.637   6.171   7.956  0.9252  0.2030 -2.3304
   92SAPS  C311 9052   5.527   6.318   8.058 -0.1110 -0.5099  0.1822
   92SAPS  H11X 9053   5.448   6.244   8.086 -0.9058 -0.6624 -2.3239
   92SAPS  H11Y 9054   5.481   6.416   8.033 -0.6515 -1.0229 -0.8960
   92SAPS  C312 9055   5.621   6.344   8.175 -0.0657  0.0438 -0.1336
   92SAPS  H12X 9056   5.716   6.391   8.145  0.4401 -1.0252 -0.2267
   92SAPS  H12Y 9057   5.649   6.243   8.212 -3.1496 -0.4951  0.9300
   92SAPS  C313 9058   5.560   6.429   8.291 -0.1716  0.3690  0.9780
   92SAPS  H13X 9059   5.490   6.367   8.353 -1.9609  1.9435  0.5773
   92SAPS  H13Y 9060   5.497   6.506   8.242 -0.2869 -0.3267  0.0296
   92SAPS  C314 9061   5.659   6.506   8.373 -0.1458 -0.2663 -0.4689
   92SAPS  H14X 9062   5.602   6.575   8.438 -3.2790 -2.5495 -0.7041
   92SAPS  H14Y 9063   5.737   6.560   8.314  0.3607 -2.8383 -2.2693
   92SAPS  C315 9064   5.722   6.403   8.474 -0.3241 -0.0383 -0.4242
   92SAPS  H15X 9065   5.786   6.328   8.423 -2.2767 -0.3046 -2.5417
   92SAPS  H15Y 9066   5.646   6.339   8.523  2.2111 -0.4058  3.2943
   92SAPS  C316 9067   5.802   6.479   8.578  0.0985 -0.5057 -0.8297
   92SAPS  H16X 9068   5.753   6.570   8.621  0.9684 -0.0449 -0.7914
   92SAPS  H16Y 9069   5.891   6.518   8.524 -0.7336 -0.1178 -1.9367
   92SAPS  C317 9070   5.836   6.381   8.693  0.1761 -0.0971  0.4414
   92SAPS  H17X 9071   5.769   6.296   8.671 -0.5259  0.8424 -1.0898
   92SAPS  H17Y 9072   5.812   6.420   8.794 -0.5129  0.4051  0.0888
   92SAPS  C318 9073   5.982   6.340   8.704  0.1851 -0.3455  0.2810
   92SAPS  H18X 9074   6.023   6.312   8.604 -1.0319 -0.5879 -0.1525
   92SAPS  H18Y 9075   5.982   6.252   8.771 -2.0262 -0.9249 -0.4653
   92SAPS  H18Z 9076   6.043   6.419   8.754 -1.1866  0.9458 -0.0589
   93SAPS     N 9077   5.719   6.671   6.231  0.0646  0.1594  0.1546
   93SAPS   HN1 9078   5.817   6.665   6.267 -0.4156 -1.4457  1.2256
   93SAPS   HN2 9079   5.693   6.767   6.200  0.1423  0.1668  0.1102
   93SAPS   HN3 9080   5.651   6.651   6.307 -1.3225 -0.2655 -1.1718
   93SAPS   C12 9081   5.715   6.566   6.131  0.1036  0.0503  0.0475
   93SAPS  H12A 9082   5.632   6.577   6.063  0.9168 -0.2650 -1.0042
   93SAPS   C13 9083   5.837   6.568   6.042 -0.2584 -0.5332  0.3101
   93SAPS  O13A 9084   5.925   6.661   6.040 -0.0648 -0.1307  0.2558
   93SAPS  O13B 9085   5.855   6.473   5.960 -0.1286  0.1394  0.0120
   93SAPS   C11 9086   5.710   6.429   6.201 -0.4551  0.7492  0.0899
   93SAPS  H11A 9087   5.702   6.354   6.120  0.3199 -0.3361  1.0123
   93SAPS  H11B 9088   5.625   6.425   6.274  0.0274  1.9321  0.7355
   93SAPS     P 9089   5.890   6.266   6.297  0.8396  0.1632 -0.1451
   93SAPS   O13 9090   5.785   6.170   6.331 -0.2015  0.1118 -0.0721
   93SAPS   O14 9091   5.967   6.228   6.176  0.3831 -0.6242 -0.4127
   93SAPS   O12 9092   5.832   6.409   6.277 -0.1622  0.0429  0.1239
   93SAPS   O11 9093   5.984   6.278   6.422 -0.4836 -0.0865 -0.2440
   93SAPS    C1 9094   5.992   6.401   6.495  0.8086  1.0433 -0.4093
   93SAPS    HA 9095   6.074   6.393   6.570 -1.5195  0.4277  2.1671
   93SAPS    HB 9096   6.017   6.485   6.426  2.7554  1.1793  0.4310
   93SAPS    C2 9097   5.870   6.442   6.576  0.5355  0.0582 -0.5776
   93SAPS    HS 9098   5.792   6.481   6.507  0.4427 -1.5496 -1.4006
   93SAPS   O21 9099   5.904   6.543   6.677  0.7793 -0.1322  0.1496
   93SAPS   C21 9100   5.896   6.668   6.621 -0.0262  0.0292 -0.8510
   93SAPS   O22 9101   5.872   6.703   6.506 -0.4830 -0.7794 -0.3378
   93SAPS   C22 9102   5.911   6.761   6.737 -0.0277 -0.9225  0.4966
   93SAPS   H2R 9103   5.874   6.708   6.828 -1.7308 -0.9749 -0.2111
   93SAPS   H2S 9104   6.018   6.792   6.744  0.3744 -2.2084  0.3101
   93SAPS    C3 9105   5.805   6.322   6.653  0.5839  0.7859  0.0304
   93SAPS    HX 9106   5.751   6.255   6.582 -0.4325 -0.4615  1.9351
   93SAPS    HY 9107   5.737   6.375   6.723 -0.7444  0.1226 -0.7234
   93SAPS   O31 9108   5.900   6.240   6.722  0.8029 -0.3768 -0.1972
   93SAPS   C31 9109   5.848   6.146   6.807  1.1342 -0.3875  0.2492
   93SAPS   O32 9110   5.731   6.143   6.842  0.8197  0.3164 -0.2656
   93SAPS   C32 9111   5.958   6.047   6.852 -0.6732  0.8474  0.2693
   93SAPS   H2X 9112   6.030   6.100   6.918 -0.2611 -0.6692  1.0753
   93SAPS   H2Y 9113   6.019   6.026   6.762  0.3745  1.6787  0.7753
   93SAPS   C23 9114   5.820   6.885   6.715 -0.2602 -0.2125  0.4393
   93SAPS   H3R 9115   5.714   6.853   6.726 -0.2652 -0.4969 -0.4056
   93SAPS   H3S 9116   5.846   6.927   6.615  2.1281  0.1845  1.2007
   93SAPS   C24 9117   5.817   6.998   6.821 -0.1052  0.2203 -0.2747
   93SAPS   H4R 9118   5.917   7.047   6.819  0.3168 -0.6609 -1.5469
   93SAPS   H4S 9119   5.805   6.965   6.926 -1.2073 -0.5260 -0.6292
   93SAPS   C25 9120   5.724   7.115   6.790 -0.6276  0.2462  0.0405
   93SAPS   H5R 9121   5.690   7.133   6.687 -1.6274 -1.0423  0.1253
   93SAPS   C26 9122   5.673   7.196   6.886 -0.3624  0.1386  0.3665
   93SAPS   H6R 9123   5.601   7.275   6.859 -1.2890 -0.4902  0.9635
   93SAPS   C27 9124   5.695   7.182   7.035 -1.1679 -0.3646  0.0493
   93SAPS   H7R 9125   5.686   7.075   7.065 -0.8387 -0.9219 -1.7282
   93SAPS   H7S 9126   5.604   7.225   7.081 -1.9223 -1.1533 -0.6910
   93SAPS   C28 9127   5.816   7.255   7.088  0.3196 -0.9018 -0.2252
   93SAPS   H8R 9128   5.870   7.317   7.015  0.1374 -0.5890 -0.0949
   93SAPS   C29 9129   5.875   7.237   7.207  0.4411  0.6742  0.2197
   93SAPS   H9R 9130   5.967   7.293   7.227 -1.0655  2.4173  2.4735
   93SAPS  C210 9131   5.830   7.147   7.318  0.9011  0.4625  0.5746
   93SAPS  H10R 9132   5.926   7.115   7.363  1.3847 -0.1819 -0.8709
   93SAPS  H10S 9133   5.789   7.052   7.279 -2.6121  2.1194  0.0859
   93SAPS  C211 9134   5.741   7.218   7.411  0.6864  0.1660  0.0602
   93SAPS  H11R 9135   5.650   7.263   7.367  3.3065  2.9749 -2.6761
   93SAPS  C212 9136   5.752   7.230   7.542  0.5345  0.2966 -0.1165
   93SAPS  H12R 9137   5.676   7.291   7.594  1.2137  1.0093  0.0478
   93SAPS  C213 9138   5.856   7.164   7.629 -0.5425  0.0527 -0.2121
   93SAPS  H13R 9139   5.944   7.230   7.635  1.5525 -2.7146  0.6893
   93SAPS  H13S 9140   5.899   7.066   7.598  1.7235  0.3020  1.9725
   93SAPS  C214 9141   5.786   7.160   7.767  0.4140 -0.5340 -0.7353
   93SAPS  H14R 9142   5.716   7.077   7.785  0.0480 -0.2225 -0.6999
   93SAPS  C215 9143   5.829   7.228   7.878  0.0420 -0.3880  0.1887
   93SAPS  H15R 9144   5.778   7.211   7.974  0.1716 -2.9541 -0.1644
   93SAPS  C216 9145   5.947   7.318   7.878 -0.3222  0.2497  0.2081
   93SAPS  H16R 9146   5.922   7.402   7.809  1.7956  0.3814 -0.4502
   93SAPS  H16S 9147   6.035   7.267   7.832 -0.7618 -0.5085  0.2087
   93SAPS  C217 9148   5.983   7.384   8.016  0.1306 -0.5525 -1.0835
   93SAPS  H17R 9149   5.897   7.452   8.034  1.5703  1.2741 -0.8990
   93SAPS  H17S 9150   6.070   7.452   8.002  0.4118 -0.5006  0.7958
   93SAPS  C218 9151   5.996   7.295   8.144  0.0670 -0.4699  0.7430
   93SAPS  H18R 9152   6.100   7.256   8.143  0.1944 -0.1664  1.9808
   93SAPS  H18S 9153   5.939   7.200   8.137  1.3451 -1.3230  1.6243
   93SAPS  C219 9154   5.959   7.361   8.275 -0.2348 -0.2511  0.6077
   93SAPS  H19R 9155   5.861   7.412   8.265  1.3428  2.6372 -0.7831
   93SAPS  H19S 9156   6.037   7.438   8.283 -0.6784 -0.0445  3.3131
   93SAPS  C220 9157   5.967   7.264   8.386 -0.1887  0.0271  0.0572
   93SAPS  H20R 9158   6.069   7.222   8.402  0.1377  0.6782 -0.2873
   93SAPS  H20S 9159   5.896   7.184   8.359  1.2325 -1.4444  0.6066
   93SAPS  H20T 9160   5.935   7.313   8.481 -0.1937 -1.9296  1.0832
   93SAPS   C33 9161   5.920   5.925   6.940  0.1742 -0.2762 -0.3736
   93SAPS   H3X 9162   5.912   5.834   6.877 -1.2343 -0.0170 -0.5871
   93SAPS   H3Y 9163   5.819   5.947   6.983  0.5958  0.8641  0.0533
   93SAPS   C34 9164   6.019   5.889   7.062  0.0154 -0.1420  0.5094
   93SAPS   H4X 9165   6.127   5.880   7.036  0.2252  2.3701  0.3592
   93SAPS   H4Y 9166   5.985   5.785   7.082 -2.0287 -0.0495 -2.1534
   93SAPS   C35 9167   6.001   5.981   7.178  0.3306 -0.1144 -0.0458
   93SAPS   H5X 9168   5.899   5.962   7.218  0.6428 -1.5773  0.1011
   93SAPS   H5Y 9169   6.003   6.087   7.145 -1.4197 -0.2546 -0.6684
   93SAPS   C36 9170   6.102   5.952   7.298  0.1743 -0.8469 -0.0539
   93SAPS   H6X 9171   6.198   5.992   7.260  0.4051 -1.3141  0.0470
   93SAPS   H6Y 9172   6.117   5.842   7.305  1.2492 -0.6852  0.2060
   93SAPS   C37 9173   6.059   6.027   7.433  0.1783  0.6269 -0.0563
   93SAPS   H7X 9174   6.115   5.984   7.519  0.7115  0.8072 -0.3082
   93SAPS   H7Y 9175   5.956   5.990   7.450  1.1956 -1.9350  0.8190
   93SAPS   C38 9176   6.058   6.175   7.409  0.6944 -0.3235 -0.1136
   93SAPS   H8X 9177   5.977   6.190   7.335  0.6579  0.2129  0.0367
   93SAPS   H8Y 9178   6.155   6.225   7.388  0.7692 -1.1138 -1.7111
   93SAPS   C39 9179   6.020   6.247   7.542  0.3295 -0.3420 -0.1941
   93SAPS   H9X 9180   6.096   6.213   7.616 -0.0849 -0.5226  0.1447
   93SAPS   H9Y 9181   5.921   6.208   7.572  0.5865 -1.2429 -0.4860
   93SAPS  C310 9182   6.021   6.399   7.537 -0.2296  0.1765  0.3922
   93SAPS  H10X 9183   5.938   6.429   7.469  1.7639  3.4937 -0.6862
   93SAPS  H10Y 9184   6.118   6.419   7.486 -0.2486 -2.2547 -0.6995
   93SAPS  C311 9185   5.992   6.473   7.667 -0.5909  0.7690  0.1209
   93SAPS  H11X 9186   5.881   6.476   7.673 -0.7155 -1.8204 -0.1894
   93SAPS  H11Y 9187   6.030   6.576   7.650  1.5378 -0.2289 -1.3803
   93SAPS  C312 9188   6.066   6.409   7.787 -0.0472  0.3866  0.3219
   93SAPS  H12X 9189   6.165   6.383   7.744 -0.5765 -0.1131 -0.6051
   93SAPS  H12Y 9190   6.020   6.313   7.818 -1.0287  0.8869  0.4509
   93SAPS  C313 9191   6.079   6.511   7.903  0.1778  0.0249  0.3264
   93SAPS  H13X 9192   5.973   6.531   7.929 -0.2516  0.0398 -1.3354
   93SAPS  H13Y 9193   6.120   6.607   7.864 -0.3105  0.8308  1.7544
   93SAPS  C314 9194   6.149   6.449   8.019  0.1543 -0.1461 -0.3915
   93SAPS  H14X 9195   6.254   6.416   8.000  0.6145  1.2698 -0.3620
   93SAPS  H14Y 9196   6.097   6.355   8.047  2.7447 -1.2427  0.9554
   93SAPS  C315 9197   6.140   6.536   8.146 -0.0603  0.5896 -0.3117
   93SAPS  H15X 9198   6.035   6.554   8.178 -0.0989 -0.0645 -0.0678
   93SAPS  H15Y 9199   6.175   6.638   8.120  0.8879  0.1505 -0.7586
   93SAPS  C316 9200   6.216   6.489   8.273  0.1749 -0.6606 -0.1974
   93SAPS  H16X 9201   6.324   6.476   8.251  0.4565  1.5173 -0.2928
   93SAPS  H16Y 9202   6.175   6.386   8.279 -1.8853  0.1484  0.1050
   93SAPS  C317 9203   6.205   6.573   8.403 -0.0281  0.5320 -0.1313
   93SAPS  H17X 9204   6.104   6.609   8.433  0.7796  2.0797  0.8089
   93SAPS  H17Y 9205   6.265   6.665   8.386  2.4464 -0.9554  0.2248
   93SAPS  C318 9206   6.273   6.512   8.532 -0.2607 -1.2085 -0.1750
   93SAPS  H18X 9207   6.241   6.556   8.629 -2.2563 -1.5500 -0.6446
   93SAPS  H18Y 9208   6.383   6.523   8.527 -0.2448  0.1966  2.4300
   93SAPS  H18Z 9209   6.243   6.405   8.538 -1.4105 -0.8899  0.0165
   94SAPS     N 9210   6.054   2.768   5.808 -0.2543 -0.0217 -0.2638
   94SAPS   HN1 9211   6.063   2.730   5.712  3.0478 -0.7400  0.2648
   94SAPS   HN2 9212   6.144   2.791   5.854  0.2321 -1.3933 -0.5242
   94SAPS   HN3 9213   6.008   2.696   5.868 -1.0553  0.4428 -0.3104
   94SAPS   C12 9214   5.964   2.882   5.815 -0.7836 -0.3182  0.8303
   94SAPS  H12A 9215   5.974   2.921   5.916 -1.9790  1.0220  0.4354
   94SAPS   C13 9216   5.999   2.996   5.719  0.3817 -0.1552 -0.7889
   94SAPS  O13A 9217   6.086   2.981   5.627  0.1949  0.4636 -0.1005
   94SAPS  O13B 9218   5.936   3.102   5.742  0.2318 -0.0879  0.2703
   94SAPS   C11 9219   5.826   2.824   5.787  0.0551  0.0314  0.5549
   94SAPS  H11A 9220   5.823   2.763   5.695  0.9146  0.8972 -0.0573
   94SAPS  H11B 9221   5.767   2.915   5.765  0.0816 -0.5454 -2.0051
   94SAPS     P 9222   5.642   2.709   5.912 -0.0368  0.1209 -0.0001
   94SAPS   O13 9223   5.552   2.802   5.848  0.4374  0.2219 -0.2411
   94SAPS   O14 9224   5.632   2.575   5.860 -0.3505 -0.5740  0.4982
   94SAPS   O12 9225   5.791   2.751   5.903  0.4513 -0.0644 -0.9576
   94SAPS   O11 9226   5.618   2.709   6.066 -0.1100 -0.7647 -0.2903
   94SAPS    C1 9227   5.687   2.799   6.151 -0.3925  0.1444  0.1270
   94SAPS    HA 9228   5.772   2.753   6.206 -0.5791  2.4501  2.4288
   94SAPS    HB 9229   5.724   2.890   6.100  0.5022  0.4537  1.2907
   94SAPS    C2 9230   5.608   2.857   6.271  0.5580  0.1762 -0.3598
   94SAPS    HS 9231   5.682   2.905   6.337 -0.1967  0.0820  0.5652
   94SAPS   O21 9232   5.534   2.752   6.339  0.1564  0.6244 -0.2596
   94SAPS   C21 9233   5.599   2.696   6.435  0.0388  0.5568  1.1033
   94SAPS   O22 9234   5.717   2.713   6.457 -0.8754 -0.0624  0.1247
   94SAPS   C22 9235   5.508   2.607   6.518  0.1251 -0.1138  0.0999
   94SAPS   H2R 9236   5.421   2.574   6.456 -1.1025  1.8034  0.7523
   94SAPS   H2S 9237   5.561   2.510   6.529 -0.7086 -0.4120  1.5894
   94SAPS    C3 9238   5.518   2.985   6.233  0.1317 -0.4617  0.4392
   94SAPS    HX 9239   5.447   2.938   6.161  0.2724 -1.7786  1.1499
   94SAPS    HY 9240   5.567   3.070   6.181  0.7640 -0.7117  0.6316
   94SAPS   O31 9241   5.445   3.028   6.354 -0.1534 -0.1363 -0.5332
   94SAPS   C31 9242   5.503   3.127   6.424  0.8727 -0.3958 -0.5666
   94SAPS   O32 9243   5.600   3.191   6.400 -0.2941  0.1383 -0.1006
   94SAPS   C32 9244   5.420   3.150   6.550 -0.5282  0.0765  0.0050
   94SAPS   H2X 9245   5.314   3.138   6.521 -0.7155  2.4316 -0.4185
   94SAPS   H2Y 9246   5.443   3.258   6.563  0.1932 -0.2766  1.9102
   94SAPS   C23 9247   5.460   2.684   6.647 -0.1688  0.7021  0.4170
   94SAPS   H3R 9248   5.400   2.770   6.612  1.1054  1.3066 -0.2994
   94SAPS   H3S 9249   5.547   2.719   6.708 -1.9915  0.8925  2.9787
   94SAPS   C24 9250   5.376   2.603   6.751 -0.1225  0.2443  0.0510
   94SAPS   H4R 9251   5.275   2.571   6.719 -0.7529  2.8206 -0.6160
   94SAPS   H4S 9252   5.341   2.669   6.833  1.5710  0.7595  0.3829
   94SAPS   C25 9253   5.448   2.476   6.803 -0.1123  0.7029  0.2842
   94SAPS   H5R 9254   5.459   2.394   6.731 -0.4822 -0.4114  1.4636
   94SAPS   C26 9255   5.495   2.454   6.929  0.5362  0.1346  0.0335
   94SAPS   H6R 9256   5.527   2.350   6.942 -3.2735 -1.4250 -2.1764
   94SAPS   C27 9257   5.481   2.543   7.053 -0.3486  0.4241 -1.2796
   94SAPS   H7R 9258   5.468   2.645   7.012 -0.2669  0.7374 -0.5296
   94SAPS   H7S 9259   5.577   2.553   7.108  0.3100  2.8238 -2.7633
   94SAPS   C28 9260   5.357   2.515   7.134  0.0672  0.4728 -0.5949
   94SAPS   H8R 9261   5.269   2.543   7.075  0.5868  1.6209 -0.8438
   94SAPS   C29 9262   5.351   2.461   7.259  0.0429 -0.2665 -0.1851
   94SAPS   H9R 9263   5.251   2.452   7.302 -0.5905  2.3023 -1.0359
   94SAPS  C210 9264   5.463   2.417   7.345  0.5145  0.1386 -0.7731
   94SAPS  H10R 9265   5.537   2.498   7.365 -1.6233  2.1525 -0.8656
   94SAPS  H10S 9266   5.525   2.346   7.285  1.8476 -0.5259  1.3036
   94SAPS  C211 9267   5.408   2.341   7.463  0.2258 -0.2192 -0.4730
   94SAPS  H11R 9268   5.383   2.242   7.424 -2.8467 -0.0430  0.9201
   94SAPS  C212 9269   5.397   2.382   7.593 -0.1957  0.0122 -0.1968
   94SAPS  H12R 9270   5.329   2.328   7.660  0.3013  0.2440  0.4891
   94SAPS  C213 9271   5.443   2.515   7.647  0.0259 -1.1368  0.8016
   94SAPS  H13R 9272   5.536   2.550   7.598 -0.0233 -4.3512 -1.7880
   94SAPS  H13S 9273   5.465   2.505   7.756  1.1731  2.1535  0.9140
   94SAPS  C214 9274   5.326   2.616   7.643  0.5658 -0.1017  0.4385
   94SAPS  H14R 9275   5.264   2.596   7.554 -2.1644 -0.5635  2.3684
   94SAPS  C215 9276   5.309   2.727   7.718 -0.6633 -0.0017  0.0434
   94SAPS  H15R 9277   5.217   2.788   7.711 -0.4648  0.0286 -2.6728
   94SAPS  C216 9278   5.411   2.766   7.825  0.7390  0.1114 -0.2705
   94SAPS  H16R 9279   5.425   2.874   7.799 -1.3668  0.7770  1.2653
   94SAPS  H16S 9280   5.508   2.712   7.818  0.3804 -0.8458  1.7912
   94SAPS  C217 9281   5.353   2.776   7.975 -0.8038 -0.1770  0.2088
   94SAPS  H17R 9282   5.269   2.849   7.974  1.5533  2.6516  1.1722
   94SAPS  H17S 9283   5.428   2.819   8.045  0.2886  0.9949 -1.6082
   94SAPS  C218 9284   5.310   2.638   8.026  0.2401 -0.3633 -0.0381
   94SAPS  H18R 9285   5.231   2.586   7.968  0.1232 -0.2518  0.0216
   94SAPS  H18S 9286   5.251   2.649   8.119 -3.3092  0.2976 -2.2906
   94SAPS  C219 9287   5.425   2.541   8.074 -0.0224 -0.2973  0.4193
   94SAPS  H19R 9288   5.458   2.480   7.988 -1.3341  1.6667 -1.5514
   94SAPS  H19S 9289   5.376   2.481   8.153 -0.8505 -0.7568 -0.4321
   94SAPS  C220 9290   5.555   2.611   8.135  0.2050 -0.9574  0.2175
   94SAPS  H20R 9291   5.605   2.667   8.052 -0.7054 -0.1892  0.1767
   94SAPS  H20S 9292   5.628   2.538   8.175  1.7135 -0.8099 -2.1416
   94SAPS  H20T 9293   5.528   2.689   8.210  0.2801 -0.8823  0.1651
   94SAPS   C33 9294   5.491   3.073   6.672 -0.0391 -0.2191 -0.7834
   94SAPS   H3X 9295   5.595   3.110   6.671 -0.1085 -0.0708 -2.4250
   94SAPS   H3Y 9296   5.484   2.964   6.649 -1.7312  0.0975 -1.8343
   94SAPS   C34 9297   5.424   3.116   6.804  0.5400 -0.2490 -0.2711
   94SAPS   H4X 9298   5.324   3.070   6.790  0.9326 -1.3283  0.3821
   94SAPS   H4Y 9299   5.414   3.226   6.801  2.1034 -0.0734  0.3562
   94SAPS   C35 9300   5.489   3.065   6.923  0.7687  0.1456 -0.7235
   94SAPS   H5X 9301   5.589   3.114   6.933  0.1691  1.9939 -3.4178
   94SAPS   H5Y 9302   5.497   2.955   6.931  0.2519  0.2374  1.3777
   94SAPS   C36 9303   5.408   3.097   7.045  0.1634  0.0911 -0.4908
   94SAPS   H6X 9304   5.306   3.054   7.032  0.0497  0.7048 -1.7388
   94SAPS   H6Y 9305   5.390   3.206   7.062  0.9051  0.1523 -0.0906
   94SAPS   C37 9306   5.462   3.032   7.170 -0.6932 -0.4922  0.6333
   94SAPS   H7X 9307   5.561   3.070   7.201 -0.9336 -0.3650  1.2546
   94SAPS   H7Y 9308   5.476   2.923   7.154 -1.9760 -0.7750  1.3408
   94SAPS   C38 9309   5.372   3.064   7.291 -0.6678 -0.1973  0.0696
   94SAPS   H8X 9310   5.272   3.018   7.285 -1.3698  1.0914  1.5801
   94SAPS   H8Y 9311   5.348   3.173   7.295 -2.0343 -0.5160  0.4323
   94SAPS   C39 9312   5.421   3.017   7.431 -0.1698  1.1247 -0.2687
   94SAPS   H9X 9313   5.532   3.019   7.436 -0.2352  0.4971  2.1759
   94SAPS   H9Y 9314   5.390   2.911   7.436 -1.5925  1.5608  0.4820
   94SAPS  C310 9315   5.368   3.113   7.544  0.1612  0.6935  0.0206
   94SAPS  H10X 9316   5.345   3.047   7.630  0.1385  0.0596 -0.4683
   94SAPS  H10Y 9317   5.274   3.161   7.510 -0.6662 -1.6077 -1.0683
   94SAPS  C311 9318   5.467   3.214   7.585  0.9179  0.0389  0.4493
   94SAPS  H11X 9319   5.511   3.269   7.499  0.0307  1.8812  1.1288
   94SAPS  H11Y 9320   5.558   3.174   7.635 -0.4994 -0.8456  2.4138
   94SAPS  C312 9321   5.415   3.312   7.698  1.0710  0.0237 -0.5222
   94SAPS  H12X 9322   5.315   3.357   7.677  0.8536  1.2535  2.8684
   94SAPS  H12Y 9323   5.480   3.403   7.700  1.8538 -0.4953 -1.5921
   94SAPS  C313 9324   5.406   3.250   7.836 -0.5241  0.3739 -0.6566
   94SAPS  H13X 9325   5.512   3.230   7.863 -0.3231  0.7125 -1.1833
   94SAPS  H13Y 9326   5.355   3.151   7.830 -0.8617  0.3537  1.9507
   94SAPS  C314 9327   5.345   3.332   7.951 -0.1429  0.5022 -0.1516
   94SAPS  H14X 9328   5.369   3.439   7.935  0.4726  0.6154  1.4901
   94SAPS  H14Y 9329   5.399   3.302   8.043 -1.5760  0.6360  0.7550
   94SAPS  C315 9330   5.184   3.314   7.966 -0.4765  1.0393  0.9892
   94SAPS  H15X 9331   5.158   3.219   8.016  0.3448  0.4852  0.3790
   94SAPS  H15Y 9332   5.134   3.315   7.867  0.4877 -2.6141  0.3883
   94SAPS  C316 9333   5.119   3.428   8.050  0.3387  0.1762 -0.0660
   94SAPS  H16X 9334   5.012   3.403   8.067  0.3761 -0.8186 -1.2001
   94SAPS  H16Y 9335   5.127   3.521   7.991 -1.4048 -0.8614 -1.9965
   94SAPS  C317 9336   5.196   3.446   8.186 -0.0046  0.1421 -0.5198
   94SAPS  H17X 9337   5.301   3.470   8.160 -0.2923  2.7789  0.6960
   94SAPS  H17Y 9338   5.196   3.351   8.244 -1.9788  1.4570  1.7234
   94SAPS  C318 9339   5.158   3.563   8.281 -0.6432 -0.4972  0.4367
   94SAPS  H18X 9340   5.243   3.576   8.351 -0.7216  1.0644  0.2543
   94SAPS  H18Y 9341   5.064   3.559   8.340 -0.8122  2.6422  0.4449
   94SAPS  H18Z 9342   5.162   3.662   8.230 -1.0147  0.0285  1.4128
   95SAPS     N 9343   2.068   0.281   6.012 -0.0620  0.1786 -0.2283
   95SAPS   HN1 9344   2.093   0.381   6.019  0.0461  0.0469  1.3086
   95SAPS   HN2 9345   2.045   0.256   5.913 -2.4372 -0.8201  0.5272
   95SAPS   HN3 9346   1.987   0.261   6.075 -0.4695  1.5322 -0.2979
   95SAPS   C12 9347   2.168   0.198   6.064  0.0768  0.6266 -0.7193
   95SAPS  H12A 9348   2.129   0.098   6.054  0.9271 -0.0873  2.4764
   95SAPS   C13 9349   2.304   0.214   6.008 -0.4078 -0.0637  0.4204
   95SAPS  O13A 9350   2.336   0.318   5.944  0.2973  0.2635 -0.3317
   95SAPS  O13B 9351   2.392   0.134   6.048 -0.4445 -0.7393  0.6736
   95SAPS   C11 9352   2.180   0.239   6.217  0.1378 -0.1814 -0.2999
   95SAPS  H11A 9353   2.190   0.350   6.220  0.2429 -0.1848 -0.5249
   95SAPS  H11B 9354   2.277   0.198   6.254 -0.1155 -1.4071 -1.0094
   95SAPS     P 9355   2.017   0.067   6.348  0.2836  0.2829 -0.4920
   95SAPS   O13 9356   1.876   0.071   6.406 -0.3473  0.0016  0.6646
   95SAPS   O14 9357   2.042  -0.027   6.238  0.2198  0.0585 -0.2613
   95SAPS   O12 9358   2.063   0.213   6.303 -0.3382 -0.6048  0.8080
   95SAPS   O11 9359   2.114   0.037   6.474 -0.2655  0.6275  0.5374
   95SAPS    C1 9360   2.137   0.128   6.574 -0.0921 -0.5449  0.0097
   95SAPS    HA 9361   2.225   0.187   6.541 -0.7722  0.1522 -0.5644
   95SAPS    HB 9362   2.044   0.187   6.586 -0.6782 -1.2943 -0.7445
   95SAPS    C2 9363   2.152   0.064   6.715 -0.1026 -0.5469 -0.6160
   95SAPS    HS 9364   2.128   0.140   6.793  1.8043  0.0605 -0.5904
   95SAPS   O21 9365   2.284   0.013   6.727  0.2627 -0.0018  0.3991
   95SAPS   C21 9366   2.379   0.094   6.755  0.0775 -0.0869 -0.3592
   95SAPS   O22 9367   2.360   0.218   6.772  0.1913  0.0208 -0.1225
   95SAPS   C22 9368   2.519   0.009   6.765  0.0554  0.3369  0.4808
   95SAPS   H2R 9369   2.500  -0.095   6.731  1.0051 -0.0355  1.0700
   95SAPS   H2S 9370   2.586   0.069   6.700  0.2288 -1.9632 -1.5458
   95SAPS    C3 9371   2.052  -0.047   6.736  0.6730 -0.5974  0.2970
   95SAPS    HX 9372   2.092  -0.140   6.691 -2.3589 -1.6793 -0.2941
   95SAPS    HY 9373   1.966  -0.019   6.672 -0.2540  1.0218  2.1841
   95SAPS   O31 9374   2.014  -0.058   6.875 -0.3536  0.0566 -0.2529
   95SAPS   C31 9375   1.915   0.020   6.908  0.5512 -0.4065 -0.1127
   95SAPS   O32 9376   1.869   0.110   6.838  0.0191  0.4146  0.2984
   95SAPS   C32 9377   1.854  -0.007   7.048 -0.7790 -0.3209  0.3316
   95SAPS   H2X 9378   1.757  -0.060   7.052 -0.3531 -1.1524 -0.1051
   95SAPS   H2Y 9379   1.836   0.095   7.088 -3.1804  0.4048 -2.4612
   95SAPS   C23 9380   2.562   0.018   6.908  0.0881  0.0809 -0.1187
   95SAPS   H3R 9381   2.556   0.121   6.950  0.0550  0.8399 -1.9679
   95SAPS   H3S 9382   2.667  -0.016   6.907 -0.3572 -1.2913 -0.6567
   95SAPS   C24 9383   2.472  -0.086   6.986 -0.5797 -0.4535  0.5397
   95SAPS   H4R 9384   2.441  -0.175   6.928  1.9792 -0.6345 -0.6495
   95SAPS   H4S 9385   2.379  -0.029   7.006  0.3960  1.6817 -0.7439
   95SAPS   C25 9386   2.540  -0.140   7.107  0.1529  0.0564 -0.2534
   95SAPS   H5R 9387   2.638  -0.187   7.090  0.9566  0.6338  2.6000
   95SAPS   C26 9388   2.497  -0.133   7.233 -0.3658 -0.0201  0.0782
   95SAPS   H6R 9389   2.568  -0.168   7.309 -0.7593 -0.7369  0.1257
   95SAPS   C27 9390   2.367  -0.068   7.286 -0.4557  0.4808  0.4817
   95SAPS   H7R 9391   2.322  -0.005   7.207 -0.6969 -0.4449 -0.1286
   95SAPS   H7S 9392   2.404  -0.006   7.371 -0.4118 -0.6067  1.2738
   95SAPS   C28 9393   2.263  -0.163   7.322 -0.0029 -0.0625  0.2856
   95SAPS   H8R 9394   2.213  -0.208   7.234  0.7100  0.3775 -0.3481
   95SAPS   C29 9395   2.241  -0.221   7.442 -0.4372 -0.2632  0.0330
   95SAPS   H9R 9396   2.167  -0.302   7.455 -0.9987 -0.0818 -1.9148
   95SAPS  C210 9397   2.314  -0.192   7.569  0.0128 -0.3704  0.1596
   95SAPS  H10R 9398   2.237  -0.176   7.648 -1.2633  0.3371 -1.1945
   95SAPS  H10S 9399   2.379  -0.103   7.561 -0.1936 -0.1870  0.4848
   95SAPS  C211 9400   2.395  -0.312   7.609  0.0358  0.0245  0.6417
   95SAPS  H11R 9401   2.469  -0.351   7.538  0.1935  0.4568  0.5672
   95SAPS  C212 9402   2.429  -0.358   7.734 -0.0118 -0.9824 -0.4531
   95SAPS  H12R 9403   2.486  -0.451   7.740 -0.6218 -1.2628  1.2129
   95SAPS  C213 9404   2.364  -0.312   7.866 -0.0635 -0.4605 -0.2128
   95SAPS  H13R 9405   2.332  -0.206   7.870 -0.4245 -0.6481  3.4902
   95SAPS  H13S 9406   2.442  -0.321   7.944  1.4881 -1.9843 -1.8922
   95SAPS  C214 9407   2.248  -0.407   7.887  0.0628 -0.3813  0.8573
   95SAPS  H14R 9408   2.162  -0.410   7.819  0.1813 -1.4588  0.7516
   95SAPS  C215 9409   2.250  -0.499   7.990 -0.4638 -0.4404 -1.3542
   95SAPS  H15R 9410   2.171  -0.570   8.018 -2.0004  1.9091  0.4146
   95SAPS  C216 9411   2.357  -0.509   8.097 -0.5379  0.3974 -0.1451
   95SAPS  H16R 9412   2.449  -0.455   8.068 -2.9770  4.8462  0.0522
   95SAPS  H16S 9413   2.383  -0.613   8.126 -0.1719  1.7301  4.7255
   95SAPS  C217 9414   2.301  -0.416   8.209  0.3449 -0.8328  0.0898
   95SAPS  H17R 9415   2.194  -0.442   8.228 -0.0761  0.2186 -0.7076
   95SAPS  H17S 9416   2.290  -0.312   8.171  0.8400 -0.5116  0.8330
   95SAPS  C218 9417   2.372  -0.415   8.343  0.3768  0.5565 -0.0708
   95SAPS  H18R 9418   2.467  -0.358   8.341 -0.6722  2.5092  2.3458
   95SAPS  H18S 9419   2.398  -0.520   8.365  3.0963  1.1652 -0.2931
   95SAPS  C219 9420   2.280  -0.367   8.463  0.3453  0.7223  0.4598
   95SAPS  H19R 9421   2.205  -0.447   8.476 -1.8822  2.2237 -2.6015
   95SAPS  H19S 9422   2.209  -0.290   8.427  0.0946 -0.1449 -0.9345
   95SAPS  C220 9423   2.349  -0.335   8.589 -0.6163  0.0669  0.5106
   95SAPS  H20R 9424   2.277  -0.283   8.655  0.8372  2.1663  0.5053
   95SAPS  H20S 9425   2.434  -0.264   8.583  1.2324 -2.2057 -1.5218
   95SAPS  H20T 9426   2.396  -0.425   8.634 -1.3441 -0.1237  0.8929
   95SAPS   C33 9427   1.943  -0.084   7.140 -0.2012 -0.6374 -0.4458
   95SAPS   H3X 9428   2.038  -0.029   7.156 -0.8293  0.1572  0.6572
   95SAPS   H3Y 9429   1.960  -0.181   7.088  0.3742 -0.7451 -0.0711
   95SAPS   C34 9430   1.882  -0.123   7.279  0.3251  0.1344  0.0560
   95SAPS   H4X 9431   1.917  -0.225   7.304 -0.0610  0.3969  1.7107
   95SAPS   H4Y 9432   1.771  -0.129   7.279  0.4508 -2.6112  0.0700
   95SAPS   C35 9433   1.926  -0.022   7.389 -0.1538  0.3607 -0.1986
   95SAPS   H5X 9434   1.864   0.069   7.375  1.8823  1.5268 -2.0984
   95SAPS   H5Y 9435   2.032   0.009   7.376 -0.2798  0.6424 -0.5596
   95SAPS   C36 9436   1.904  -0.072   7.536  1.1581 -0.4997 -0.0656
   95SAPS   H6X 9437   1.946  -0.174   7.544  0.8864 -0.4955  1.3680
   95SAPS   H6Y 9438   1.797  -0.067   7.564  1.2362 -1.9502  0.5242
   95SAPS   C37 9439   1.959   0.011   7.648 -0.1525 -0.1802 -0.0013
   95SAPS   H7X 9440   1.927   0.118   7.646  1.9632  0.4861  0.6444
   95SAPS   H7Y 9441   2.068   0.001   7.634  0.2778  3.0783  0.4542
   95SAPS   C38 9442   1.943  -0.065   7.778  0.0314  0.3020  0.2334
   95SAPS   H8X 9443   1.996  -0.163   7.774  1.8724  1.2347  0.9455
   95SAPS   H8Y 9444   1.837  -0.094   7.790  0.1128 -0.0332  0.1571
   95SAPS   C39 9445   1.978   0.013   7.896  0.2870  0.0007 -1.2754
   95SAPS   H9X 9446   1.918   0.105   7.915 -0.5238 -1.2546  2.8093
   95SAPS   H9Y 9447   2.084   0.042   7.878  0.2901  1.3760  0.7191
   95SAPS  C310 9448   1.976  -0.082   8.025 -0.1829  0.9229  0.2314
   95SAPS  H10X 9449   2.036  -0.173   8.006  2.7638  3.1500 -1.6684
   95SAPS  H10Y 9450   1.873  -0.119   8.039  1.1714 -2.5706  1.4392
   95SAPS  C311 9451   2.030  -0.015   8.153 -0.0988 -0.0697 -0.1336
   95SAPS  H11X 9452   1.974   0.080   8.161 -0.5107 -0.4905  2.4034
   95SAPS  H11Y 9453   2.137   0.012   8.161  0.3582 -2.0714  0.7559
   95SAPS  C312 9454   1.999  -0.098   8.279  0.6524 -0.3176 -0.3064
   95SAPS  H12X 9455   2.054  -0.195   8.277 -1.6735 -1.6527 -2.4315
   95SAPS  H12Y 9456   1.891  -0.120   8.285  0.6039 -0.8785 -3.0075
   95SAPS  C313 9457   2.040  -0.022   8.409 -0.2871 -0.1384  0.1941
   95SAPS  H13X 9458   2.002   0.081   8.393 -0.1317  0.0964  1.2983
   95SAPS  H13Y 9459   2.150  -0.008   8.407 -0.2555 -0.3722  0.2123
   95SAPS  C314 9460   1.980  -0.088   8.541  0.2316 -0.1910 -0.3202
   95SAPS  H14X 9461   2.018  -0.032   8.628 -0.6740 -1.3530  0.8450
   95SAPS  H14Y 9462   2.021  -0.190   8.558  0.9018  0.3747  1.5197
   95SAPS  C315 9463   1.829  -0.078   8.540  0.2183  0.6432 -0.9249
   95SAPS  H15X 9464   1.784  -0.150   8.469 -4.2962  0.1488  2.2286
   95SAPS  H15Y 9465   1.812   0.024   8.500  1.1898  1.3036  0.3055
   95SAPS  C316 9466   1.754  -0.074   8.675 -0.5972  0.0894  0.2503
   95SAPS  H16X 9467   1.763  -0.171   8.728  0.5082  0.2661  0.3943
   95SAPS  H16Y 9468   1.647  -0.057   8.649  0.3741  1.7590 -2.9082
   95SAPS  C317 9469   1.796   0.036   8.779 -0.2836 -0.2521 -0.3203
   95SAPS  H17X 9470   1.797   0.135   8.728  1.1347 -0.6476 -1.0757
   95SAPS  H17Y 9471   1.896   0.024   8.825  0.1952 -0.3052 -1.3719
   95SAPS  C318 9472   1.692   0.035   8.894  0.6874  0.5596  0.4461
   95SAPS  H18X 9473   1.694  -0.059   8.953  0.4341 -0.3650 -0.9643
   95SAPS  H18Y 9474   1.592   0.045   8.846 -0.0457  0.3631  1.9072
   95SAPS  H18Z 9475   1.722   0.115   8.964  0.0560  0.4134  0.8881
   96SAPS     N 9476   3.007   1.411   6.154  0.3027  0.0817  0.0904
   96SAPS   HN1 9477   2.940   1.478   6.197 -1.1859 -2.4900  1.8874
   96SAPS   HN2 9478   2.951   1.325   6.137  1.4574 -0.5750 -0.4802
   96SAPS   HN3 9479   3.082   1.402   6.226  1.5008  0.6554 -1.0560
   96SAPS   C12 9480   3.076   1.462   6.026  1.1580 -0.9633 -0.1542
   96SAPS  H12A 9481   3.132   1.382   5.980  0.9535 -1.6685  0.8160
   96SAPS   C13 9482   2.976   1.494   5.909 -0.1102  0.2359 -0.1094
   96SAPS  O13A 9483   2.851   1.491   5.942  0.0888 -0.4727  0.4465
   96SAPS  O13B 9484   3.012   1.490   5.788 -0.3430  0.4139 -0.3295
   96SAPS   C11 9485   3.155   1.590   6.059 -0.1567 -0.5376  0.9018
   96SAPS  H11A 9486   3.080   1.669   6.081 -0.8444 -0.3037 -2.0221
   96SAPS  H11B 9487   3.207   1.617   5.964 -1.0932 -1.9369 -0.0264
   96SAPS     P 9488   3.326   1.706   6.212 -0.0675  0.0640  0.0069
   96SAPS   O13 9489   3.452   1.660   6.284 -0.4251 -0.2695  0.2311
   96SAPS   O14 9490   3.328   1.792   6.094  0.4612 -0.6177  0.2990
   96SAPS   O12 9491   3.242   1.575   6.178  0.0126  0.4206 -0.6189
   96SAPS   O11 9492   3.235   1.773   6.317  0.2173 -0.5766  0.1341
   96SAPS    C1 9493   3.128   1.705   6.386  0.1774  1.0957  1.0548
   96SAPS    HA 9494   3.052   1.777   6.421 -0.6425  0.1488  1.2429
   96SAPS    HB 9495   3.077   1.637   6.314  2.9282 -0.4636  0.4923
   96SAPS    C2 9496   3.164   1.629   6.514  0.3623 -0.0332  0.2116
   96SAPS    HS 9497   3.242   1.553   6.494 -0.9747 -1.6269  0.8648
   96SAPS   O21 9498   3.047   1.560   6.570 -0.1615  0.5793  0.1770
   96SAPS   C21 9499   3.009   1.452   6.499  0.1699  0.1171  0.1222
   96SAPS   O22 9500   3.077   1.407   6.408 -0.0002  0.0744 -0.1109
   96SAPS   C22 9501   2.871   1.395   6.555 -0.4640  0.6219 -0.3456
   96SAPS   H2R 9502   2.894   1.356   6.656 -0.4641 -0.7074 -0.8500
   96SAPS   H2S 9503   2.797   1.477   6.567  1.5497  2.2841  1.0522
   96SAPS    C3 9504   3.224   1.731   6.616 -0.3154 -0.1531  0.1098
   96SAPS    HX 9505   3.140   1.793   6.654  0.7821  2.3690 -1.5258
   96SAPS    HY 9506   3.298   1.790   6.559  0.5424 -0.1024  1.2651
   96SAPS   O31 9507   3.267   1.661   6.733  0.0981  0.1732 -0.6872
   96SAPS   C31 9508   3.398   1.623   6.736  0.4414 -0.5073 -0.2029
   96SAPS   O32 9509   3.482   1.662   6.656  0.2989  0.6553  0.2540
   96SAPS   C32 9510   3.440   1.544   6.851 -0.4028 -0.6984  0.2810
   96SAPS   H2X 9511   3.463   1.618   6.930  0.6801 -0.5587 -0.1476
   96SAPS   H2Y 9512   3.538   1.494   6.834  0.3618 -0.5775  3.9997
   96SAPS   C23 9513   2.813   1.278   6.473 -0.7308  0.3248  0.3983
   96SAPS   H3R 9514   2.889   1.202   6.445  1.8270  2.6608  0.8249
   96SAPS   H3S 9515   2.770   1.314   6.377  1.4435 -1.0886 -1.1466
   96SAPS   C24 9516   2.699   1.207   6.551 -0.1654 -0.4167 -0.8393
   96SAPS   H4R 9517   2.640   1.149   6.476  0.8134 -1.6964 -0.6493
   96SAPS   H4S 9518   2.628   1.280   6.594 -1.4249 -2.6449  1.0038
   96SAPS   C25 9519   2.759   1.111   6.660 -0.2930  0.2618  0.2696
   96SAPS   H5R 9520   2.789   1.016   6.613 -0.3973  0.6755 -0.6452
   96SAPS   C26 9521   2.798   1.133   6.785  0.3374  0.6829 -0.1311
   96SAPS   H6R 9522   2.855   1.050   6.830  2.2913  0.7811 -2.2928
   96SAPS   C27 9523   2.776   1.254   6.863  0.3527  0.0247  0.0348
   96SAPS   H7R 9524   2.709   1.318   6.801  0.7808  0.2370 -0.2104
   96SAPS   H7S 9525   2.872   1.310   6.867 -0.8549  2.1040  0.8115
   96SAPS   C28 9526   2.728   1.246   7.008 -0.5354 -0.5409 -0.6747
   96SAPS   H8R 9527   2.802   1.208   7.080 -1.7527 -0.3171  0.7365
   96SAPS   C29 9528   2.616   1.285   7.065 -0.1818  0.9894  0.2431
   96SAPS   H9R 9529   2.607   1.274   7.174 -0.2520 -2.3820 -0.0355
   96SAPS  C210 9530   2.512   1.354   6.986 -0.0348  0.2786 -1.0649
   96SAPS  H10R 9531   2.423   1.288   6.986 -0.8722  1.3764 -0.9910
   96SAPS  H10S 9532   2.523   1.374   6.877  0.6896  2.6754 -0.5866
   96SAPS  C211 9533   2.472   1.479   7.060  0.5003 -0.3416 -0.5289
   96SAPS  H11R 9534   2.536   1.564   7.034 -0.5850  0.9101  0.8238
   96SAPS  C212 9535   2.382   1.481   7.159 -0.4694 -0.0072  0.8587
   96SAPS  H12R 9536   2.363   1.578   7.206 -0.8825  0.4530 -0.2371
   96SAPS  C213 9537   2.306   1.355   7.213  0.2705 -0.3383 -0.0132
   96SAPS  H13R 9538   2.379   1.279   7.247  0.3060 -0.6240 -0.7132
   96SAPS  H13S 9539   2.256   1.302   7.129  1.7878 -0.4715 -0.8481
   96SAPS  C214 9540   2.214   1.386   7.329 -0.3576  0.1297 -1.0897
   96SAPS  H14R 9541   2.110   1.415   7.308  0.1333  3.2563  0.5530
   96SAPS  C215 9542   2.243   1.390   7.456  0.1305  0.3933 -0.9213
   96SAPS  H15R 9543   2.158   1.407   7.524  1.1025  1.7028 -0.0065
   96SAPS  C216 9544   2.377   1.362   7.524 -0.5304 -0.1202 -0.1045
   96SAPS  H16R 9545   2.451   1.311   7.458  0.1696 -1.0380  1.3614
   96SAPS  H16S 9546   2.367   1.296   7.613  2.0932  0.4612  0.6727
   96SAPS  C217 9547   2.447   1.486   7.570  0.2210 -0.1451  0.7267
   96SAPS  H17R 9548   2.444   1.547   7.477  1.5829 -1.3466 -0.1162
   96SAPS  H17S 9549   2.552   1.456   7.589 -0.3567 -1.9100  1.2727
   96SAPS  C218 9550   2.379   1.561   7.686 -0.0929 -0.0428  0.0745
   96SAPS  H18R 9551   2.273   1.527   7.689 -1.1839  3.3319  4.2094
   96SAPS  H18S 9552   2.376   1.670   7.665 -0.3484 -0.4472 -2.0633
   96SAPS  C219 9553   2.446   1.541   7.828  0.4461  0.2257 -0.6098
   96SAPS  H19R 9554   2.553   1.569   7.817  0.6946 -0.0729  1.0290
   96SAPS  H19S 9555   2.435   1.436   7.864 -0.6642  0.0799 -1.3479
   96SAPS  C220 9556   2.377   1.633   7.928  0.3636  0.5690 -0.6937
   96SAPS  H20R 9557   2.274   1.602   7.953 -0.0090  0.9498 -1.7545
   96SAPS  H20S 9558   2.381   1.741   7.903 -2.0932  1.1147  1.0923
   96SAPS  H20T 9559   2.436   1.628   8.022  0.4831  0.6830 -0.7609
   96SAPS   C33 9560   3.337   1.447   6.907 -0.3114  0.6396 -0.2207
   96SAPS   H3X 9561   3.340   1.364   6.834  2.3049  0.9021 -0.4732
   96SAPS   H3Y 9562   3.232   1.483   6.907 -1.2592 -1.9691 -2.4719
   96SAPS   C34 9563   3.372   1.384   7.041 -0.1261 -0.4010  0.4114
   96SAPS   H4X 9564   3.479   1.354   7.045 -0.0334  0.1875  2.9856
   96SAPS   H4Y 9565   3.296   1.310   7.073 -1.0424 -0.1547 -1.1519
   96SAPS   C35 9566   3.352   1.491   7.162 -0.1821 -0.4981  0.5909
   96SAPS   H5X 9567   3.246   1.521   7.167 -0.3117 -0.5513 -1.6176
   96SAPS   H5Y 9568   3.416   1.578   7.138 -3.8044  1.7443 -1.3459
   96SAPS   C36 9569   3.393   1.422   7.299  0.2407  0.1205  0.3255
   96SAPS   H6X 9570   3.501   1.444   7.312  0.1283  0.7379  0.2486
   96SAPS   H6Y 9571   3.392   1.312   7.288 -2.1433  0.1719 -0.2286
   96SAPS   C37 9572   3.315   1.474   7.421 -0.8369  0.6063  0.7656
   96SAPS   H7X 9573   3.210   1.438   7.408  1.2885 -5.0851 -2.3718
   96SAPS   H7Y 9574   3.323   1.584   7.414 -1.2978  0.9125  4.1891
   96SAPS   C38 9575   3.357   1.403   7.547  0.9567  0.5945 -0.2862
   96SAPS   H8X 9576   3.468   1.394   7.542  0.9590 -0.2785  1.2571
   96SAPS   H8Y 9577   3.319   1.299   7.557  1.4826 -0.0428 -4.0278
   96SAPS   C39 9578   3.330   1.481   7.675 -0.6083 -0.4895 -0.2288
   96SAPS   H9X 9579   3.221   1.485   7.699 -1.0004 -2.7378 -1.5152
   96SAPS   H9Y 9580   3.378   1.580   7.664 -0.7126 -0.4320 -0.1757
   96SAPS  C310 9581   3.388   1.406   7.792  0.0022  0.3490  0.4416
   96SAPS  H10X 9582   3.497   1.396   7.770  0.0888  1.6637  0.2590
   96SAPS  H10Y 9583   3.350   1.302   7.799 -1.8980  0.8769 -1.6050
   96SAPS  C311 9584   3.370   1.477   7.928 -0.0310  0.0060  0.3894
   96SAPS  H11X 9585   3.260   1.476   7.944 -0.4561 -0.4956 -2.2177
   96SAPS  H11Y 9586   3.418   1.577   7.922 -1.6686  0.7038 -1.6214
   96SAPS  C312 9587   3.422   1.395   8.050 -0.0054 -0.0743 -0.0145
   96SAPS  H12X 9588   3.531   1.399   8.030 -0.1735  0.7954 -0.7714
   96SAPS  H12Y 9589   3.385   1.291   8.036  0.6728 -0.2614 -0.4559
   96SAPS  C313 9590   3.379   1.441   8.190  0.2586 -0.5267  0.1811
   96SAPS  H13X 9591   3.270   1.427   8.202 -0.3325  3.4297  0.2772
   96SAPS  H13Y 9592   3.389   1.550   8.212 -0.1974 -0.1312 -1.4989
   96SAPS  C314 9593   3.464   1.354   8.287 -0.4316 -0.1179 -0.7055
   96SAPS  H14X 9594   3.568   1.393   8.274  0.3534 -1.8262  0.2605
   96SAPS  H14Y 9595   3.460   1.250   8.250 -0.2085 -0.4526  0.2013
   96SAPS  C315 9596   3.409   1.341   8.431 -0.1398 -0.0387 -0.2452
   96SAPS  H15X 9597   3.468   1.259   8.477 -0.8178 -0.8012 -0.7266
   96SAPS  H15Y 9598   3.301   1.316   8.430 -0.6390  1.9135  1.9248
   96SAPS  C316 9599   3.432   1.478   8.507  0.0707 -0.3394  0.7638
   96SAPS  H16X 9600   3.341   1.534   8.476  0.0902 -1.4637 -1.4163
   96SAPS  H16Y 9601   3.513   1.539   8.461  1.1574  0.0482  3.1321
   96SAPS  C317 9602   3.451   1.458   8.657  0.3289  0.5117 -0.3099
   96SAPS  H17X 9603   3.554   1.420   8.669 -0.5034 -1.9802 -0.8207
   96SAPS  H17Y 9604   3.384   1.377   8.693 -0.1521 -0.2827 -2.8968
   96SAPS  C318 9605   3.430   1.588   8.744 -0.1204  0.0803 -0.2651
   96SAPS  H18X 9606   3.483   1.590   8.842 -0.2854 -0.0155 -0.1720
   96SAPS  H18Y 9607   3.320   1.592   8.765 -0.0476 -1.7211  0.5717
   96SAPS  H18Z 9608   3.460   1.675   8.683 -1.0615  0.5964 -0.0182
   97SAPS     N 9609   4.143   5.894   6.214  0.1268 -0.5004  0.0184
   97SAPS   HN1 9610   4.158   5.805   6.161  1.1717  0.2144 -0.9011
   97SAPS   HN2 9611   4.070   5.883   6.287  0.3404  0.3303  0.3598
   97SAPS   HN3 9612   4.108   5.954   6.137  1.4714 -1.6111 -1.4982
   97SAPS   C12 9613   4.265   5.949   6.275  0.3803  0.0268  0.3471
   97SAPS  H12A 9614   4.312   5.873   6.335 -1.5821  0.6454  2.7418
   97SAPS   C13 9615   4.372   6.000   6.176  0.2884  0.2472 -0.5311
   97SAPS  O13A 9616   4.347   5.988   6.054  0.2012 -0.2416  0.5347
   97SAPS  O13B 9617   4.480   6.044   6.214 -0.6705  0.1065 -0.3346
   97SAPS   C11 9618   4.211   6.069   6.358  0.7663 -0.8822  0.2469
   97SAPS  H11A 9619   4.300   6.121   6.399  0.4370 -0.6402  0.6688
   97SAPS  H11B 9620   4.169   6.037   6.456 -0.6074 -0.1143 -0.0774
   97SAPS     P 9621   4.073   6.299   6.330  0.0229 -0.2310 -0.0001
   97SAPS   O13 9622   4.180   6.385   6.281  0.0663  0.6747  0.0970
   97SAPS   O14 9623   3.934   6.322   6.283 -1.0541 -0.1102 -0.0305
   97SAPS   O12 9624   4.112   6.151   6.283 -0.1510  0.4387  0.3989
   97SAPS   O11 9625   4.084   6.294   6.484  0.0289  0.2850 -0.1460
   97SAPS    C1 9626   3.979   6.227   6.554  0.0842 -0.0405  0.1830
   97SAPS    HA 9627   3.891   6.293   6.571 -0.2096 -0.8180  1.7772
   97SAPS    HB 9628   3.938   6.136   6.505 -0.7275 -0.6797  2.0203
   97SAPS    C2 9629   4.032   6.193   6.692  0.2981  0.1163 -0.3177
   97SAPS    HS 9630   4.052   6.288   6.747 -0.0448 -0.1220  0.2159
   97SAPS   O21 9631   4.145   6.105   6.684  0.1063 -0.3479 -0.1372
   97SAPS   C21 9632   4.248   6.141   6.767  0.4951  0.4720 -0.7360
   97SAPS   O22 9633   4.245   6.239   6.839  0.1004  0.3160  0.7876
   97SAPS   C22 9634   4.364   6.038   6.765  0.1384 -0.1544  0.1694
   97SAPS   H2R 9635   4.365   5.977   6.673  0.7537  0.2134 -0.0638
   97SAPS   H2S 9636   4.461   6.090   6.763  1.6214 -2.8401 -0.1970
   97SAPS    C3 9637   3.917   6.120   6.770 -0.4402  0.1167  0.7379
   97SAPS    HX 9638   3.916   6.014   6.738 -2.9681  0.7180 -1.3615
   97SAPS    HY 9639   3.822   6.175   6.752  0.4668  1.7090  0.7062
   97SAPS   O31 9640   3.957   6.117   6.909  0.5861 -0.6067 -0.2354
   97SAPS   C31 9641   3.908   6.210   6.980  1.2160  0.0632 -0.6569
   97SAPS   O32 9642   3.846   6.313   6.945 -0.0801 -0.4244  0.3939
   97SAPS   C32 9643   3.938   6.173   7.117  0.2090 -0.2550 -0.1507
   97SAPS   H2X 9644   3.921   6.254   7.191 -1.5182 -0.2069 -0.5886
   97SAPS   H2Y 9645   4.046   6.151   7.134  0.3505  0.6312  0.0972
   97SAPS   C23 9646   4.351   5.947   6.888 -0.5203  0.5763  0.6050
   97SAPS   H3R 9647   4.427   5.866   6.880 -1.5499 -0.4338  0.8101
   97SAPS   H3S 9648   4.248   5.906   6.898 -1.0494  1.0961 -2.2534
   97SAPS   C24 9649   4.380   6.019   7.028  0.4247  0.6815 -0.5765
   97SAPS   H4R 9650   4.326   5.966   7.109  0.8148 -0.2548 -0.9296
   97SAPS   H4S 9651   4.322   6.114   7.032 -1.9238 -0.7695  0.5657
   97SAPS   C25 9652   4.530   6.048   7.050 -0.9325  0.5207  0.3264
   97SAPS   H5R 9653   4.592   6.052   6.960 -0.9248 -1.1379  0.2349
   97SAPS   C26 9654   4.588   6.058   7.172  0.0670 -0.7912  0.5313
   97SAPS   H6R 9655   4.698   6.059   7.170  0.0635 -0.2489  0.4056
   97SAPS   C27 9656   4.519   6.038   7.305 -0.2979 -0.6308 -0.3247
   97SAPS   H7R 9657   4.426   5.977   7.292  0.7684 -1.9735 -1.8654
   97SAPS   H7S 9658   4.471   6.131   7.342  2.4093  0.3519  0.7912
   97SAPS   C28 9659   4.601   5.986   7.421  0.8855 -0.7401 -0.1523
   97SAPS   H8R 9660   4.610   5.876   7.421  2.2795 -0.6367  1.0664
   97SAPS   C29 9661   4.654   6.063   7.523 -0.1082  0.5173 -0.1050
   97SAPS   H9R 9662   4.715   6.013   7.600  0.3081  2.3601  0.8013
   97SAPS  C210 9663   4.640   6.216   7.537 -0.4402 -0.1825 -0.1106
   97SAPS  H10R 9664   4.532   6.233   7.558 -0.5083 -0.5717 -0.1420
   97SAPS  H10S 9665   4.650   6.265   7.437 -2.5523 -0.4651 -0.4832
   97SAPS  C211 9666   4.739   6.277   7.638  0.2770  0.0232  0.5945
   97SAPS  H11R 9667   4.834   6.291   7.584  1.6283 -2.9077  2.0871
   97SAPS  C212 9668   4.720   6.300   7.772  0.2136 -0.1196 -0.1949
   97SAPS  H12R 9669   4.802   6.351   7.824 -2.0787  2.7644  0.7257
   97SAPS  C213 9670   4.593   6.278   7.852  0.0334  0.4684 -0.7516
   97SAPS  H13R 9671   4.506   6.275   7.784 -1.1071  1.1462  0.6412
   97SAPS  H13S 9672   4.580   6.363   7.923 -1.5244 -0.4432  0.0879
   97SAPS  C214 9673   4.596   6.148   7.925 -0.0972  0.0908 -0.2144
   97SAPS  H14R 9674   4.662   6.072   7.882  1.8073  2.2025 -1.1468
   97SAPS  C215 9675   4.522   6.115   8.028  0.2514 -0.8785 -0.0033
   97SAPS  H15R 9676   4.544   6.021   8.080  1.2732 -0.1521  0.8955
   97SAPS  C216 9677   4.428   6.217   8.097  0.0613 -0.0440  0.2742
   97SAPS  H16R 9678   4.326   6.175   8.107  0.3904 -1.3674 -1.6609
   97SAPS  H16S 9679   4.425   6.318   8.050  0.4939  0.4337  1.2455
   97SAPS  C217 9680   4.500   6.235   8.240  0.4104  0.5585 -0.3836
   97SAPS  H17R 9681   4.440   6.321   8.278 -0.3490  0.1985 -0.7460
   97SAPS  H17S 9682   4.603   6.276   8.235  0.1970  1.4483  1.9458
   97SAPS  C218 9683   4.464   6.118   8.338  0.2809  0.2355 -0.9500
   97SAPS  H18R 9684   4.511   6.024   8.302 -0.2891 -1.0255  1.4517
   97SAPS  H18S 9685   4.356   6.096   8.351  0.0650  1.8902  0.1501
   97SAPS  C219 9686   4.529   6.153   8.471  0.3509 -0.0372  0.2025
   97SAPS  H19R 9687   4.626   6.203   8.451  0.9874 -1.0716  0.6504
   97SAPS  H19S 9688   4.548   6.057   8.523  1.1243  0.7913  1.4705
   97SAPS  C220 9689   4.445   6.250   8.554  0.1907  0.1787 -0.0917
   97SAPS  H20R 9690   4.485   6.270   8.656 -2.2635 -0.3386  1.0211
   97SAPS  H20S 9691   4.339   6.217   8.562 -0.0916  0.9273 -0.7390
   97SAPS  H20T 9692   4.446   6.354   8.516  1.1300  0.9811  2.0589
   97SAPS   C33 9693   3.868   6.038   7.164  0.7358 -0.0212  0.0871
   97SAPS   H3X 9694   3.897   5.950   7.102 -0.6497  0.3513 -1.0966
   97SAPS   H3Y 9695   3.758   6.046   7.160  0.4765 -2.4381  1.2748
   97SAPS   C34 9696   3.911   6.004   7.306 -0.3791  0.6329 -0.0342
   97SAPS   H4X 9697   3.909   6.097   7.366  0.3582  0.7659 -0.2146
   97SAPS   H4Y 9698   4.019   5.977   7.314 -0.5931  0.2886  1.8673
   97SAPS   C35 9699   3.824   5.883   7.374 -0.1065 -0.9234  0.5173
   97SAPS   H5X 9700   3.824   5.809   7.292 -1.7054  2.3559 -2.5754
   97SAPS   H5Y 9701   3.723   5.929   7.384 -0.0190 -0.4253 -0.7602
   97SAPS   C36 9702   3.890   5.817   7.500  0.0299 -0.2352 -0.6029
   97SAPS   H6X 9703   3.993   5.789   7.470  0.2667 -1.8324  1.5948
   97SAPS   H6Y 9704   3.842   5.721   7.528 -0.2649 -0.0555 -0.4897
   97SAPS   C37 9705   3.895   5.914   7.620 -0.1412  0.1475  0.5134
   97SAPS   H7X 9706   3.788   5.940   7.632 -0.5650 -0.8642 -0.9574
   97SAPS   H7Y 9707   3.950   6.002   7.581  0.2453 -0.4149 -0.2400
   97SAPS   C38 9708   3.960   5.867   7.746 -0.0088  0.0368 -0.3442
   97SAPS   H8X 9709   3.893   5.788   7.786 -2.1518  1.1549 -1.6291
   97SAPS   H8Y 9710   3.961   5.950   7.820  1.1469  1.1409 -1.5941
   97SAPS   C39 9711   4.103   5.807   7.722  0.0488 -0.0532 -0.0263
   97SAPS   H9X 9712   4.184   5.880   7.698  1.4758 -0.5822  2.9840
   97SAPS   H9Y 9713   4.106   5.725   7.647  1.6372  0.0534 -0.0909
   97SAPS  C310 9714   4.156   5.753   7.857 -0.0789  0.3699  0.5759
   97SAPS  H10X 9715   4.245   5.691   7.834  0.5207  1.6369 -0.6253
   97SAPS  H10Y 9716   4.087   5.679   7.903  0.1023  0.1967  0.5691
   97SAPS  C311 9717   4.185   5.868   7.962  0.4345 -0.0845  0.1407
   97SAPS  H11X 9718   4.151   5.968   7.927  0.6569 -0.6991 -1.9496
   97SAPS  H11Y 9719   4.294   5.872   7.978  0.1890  2.1828  1.3585
   97SAPS  C312 9720   4.113   5.840   8.092 -0.5360 -0.8249  0.3535
   97SAPS  H12X 9721   4.142   5.738   8.124 -0.5368 -2.0816 -3.4646
   97SAPS  H12Y 9722   4.003   5.847   8.084 -0.6765 -1.2055  1.8827
   97SAPS  C313 9723   4.158   5.940   8.203  0.1346  0.1636 -0.4503
   97SAPS  H13X 9724   4.106   6.038   8.194  1.9382  0.9866 -2.1476
   97SAPS  H13Y 9725   4.264   5.971   8.192 -0.5745  2.7375 -0.3270
   97SAPS  C314 9726   4.137   5.896   8.354 -0.4735  0.4020 -0.3181
   97SAPS  H14X 9727   4.036   5.934   8.380 -0.0183  1.0185  0.6002
   97SAPS  H14Y 9728   4.206   5.954   8.420 -0.8390  0.2526  0.1987
   97SAPS  C315 9729   4.151   5.744   8.378  0.0287 -0.3490 -0.0796
   97SAPS  H15X 9730   4.080   5.694   8.309 -1.4028 -0.2246  1.2735
   97SAPS  H15Y 9731   4.122   5.719   8.482 -1.1445 -2.1711 -0.8037
   97SAPS  C316 9732   4.288   5.683   8.347  0.2283 -0.2446  0.0170
   97SAPS  H16X 9733   4.334   5.703   8.248  0.8855 -2.7494 -0.2046
   97SAPS  H16Y 9734   4.270   5.574   8.338  0.1079  0.0480 -4.0295
   97SAPS  C317 9735   4.383   5.714   8.465 -0.7688 -0.1156 -0.4539
   97SAPS  H17X 9736   4.338   5.724   8.566  1.3161  3.4896  0.2039
   97SAPS  H17Y 9737   4.418   5.818   8.448 -1.3982  0.0724 -0.6253
   97SAPS  C318 9738   4.500   5.619   8.461  0.7847  0.2256  0.1716
   97SAPS  H18X 9739   4.548   5.608   8.361  1.3458  1.4358  0.3014
   97SAPS  H18Y 9740   4.464   5.516   8.484  2.1620 -0.6934 -1.5710
   97SAPS  H18Z 9741   4.584   5.650   8.526  1.5233  1.3332 -1.2757
   98SAPS     N 9742   1.642   0.110   6.278 -0.1572  0.4577 -0.2028
   98SAPS   HN1 9743   1.734   0.086   6.320 -1.2594  0.7977  2.5141
   98SAPS   HN2 9744   1.615   0.209   6.295 -0.5628 -0.1716  3.1187
   98SAPS   HN3 9745   1.567   0.057   6.326  1.6077 -1.8192  0.1779
   98SAPS   C12 9746   1.652   0.080   6.126 -0.3123  0.2755 -0.1597
   98SAPS  H12A 9747   1.561   0.096   6.069 -0.7395 -0.4458  0.3226
   98SAPS   C13 9748   1.761   0.165   6.063 -0.1642  0.1201 -0.1972
   98SAPS  O13A 9749   1.800   0.273   6.118 -0.3971  0.0772  0.2372
   98SAPS  O13B 9750   1.786   0.146   5.942  0.7048  0.0487  0.2767
   98SAPS   C11 9751   1.685  -0.076   6.103  0.1899  0.5102 -0.4808
   98SAPS  H11A 9752   1.794  -0.096   6.114  0.3428  0.2682 -2.3254
   98SAPS  H11B 9753   1.667  -0.086   5.994 -1.4251  0.8630 -0.2574
   98SAPS     P 9754   1.635  -0.317   6.155  0.3978 -0.0075  0.3419
   98SAPS   O13 9755   1.503  -0.387   6.152  0.3426 -0.3237 -0.4787
   98SAPS   O14 9756   1.727  -0.331   6.039 -0.0231  0.1474  0.0052
   98SAPS   O12 9757   1.604  -0.161   6.187  0.0183 -0.1684  0.4286
   98SAPS   O11 9758   1.710  -0.368   6.275 -0.3182  0.6869  0.4204
   98SAPS    C1 9759   1.842  -0.339   6.312 -0.0717  0.1740  0.1918
   98SAPS    HA 9760   1.902  -0.405   6.245  0.1982 -2.1853  2.6669
   98SAPS    HB 9761   1.873  -0.232   6.304  0.0145  0.1345 -0.0115
   98SAPS    C2 9762   1.884  -0.386   6.453  1.0408  0.1087  0.3613
   98SAPS    HS 9763   1.842  -0.486   6.472  1.5001  0.4224  3.2457
   98SAPS   O21 9764   1.835  -0.292   6.555 -0.6608 -0.6299  0.1048
   98SAPS   C21 9765   1.709  -0.295   6.582 -0.0663  0.7345  0.1666
   98SAPS   O22 9766   1.631  -0.374   6.534 -0.6181  0.6566  0.3540
   98SAPS   C22 9767   1.682  -0.182   6.684  0.7260 -0.4455  0.2149
   98SAPS   H2R 9768   1.756  -0.210   6.762  0.1757 -1.6375  0.3205
   98SAPS   H2S 9769   1.720  -0.088   6.639  1.9985 -1.7127 -1.4030
   98SAPS    C3 9770   2.031  -0.411   6.466  0.8717  0.2666  0.5251
   98SAPS    HX 9771   2.080  -0.311   6.472  2.1278 -0.3581  0.9460
   98SAPS    HY 9772   2.058  -0.466   6.373  1.0968  1.2492  0.0030
   98SAPS   O31 9773   2.071  -0.489   6.585 -0.3688  0.5801  0.1346
   98SAPS   C31 9774   2.193  -0.472   6.627 -0.5972 -0.6362 -0.1423
   98SAPS   O32 9775   2.271  -0.405   6.565 -0.6423 -0.4080 -0.4922
   98SAPS   C32 9776   2.204  -0.533   6.765 -0.1484  0.5117 -1.4607
   98SAPS   H2X 9777   2.299  -0.590   6.766 -0.0713  0.6441 -1.2160
   98SAPS   H2Y 9778   2.120  -0.606   6.776  0.0385  0.2593 -1.7120
   98SAPS   C23 9779   1.534  -0.168   6.729  0.6674 -0.4392 -0.0358
   98SAPS   H3R 9780   1.504  -0.274   6.739 -0.4907 -0.2249 -1.0875
   98SAPS   H3S 9781   1.477  -0.133   6.640 -0.1258  0.2683  0.7448
   98SAPS   C24 9782   1.505  -0.088   6.865 -1.1520 -0.5338  0.5915
   98SAPS   H4R 9783   1.549   0.012   6.844  0.4392 -1.7410 -2.1406
   98SAPS   H4S 9784   1.551  -0.143   6.949 -1.6060 -2.2639 -0.2701
   98SAPS   C25 9785   1.359  -0.076   6.885 -0.5034  0.6060 -0.7637
   98SAPS   H5R 9786   1.308  -0.019   6.806 -3.0881 -2.9484 -1.7650
   98SAPS   C26 9787   1.292  -0.122   6.995 -0.8468  0.0305  0.4039
   98SAPS   H6R 9788   1.184  -0.101   7.001 -1.0140  0.4886 -3.0682
   98SAPS   C27 9789   1.354  -0.197   7.111  0.5913 -0.8650  0.0353
   98SAPS   H7R 9790   1.428  -0.257   7.053 -1.4335 -1.5372 -1.8935
   98SAPS   H7S 9791   1.281  -0.263   7.161 -0.9168  1.5094  1.0740
   98SAPS   C28 9792   1.433  -0.104   7.199  0.5654 -0.6778  0.2613
   98SAPS   H8R 9793   1.507  -0.044   7.145 -0.8482 -0.0956 -1.0506
   98SAPS   C29 9794   1.415  -0.091   7.333 -0.4146 -0.4185  0.3917
   98SAPS   H9R 9795   1.500  -0.043   7.384  0.1490 -2.2841  1.2535
   98SAPS  C210 9796   1.322  -0.173   7.423  0.7587  0.2654  0.3341
   98SAPS  H10R 9797   1.233  -0.210   7.367  1.3453 -0.5504 -0.0805
   98SAPS  H10S 9798   1.282  -0.105   7.500 -0.7571 -0.3991  0.1495
   98SAPS  C211 9799   1.397  -0.294   7.476  0.5442  0.7015  0.2486
   98SAPS  H11R 9800   1.439  -0.363   7.401  2.9117  0.5359  1.6933
   98SAPS  C212 9801   1.434  -0.317   7.599 -0.1200 -0.2121  0.4632
   98SAPS  H12R 9802   1.469  -0.420   7.615 -1.3092 -1.0999 -2.2765
   98SAPS  C213 9803   1.405  -0.229   7.718  0.2476  0.6567 -0.4332
   98SAPS  H13R 9804   1.324  -0.280   7.774  1.4494 -0.6727  0.1144
   98SAPS  H13S 9805   1.374  -0.124   7.696 -2.2987 -0.1898 -1.0392
   98SAPS  C214 9806   1.517  -0.233   7.817  0.2939  0.6758 -0.0328
   98SAPS  H14R 9807   1.615  -0.231   7.767  0.1601  1.5876 -0.2795
   98SAPS  C215 9808   1.510  -0.225   7.950 -0.4810  0.2849  0.3427
   98SAPS  H15R 9809   1.605  -0.230   8.006  0.2104  0.8161 -0.7500
   98SAPS  C216 9810   1.386  -0.221   8.036  0.2685 -0.1155  0.0587
   98SAPS  H16R 9811   1.306  -0.195   7.964  0.9051  1.5048 -0.0849
   98SAPS  H16S 9812   1.398  -0.144   8.115  2.6838 -1.4089  1.0426
   98SAPS  C217 9813   1.342  -0.345   8.123 -0.5744 -0.3868  0.1556
   98SAPS  H17R 9814   1.241  -0.324   8.165  0.2122  0.0239  1.8432
   98SAPS  H17S 9815   1.409  -0.357   8.210 -1.6404  1.6860  1.2886
   98SAPS  C218 9816   1.346  -0.473   8.035 -0.1141  0.4638 -0.1245
   98SAPS  H18R 9817   1.452  -0.508   8.041 -0.1656  0.3668  0.2142
   98SAPS  H18S 9818   1.315  -0.455   7.930 -1.5553  1.0836  0.3934
   98SAPS  C219 9819   1.256  -0.586   8.085  0.3033  0.1159  0.1515
   98SAPS  H19R 9820   1.290  -0.616   8.187  1.0990  1.6710  0.3524
   98SAPS  H19S 9821   1.267  -0.673   8.017 -2.9277 -0.1225 -0.1359
   98SAPS  C220 9822   1.108  -0.552   8.094 -0.3705 -0.0250 -0.7294
   98SAPS  H20R 9823   1.060  -0.648   8.122  0.3386  0.2881  1.6554
   98SAPS  H20S 9824   1.066  -0.509   8.001 -0.1638 -1.6015 -1.5774
   98SAPS  H20T 9825   1.094  -0.480   8.177 -1.1964  0.8154 -1.5851
   98SAPS   C33 9826   2.198  -0.433   6.878  0.1208  0.2656 -0.3999
   98SAPS   H3X 9827   2.251  -0.336   6.866  1.5897 -0.5121 -0.3145
   98SAPS   H3Y 9828   2.256  -0.479   6.960 -0.1745  1.9026  0.7703
   98SAPS   C34 9829   2.044  -0.409   6.904  0.4325 -0.1230 -0.1827
   98SAPS   H4X 9830   1.999  -0.390   6.804 -0.6763 -0.0784  0.3173
   98SAPS   H4Y 9831   2.034  -0.316   6.963  0.4563 -1.2034  1.5603
   98SAPS   C35 9832   1.966  -0.504   6.992  0.1509  0.7532 -0.6392
   98SAPS   H5X 9833   2.019  -0.503   7.090  1.2294  3.4041 -1.1929
   98SAPS   H5Y 9834   1.951  -0.603   6.945 -1.4135  0.7886 -0.2510
   98SAPS   C36 9835   1.825  -0.447   7.012  0.0999  0.5056  0.2755
   98SAPS   H6X 9836   1.783  -0.434   6.909 -0.7938  0.3210  0.6126
   98SAPS   H6Y 9837   1.830  -0.345   7.055  0.6972  0.1602  1.0303
   98SAPS   C37 9838   1.738  -0.548   7.094 -0.2688 -0.5997  0.8887
   98SAPS   H7X 9839   1.753  -0.648   7.047 -1.1361 -0.5878  0.5756
   98SAPS   H7Y 9840   1.627  -0.536   7.098 -0.5826 -1.6743 -2.9310
   98SAPS   C38 9841   1.783  -0.533   7.240  0.2301  0.4082 -0.1929
   98SAPS   H8X 9842   1.885  -0.488   7.247 -0.0539  0.9222  0.7081
   98SAPS   H8Y 9843   1.783  -0.630   7.294 -0.2865  0.7693  0.4650
   98SAPS   C39 9844   1.701  -0.438   7.330 -0.2695 -0.0995 -0.2245
   98SAPS   H9X 9845   1.603  -0.484   7.355 -0.5568 -0.0221 -1.1818
   98SAPS   H9Y 9846   1.688  -0.340   7.278 -0.5981 -1.5149 -2.8911
   98SAPS  C310 9847   1.765  -0.413   7.462 -0.1344  0.4984 -0.5523
   98SAPS  H10X 9848   1.697  -0.340   7.510  1.4296  1.7569 -0.2058
   98SAPS  H10Y 9849   1.867  -0.368   7.463  0.6280 -1.1776  1.6853
   98SAPS  C311 9850   1.810  -0.521   7.564 -0.1021  0.3846 -0.3684
   98SAPS  H11X 9851   1.879  -0.592   7.514  0.0146  0.4433 -0.2881
   98SAPS  H11Y 9852   1.724  -0.582   7.599  1.8848 -1.6534  1.0463
   98SAPS  C312 9853   1.862  -0.449   7.695  0.2487  0.0431  0.1790
   98SAPS  H12X 9854   1.810  -0.356   7.726 -1.8388 -0.4438 -1.7892
   98SAPS  H12Y 9855   1.960  -0.406   7.666  0.1906  0.9047  1.2369
   98SAPS  C313 9856   1.874  -0.540   7.829 -0.6950 -0.5064  0.3998
   98SAPS  H13X 9857   1.978  -0.578   7.830 -0.8571 -0.9858 -0.2711
   98SAPS  H13Y 9858   1.799  -0.621   7.815  0.2894 -1.4037  0.2367
   98SAPS  C314 9859   1.836  -0.468   7.958 -0.3126  0.1332  0.3684
   98SAPS  H14X 9860   1.725  -0.462   7.958 -0.4201 -0.7504 -3.6581
   98SAPS  H14Y 9861   1.865  -0.361   7.962  1.5430 -0.3443 -0.0276
   98SAPS  C315 9862   1.877  -0.547   8.082  0.3396 -0.0239  0.9898
   98SAPS  H15X 9863   1.985  -0.533   8.102  0.3258  0.5391  0.6887
   98SAPS  H15Y 9864   1.861  -0.654   8.055 -0.2000 -0.2724  2.2958
   98SAPS  C316 9865   1.800  -0.498   8.206  0.2228 -0.0858  0.1564
   98SAPS  H16X 9866   1.690  -0.511   8.195  0.4070 -1.7285  0.0738
   98SAPS  H16Y 9867   1.829  -0.392   8.219  1.5110 -0.1254 -2.1014
   98SAPS  C317 9868   1.848  -0.578   8.330  0.7467  0.0362 -0.4969
   98SAPS  H17X 9869   1.959  -0.582   8.338  0.8583  2.3200 -0.6817
   98SAPS  H17Y 9870   1.816  -0.682   8.310 -0.2592  0.1532  0.4785
   98SAPS  C318 9871   1.790  -0.523   8.458  0.1713  0.7899  0.1490
   98SAPS  H18X 9872   1.837  -0.430   8.497 -0.9461  1.4353 -0.0045
   98SAPS  H18Y 9873   1.822  -0.583   8.546  0.9694  2.3312  0.9298
   98SAPS  H18Z 9874   1.681  -0.503   8.452  0.0904  0.9452  1.8687
   99SAPS     N 9875   1.570   3.887   5.916 -0.7037 -0.6588  0.1298
   99SAPS   HN1 9876   1.491   3.837   5.869 -0.5767  0.4949 -1.3833
   99SAPS   HN2 9877   1.555   3.988   5.898 -2.6933 -1.1163 -1.0070
   99SAPS   HN3 9878   1.663   3.865   5.874 -0.9228  0.5087 -1.0150
   99SAPS   C12 9879   1.579   3.878   6.062  0.0487  0.5555 -0.3926
   99SAPS  H12A 9880   1.580   3.773   6.089 -1.9272  0.8919  1.1813
   99SAPS   C13 9881   1.697   3.955   6.124 -0.4447  1.1456  0.7552
   99SAPS  O13A 9882   1.752   4.049   6.057  0.0739  0.1511 -0.2118
   99SAPS  O13B 9883   1.732   3.925   6.238 -0.6753  0.3861 -0.5353
   99SAPS   C11 9884   1.442   3.921   6.124 -0.4121 -0.5851  0.1141
   99SAPS  H11A 9885   1.415   4.027   6.103 -1.4157 -0.8119  0.2301
   99SAPS  H11B 9886   1.451   3.921   6.234  2.0746  2.1594 -0.0307
   99SAPS     P 9887   1.289   3.703   6.154  0.2227 -0.1185 -0.2304
   99SAPS   O13 9888   1.165   3.657   6.085  0.4892  0.3606  0.4865
   99SAPS   O14 9889   1.396   3.604   6.167 -0.5327 -0.5558  0.5703
   99SAPS   O12 9890   1.337   3.833   6.074 -0.0681 -0.4808  0.3150
   99SAPS   O11 9891   1.248   3.769   6.298  0.1757  0.5904  0.6223
   99SAPS    C1 9892   1.150   3.865   6.312 -0.2165  0.0898  0.7060
   99SAPS    HA 9893   1.176   3.957   6.256 -0.1400 -0.3611 -0.0078
   99SAPS    HB 9894   1.051   3.833   6.272 -0.0154  2.0678 -1.4624
   99SAPS    C2 9895   1.148   3.904   6.462  0.2060  0.1425  0.5533
   99SAPS    HS 9896   1.082   3.993   6.469 -1.1220 -0.5189 -2.5744
   99SAPS   O21 9897   1.278   3.940   6.505 -0.0680  0.3369 -0.1503
   99SAPS   C21 9898   1.340   4.047   6.454 -0.4545 -0.1400 -0.0475
   99SAPS   O22 9899   1.281   4.122   6.372 -0.2452 -0.2048  0.0245
   99SAPS   C22 9900   1.484   4.050   6.508 -0.2658 -0.6499  0.6375
   99SAPS   H2R 9901   1.500   3.954   6.562 -3.1138 -1.0197  0.8997
   99SAPS   H2S 9902   1.555   4.045   6.423  0.7848 -0.0434  1.4840
   99SAPS    C3 9903   1.102   3.797   6.556  0.3552  0.0770 -0.2014
   99SAPS    HX 9904   1.139   3.702   6.511  0.3269 -0.5744  1.1038
   99SAPS    HY 9905   0.992   3.782   6.554  0.5944 -2.0937  1.2621
   99SAPS   O31 9906   1.134   3.826   6.698 -0.4745 -0.0721  0.4259
   99SAPS   C31 9907   1.235   3.745   6.738 -0.6365 -0.5674  0.0970
   99SAPS   O32 9908   1.311   3.685   6.671  0.1915 -0.2298 -0.5386
   99SAPS   C32 9909   1.248   3.759   6.886  0.1999 -0.1002 -0.0937
   99SAPS   H2X 9910   1.205   3.675   6.944  1.7991 -0.4697  0.5822
   99SAPS   H2Y 9911   1.187   3.848   6.913  1.4148  0.9900 -0.8613
   99SAPS   C23 9912   1.522   4.165   6.599  0.2848 -0.6499  0.2916
   99SAPS   H3R 9913   1.447   4.174   6.681  0.5668 -1.7271  0.6712
   99SAPS   H3S 9914   1.530   4.259   6.540 -0.2271  0.2476  1.6401
   99SAPS   C24 9915   1.664   4.146   6.654  0.2006  0.0916 -0.1005
   99SAPS   H4R 9916   1.706   4.244   6.684 -0.5405  0.6728 -0.9593
   99SAPS   H4S 9917   1.734   4.112   6.575 -1.2187 -3.5207  0.0603
   99SAPS   C25 9918   1.678   4.039   6.759  0.1449  0.3139 -1.0572
   99SAPS   H5R 9919   1.679   3.939   6.713  1.2936 -0.8503  1.4297
   99SAPS   C26 9920   1.695   4.051   6.891  0.4043 -0.0774 -1.0625
   99SAPS   H6R 9921   1.718   3.963   6.953  0.4367 -0.7735 -2.0441
   99SAPS   C27 9922   1.688   4.181   6.970  0.0139  0.5365  0.0006
   99SAPS   H7R 9923   1.650   4.267   6.912 -1.4662  1.5509  2.4178
   99SAPS   H7S 9924   1.797   4.200   6.987 -0.2430 -0.2738  2.8420
   99SAPS   C28 9925   1.619   4.192   7.098  0.3375  1.2382  0.0354
   99SAPS   H8R 9926   1.510   4.176   7.092  0.4635  0.2706  0.1932
   99SAPS   C29 9927   1.673   4.224   7.215 -0.2224  0.5597  0.4127
   99SAPS   H9R 9928   1.606   4.221   7.303  2.1233  0.8801  2.2741
   99SAPS  C210 9929   1.818   4.271   7.248  0.4644  0.2355  0.4805
   99SAPS  H10R 9930   1.883   4.260   7.158  2.9946 -1.9702  2.5130
   99SAPS  H10S 9931   1.867   4.199   7.316  1.1705  0.9466  0.7324
   99SAPS  C211 9932   1.821   4.412   7.302 -0.5067 -0.9794 -0.3809
   99SAPS  H11R 9933   1.832   4.490   7.225 -1.4043 -0.0362  0.4350
   99SAPS  C212 9934   1.798   4.449   7.431  0.3044  0.5840  0.2419
   99SAPS  H12R 9935   1.808   4.557   7.451  1.0526  0.1655  2.2614
   99SAPS  C213 9936   1.786   4.364   7.552 -0.5902 -0.1008  0.0660
   99SAPS  H13R 9937   1.863   4.284   7.545 -0.0446  0.4374 -0.1164
   99SAPS  H13S 9938   1.686   4.316   7.547 -1.1124  1.0582 -0.7255
   99SAPS  C214 9939   1.799   4.423   7.690  0.2358  0.1444  0.6753
   99SAPS  H14R 9940   1.820   4.531   7.692  0.9257  0.0721 -1.5560
   99SAPS  C215 9941   1.793   4.348   7.801  0.8713  0.6107  0.4889
   99SAPS  H15R 9942   1.815   4.393   7.899  1.1440  0.8245  0.3305
   99SAPS  C216 9943   1.779   4.200   7.810  0.3803 -0.6812 -0.4994
   99SAPS  H16R 9944   1.858   4.161   7.877  1.7574  0.1610 -1.5986
   99SAPS  H16S 9945   1.798   4.150   7.712  0.6354  0.3663 -0.9898
   99SAPS  C217 9946   1.636   4.151   7.858 -0.4273 -0.2358 -0.1262
   99SAPS  H17R 9947   1.572   4.170   7.769  1.0423  0.7478 -0.9981
   99SAPS  H17S 9948   1.602   4.219   7.939 -1.9652 -0.4732 -0.5434
   99SAPS  C218 9949   1.642   4.007   7.901 -0.8384  0.2590  0.6463
   99SAPS  H18R 9950   1.540   3.967   7.922 -0.2828  0.1354  3.2616
   99SAPS  H18S 9951   1.695   4.001   7.998  0.2906 -1.4975 -0.0451
   99SAPS  C219 9952   1.709   3.907   7.807  0.5897  0.7327  0.4114
   99SAPS  H19R 9953   1.816   3.936   7.799  0.4397  0.8238 -1.4495
   99SAPS  H19S 9954   1.654   3.911   7.711  0.7625  0.9880  0.3220
   99SAPS  C220 9955   1.701   3.763   7.862 -0.6970  0.4943  0.6790
   99SAPS  H20R 9956   1.605   3.740   7.912 -1.0431  0.0369 -0.1779
   99SAPS  H20S 9957   1.785   3.751   7.935 -0.7830  1.7300  0.9894
   99SAPS  H20T 9958   1.723   3.693   7.778  1.8054  3.8325 -1.6254
   99SAPS   C33 9959   1.388   3.795   6.926 -0.0271  0.6633  0.2506
   99SAPS   H3X 9960   1.414   3.898   6.893 -1.6901  0.7311 -0.8755
   99SAPS   H3Y 9961   1.451   3.709   6.894 -1.1167  0.0018 -0.1555
   99SAPS   C34 9962   1.395   3.782   7.083 -0.6134 -0.3009 -0.5685
   99SAPS   H4X 9963   1.380   3.677   7.115  0.1797 -0.1295  0.4267
   99SAPS   H4Y 9964   1.312   3.840   7.128  1.0388  2.2973 -0.7427
   99SAPS   C35 9965   1.538   3.808   7.148 -0.1203  0.0057 -0.0984
   99SAPS   H5X 9966   1.583   3.906   7.124 -0.0434  0.1928  0.8088
   99SAPS   H5Y 9967   1.608   3.734   7.104  0.2720 -0.9060  1.9805
   99SAPS   C36 9968   1.550   3.791   7.300 -0.2198 -0.3932 -0.1618
   99SAPS   H6X 9969   1.535   3.685   7.330  1.0518 -0.5594 -0.0915
   99SAPS   H6Y 9970   1.466   3.844   7.350  0.0850 -1.1073  1.1301
   99SAPS   C37 9971   1.684   3.837   7.368  0.2888 -0.3045 -1.2317
   99SAPS   H7X 9972   1.702   3.805   7.473  0.6548 -0.5487 -1.3664
   99SAPS   H7Y 9973   1.681   3.948   7.368  1.7215 -0.2063  1.5715
   99SAPS   C38 9974   1.807   3.793   7.289 -0.6090  0.2768  0.0940
   99SAPS   H8X 9975   1.804   3.833   7.186  2.2400 -0.1985 -0.1982
   99SAPS   H8Y 9976   1.794   3.683   7.289 -1.5180  0.3754 -0.7152
   99SAPS   C39 9977   1.949   3.809   7.361  0.8566  0.3547 -0.3953
   99SAPS   H9X 9978   2.028   3.748   7.311  0.6495 -0.4651  0.2694
   99SAPS   H9Y 9979   1.921   3.759   7.456  0.4579  1.6666  0.1826
   99SAPS  C310 9980   1.985   3.960   7.384 -0.1765 -0.1458 -0.1726
   99SAPS  H10X 9981   1.896   4.007   7.431 -0.3980 -1.3192  0.6081
   99SAPS  H10Y 9982   1.992   4.010   7.285  2.1340 -2.7054 -1.3647
   99SAPS  C311 9983   2.106   3.984   7.482 -0.6378  0.0561 -1.2325
   99SAPS  H11X 9984   2.125   4.093   7.467 -2.7873  0.5958 -0.2656
   99SAPS  H11Y 9985   2.196   3.931   7.445  2.3516  2.5651  2.0440
   99SAPS  C312 9986   2.069   3.966   7.630  0.4038 -0.5644  0.6635
   99SAPS  H12X 9987   2.066   3.855   7.638  0.9568 -0.6878 -0.7616
   99SAPS  H12Y 9988   1.974   4.020   7.653  0.6698  0.2688 -0.1671
   99SAPS  C313 9989   2.186   4.022   7.712  0.4539  0.2723 -0.2413
   99SAPS  H13X 9990   2.198   4.131   7.726 -2.2089  0.8416 -1.8997
   99SAPS  H13Y 9991   2.285   3.989   7.672  1.4022  0.4044  1.9210
   99SAPS  C314 9992   2.169   3.950   7.849 -0.1574 -0.4254  0.4522
   99SAPS  H14X 9993   2.126   3.849   7.835 -0.0862 -0.4940  0.7280
   99SAPS  H14Y 9994   2.111   4.018   7.915  1.7028  0.2879  1.4130
   99SAPS  C315 9995   2.309   3.921   7.919 -0.6721  0.2846 -0.7146
   99SAPS  H15X 9996   2.361   4.015   7.946 -0.8368  0.8545 -2.3074
   99SAPS  H15Y 9997   2.377   3.868   7.849  1.5838  2.4178 -0.2149
   99SAPS  C316 9998   2.291   3.824   8.040  0.2525  0.2265  0.5834
   99SAPS  H16X 9999   2.195   3.845   8.092  1.1855  1.2203  1.9378
   99SAPS  H16Y10000   2.372   3.850   8.111 -0.2765  1.8329  0.6330
   99SAPS  C31710001   2.272   3.679   8.009 -0.2815  0.0405 -0.1226
   99SAPS  H17X10002   2.365   3.664   7.950 -0.1284 -0.8836  0.3444
   99SAPS  H17Y10003   2.194   3.640   7.940  0.6075 -0.3902 -0.9148
   99SAPS  C31810004   2.274   3.595   8.132 -0.4938 -0.3780  0.5823
   99SAPS  H18X10005   2.376   3.612   8.173 -0.3786  1.6341 -0.4403
   99SAPS  H18Y10006   2.265   3.486   8.115  3.1670 -0.5770 -0.6815
   99SAPS  H18Z10007   2.194   3.628   8.201  0.4173  1.2451  0.8850
  100SAPS     N10008   4.605   5.896   5.966  0.0564  0.2043 -0.3157
  100SAPS   HN110009   4.523   5.925   6.023  0.2735  0.6694 -0.2295
  100SAPS   HN210010   4.690   5.902   6.026 -0.9501  0.0456  1.1565
  100SAPS   HN310011   4.611   5.965   5.888  0.0080  0.1858 -0.3348
  100SAPS   C1210012   4.616   5.759   5.907  0.6355  0.8544 -0.0067
  100SAPS  H12A10013   4.531   5.741   5.843  1.0625 -1.6881  0.0821
  100SAPS   C1310014   4.741   5.720   5.829  0.5758 -0.2782 -0.2210
  100SAPS  O13A10015   4.827   5.810   5.807  0.4445 -0.0023 -0.6495
  100SAPS  O13B10016   4.756   5.603   5.776  0.5710 -0.0315  0.4583
  100SAPS   C1110017   4.616   5.664   6.024 -0.8993 -0.0242  0.0289
  100SAPS  H11A10018   4.713   5.656   6.077 -0.1886 -1.6158 -1.4315
  100SAPS  H11B10019   4.609   5.561   5.982  1.4244  0.8290 -2.6293
  100SAPS     P10020   4.430   5.573   6.183 -0.4668  0.1482 -0.0938
  100SAPS   O1310021   4.298   5.621   6.223  0.0598  0.4833  0.5239
  100SAPS   O1410022   4.435   5.451   6.100  0.7024 -0.2916  0.0665
  100SAPS   O1210023   4.505   5.695   6.107  0.0143  0.3657  0.1167
  100SAPS   O1110024   4.524   5.553   6.310 -0.8228 -0.2212  0.7569
  100SAPS    C110025   4.589   5.661   6.377 -0.0616  0.6590 -0.6016
  100SAPS    HA10026   4.699   5.665   6.367 -0.1595  2.5193 -1.1854
  100SAPS    HB10027   4.552   5.758   6.336 -1.0499 -0.5293 -2.6277
  100SAPS    C210028   4.560   5.647   6.530 -0.5842 -0.1049  0.4158
  100SAPS    HS10029   4.573   5.543   6.567 -1.4230 -1.1237 -2.0553
  100SAPS   O2110030   4.423   5.685   6.542  0.3100  0.2939 -0.1658
  100SAPS   C2110031   4.336   5.612   6.606 -0.1553  0.9224 -0.0368
  100SAPS   O2210032   4.357   5.494   6.630 -0.2983  0.0934  0.2466
  100SAPS   C2210033   4.199   5.682   6.607 -0.2264  0.3994 -0.6593
  100SAPS   H2R10034   4.203   5.771   6.674 -0.6550 -1.0837  1.3881
  100SAPS   H2S10035   4.172   5.707   6.502  0.2374  0.9692 -0.6460
  100SAPS    C310036   4.652   5.737   6.621 -0.2995 -0.4437  0.2880
  100SAPS    HX10037   4.633   5.843   6.596  1.0647 -0.6266 -1.6339
  100SAPS    HY10038   4.758   5.714   6.596 -0.8572 -1.9033 -0.8370
  100SAPS   O3110039   4.621   5.710   6.763 -0.6043 -0.4363  0.0591
  100SAPS   C3110040   4.682   5.605   6.814  0.3096  0.5495 -0.3737
  100SAPS   O3210041   4.755   5.528   6.759 -0.1266 -0.2816  0.7350
  100SAPS   C3210042   4.648   5.600   6.966  0.5747 -0.2116  0.2626
  100SAPS   H2X10043   4.573   5.519   6.977 -1.5340  1.7711  0.8913
  100SAPS   H2Y10044   4.610   5.698   7.002 -0.0270 -0.4651  0.3152
  100SAPS   C2310045   4.084   5.583   6.651 -0.0143  0.7978  0.2014
  100SAPS   H3R10046   4.112   5.485   6.607 -0.1676  1.4876 -1.4417
  100SAPS   H3S10047   3.996   5.607   6.587 -0.1085  0.1208  0.0712
  100SAPS   C2410048   4.055   5.577   6.801  0.4633  0.3848  0.6850
  100SAPS   H4R10049   3.962   5.515   6.800  0.9596 -0.3948  1.7488
  100SAPS   H4S10050   4.019   5.674   6.842 -2.0579  0.2660 -1.0969
  100SAPS   C2510051   4.158   5.516   6.897 -0.0281  0.8740  0.2417
  100SAPS   H5R10052   4.224   5.436   6.862  1.1689  0.7865  2.5676
  100SAPS   C2610053   4.177   5.556   7.024  0.2563  0.1709  0.0105
  100SAPS   H6R10054   4.258   5.512   7.084  0.1327 -0.8451 -0.5591
  100SAPS   C2710055   4.102   5.666   7.095  0.0601 -0.4548 -0.5816
  100SAPS   H7R10056   4.014   5.703   7.039  0.4184  0.0963 -0.7803
  100SAPS   H7S10057   4.165   5.757   7.091 -0.9363  0.2747  0.1294
  100SAPS   C2810058   4.068   5.620   7.235 -0.6439 -0.1716 -0.9037
  100SAPS   H8R10059   3.982   5.553   7.246 -0.0351 -0.7550  0.5525
  100SAPS   C2910060   4.137   5.650   7.348  0.4635 -0.9099 -0.1738
  100SAPS   H9R10061   4.109   5.615   7.449  2.0726  2.4182  1.5180
  100SAPS  C21010062   4.267   5.729   7.352 -0.3884  0.0401 -0.4852
  100SAPS  H10R10063   4.272   5.776   7.452 -0.3104  1.6139 -1.2083
  100SAPS  H10S10064   4.257   5.818   7.285 -2.5188  0.2979  0.1451
  100SAPS  C21110065   4.392   5.644   7.337 -0.3441 -0.4367 -0.2434
  100SAPS  H11R10066   4.435   5.631   7.237  2.3014 -0.9694  0.9290
  100SAPS  C21210067   4.458   5.599   7.450 -0.1859 -0.2231 -0.4065
  100SAPS  H12R10068   4.551   5.543   7.433 -1.0631 -1.2617 -1.8776
  100SAPS  C21310069   4.414   5.600   7.600 -0.4125  0.6696  0.1433
  100SAPS  H13R10070   4.448   5.503   7.641 -0.8793  1.2387  1.9213
  100SAPS  H13S10071   4.304   5.603   7.618 -0.2680 -1.5725  1.5267
  100SAPS  C21410072   4.469   5.720   7.674  0.0123 -0.7188 -0.7241
  100SAPS  H14R10073   4.412   5.805   7.633  0.6745 -1.2493 -2.7696
  100SAPS  C21510074   4.556   5.733   7.781 -0.0733  0.1652  0.4113
  100SAPS  H15R10075   4.590   5.836   7.800 -0.0029  0.0510  0.9162
  100SAPS  C21610076   4.634   5.622   7.847 -0.4319  0.3922 -0.6247
  100SAPS  H16R10077   4.733   5.618   7.796 -1.0406 -2.3013 -1.6592
  100SAPS  H16S10078   4.578   5.527   7.839  1.3565 -0.6324 -1.3178
  100SAPS  C21710079   4.654   5.642   8.001  0.9039  0.4147  0.1266
  100SAPS  H17R10080   4.696   5.553   8.053  0.4034  1.0147  1.5969
  100SAPS  H17S10081   4.551   5.650   8.041  0.4637  2.6645 -1.3934
  100SAPS  C21810082   4.723   5.770   8.064  0.5505 -0.2447  0.0704
  100SAPS  H18R10083   4.701   5.863   8.007  1.0725  0.3536  0.8368
  100SAPS  H18S10084   4.833   5.763   8.053  0.3200 -3.1833 -0.9595
  100SAPS  C21910085   4.699   5.798   8.201  0.0693  0.2356 -1.0241
  100SAPS  H19R10086   4.722   5.710   8.265 -0.5680  0.3799 -0.5948
  100SAPS  H19S10087   4.589   5.796   8.214  0.2663 -1.2255  0.5687
  100SAPS  C22010088   4.769   5.925   8.249 -0.0635  0.0962  0.2091
  100SAPS  H20R10089   4.729   5.958   8.347  1.9547  2.4174  0.3163
  100SAPS  H20S10090   4.751   6.012   8.182  2.0105  0.1166 -0.3581
  100SAPS  H20T10091   4.879   5.909   8.251 -0.5070 -3.3629 -0.4719
  100SAPS   C3310092   4.765   5.549   7.047  0.7199 -0.0759  0.2626
  100SAPS   H3X10093   4.855   5.609   7.020 -0.7115  2.5558  1.1934
  100SAPS   H3Y10094   4.799   5.444   7.031  0.6986  0.2681 -2.3098
  100SAPS   C3410095   4.754   5.585   7.193  0.5889 -0.4142 -0.4871
  100SAPS   H4X10096   4.675   5.526   7.246  0.2695  0.9602  0.5988
  100SAPS   H4Y10097   4.709   5.686   7.196 -1.1542 -1.1024 -2.2766
  100SAPS   C3510098   4.889   5.579   7.265  0.4214 -0.2103 -0.7747
  100SAPS   H5X10099   4.950   5.653   7.208 -1.9783  1.0477 -1.8066
  100SAPS   H5Y10100   4.943   5.483   7.270  2.5311  1.0588  2.3995
  100SAPS   C3610101   4.889   5.632   7.411 -0.9320  0.7447  0.1040
  100SAPS   H6X10102   4.877   5.543   7.477  0.8581  0.7658  0.4906
  100SAPS   H6Y10103   4.810   5.709   7.425 -1.9693 -0.4065  0.8461
  100SAPS   C3710104   5.032   5.696   7.441 -0.3622 -0.3491  0.3405
  100SAPS   H7X10105   5.048   5.786   7.378 -2.6160 -0.0151  0.1812
  100SAPS   H7Y10106   5.106   5.618   7.414 -0.2319  0.1889 -0.9217
  100SAPS   C3810107   5.048   5.744   7.591 -0.0793 -0.3476  0.5155
  100SAPS   H8X10108   5.155   5.777   7.595  0.2432 -1.3300  0.0696
  100SAPS   H8Y10109   5.043   5.660   7.663  0.9373 -1.7629 -1.0107
  100SAPS   C3910110   4.953   5.868   7.622 -0.2003 -0.0369 -0.3127
  100SAPS   H9X10111   4.849   5.829   7.618 -1.1170  2.1129  1.5556
  100SAPS   H9Y10112   4.949   5.939   7.537 -1.1687  0.2600 -0.0332
  100SAPS  C31010113   4.996   5.947   7.745 -1.0219  0.5065  0.0856
  100SAPS  H10X10114   4.944   5.907   7.835  0.3344  0.7141  0.9681
  100SAPS  H10Y10115   4.961   6.052   7.737 -0.7499  0.7879  2.1847
  100SAPS  C31110116   5.141   5.954   7.780 -0.1263  0.6610  0.5165
  100SAPS  H11X10117   5.206   5.958   7.691  0.6114 -1.4436  0.9477
  100SAPS  H11Y10118   5.175   5.861   7.831  1.2445  2.1832  2.4702
  100SAPS  C31210119   5.178   6.064   7.876  0.5043 -0.0020  0.2956
  100SAPS  H12X10120   5.171   6.162   7.825 -0.2426 -0.7101 -1.0103
  100SAPS  H12Y10121   5.280   6.049   7.917  1.1745  1.7445 -0.6840
  100SAPS  C31310122   5.088   6.080   8.000 -0.1346  0.5658 -0.1792
  100SAPS  H13X10123   5.109   5.986   8.055  1.6814  1.7702  1.2540
  100SAPS  H13Y10124   4.981   6.089   7.971 -0.0389 -0.6065 -0.9459
  100SAPS  C31410125   5.137   6.193   8.094 -0.3508  0.3667  0.3700
  100SAPS  H14X10126   5.176   6.282   8.041 -2.4619  1.2380  0.2140
  100SAPS  H14Y10127   5.229   6.143   8.132 -1.6744 -2.4578  0.0275
  100SAPS  C31510128   5.035   6.228   8.199  0.3980 -0.1501 -0.4612
  100SAPS  H15X10129   4.988   6.135   8.238 -0.0301 -1.0479 -3.0390
  100SAPS  H15Y10130   4.955   6.296   8.166  1.8653  1.9442  0.1948
  100SAPS  C31610131   5.102   6.291   8.320 -0.4026 -0.0600  0.0063
  100SAPS  H16X10132   5.163   6.378   8.289 -0.5601 -0.0037 -0.1398
  100SAPS  H16Y10133   5.171   6.215   8.365  1.2094  0.8361 -0.9365
  100SAPS  C31710134   5.011   6.347   8.434 -0.3088 -0.3007 -0.5644
  100SAPS  H17X10135   5.077   6.409   8.498 -0.4260 -0.7451 -0.0190
  100SAPS  H17Y10136   4.960   6.269   8.494  0.5973 -0.0357  0.5661
  100SAPS  C31810137   4.893   6.430   8.382  0.6486 -0.2194  0.1721
  100SAPS  H18X10138   4.822   6.449   8.465  1.0149 -1.5581  0.8169
  100SAPS  H18Y10139   4.832   6.377   8.305 -0.2313  2.6319 -1.1564
  100SAPS  H18Z10140   4.910   6.531   8.339  0.2557  0.2736  1.1530
  101OSM      N10141   3.881   5.800  10.861  0.8615  0.0546  0.6300
  101OSM    C1510142   4.025   5.765  10.883  0.3440  0.4466  0.0401
  101OSM   H15A10143   4.051   5.663  10.859 -0.7496  0.4125 -1.0076
  101OSM   H15B10144   4.048   5.794  10.984 -0.3902  0.9478  0.0615
  101OSM   H15C10145   4.093   5.812  10.813  0.4551 -1.7275 -1.3682
  101OSM    C1410146   3.794   5.753  10.967  1.0398 -0.7630  0.3521
  101OSM   H14A10147   3.833   5.784  11.063  0.5616  1.1965 -0.0731
  101OSM   H14B10148   3.795   5.645  10.969  1.6974 -0.7585  0.4818
  101OSM   H14C10149   3.690   5.773  10.949  1.0777 -0.8927 -0.0247
  101OSM    C1310150   3.875   5.950  10.867  0.0090  0.4816 -0.2706
  101OSM   H13A10151   3.917   5.976  10.964 -1.7723 -1.5067  1.0820
  101OSM   H13B10152   3.777   5.994  10.862 -0.3136 -0.1670  0.2111
  101OSM   H13C10153   3.947   5.999  10.803 -0.3292  3.1484  1.3143
  101OSM    C1210154   3.825   5.750  10.729 -1.1367 -0.0905 -0.9630
  101OSM   H12A10155   3.827   5.643  10.743 -0.0230  0.2962  2.3597
  101OSM   H12B10156   3.894   5.776  10.650  2.0021 -0.9633  1.3904
  101OSM    C1110157   3.688   5.796  10.689 -0.5898 -0.5533 -0.1633
  101OSM   H11A10158   3.665   5.758  10.587 -0.1344  1.4509 -1.0360
  101OSM   H11B10159   3.699   5.906  10.678 -0.2494 -0.2527  2.7578
  101OSM      P10160   3.480   5.872  10.821 -0.1435  0.4082 -0.5696
  101OSM    O1310161   3.361   5.809  10.876 -0.5469  0.4025 -0.7379
  101OSM    O1410162   3.549   5.970  10.910 -0.0365 -0.3222  0.2997
  101OSM    O1110163   3.437   5.948  10.684 -0.3240 -0.2459  0.0188
  101OSM    O1210164   3.583   5.761  10.779 -0.2650 -0.2877 -0.0118
  101OSM    C1S10165   3.303   5.959  10.655 -0.5235  0.0204 -0.3283
  101OSM    H1S10166   3.261   6.046  10.710 -0.5438 -0.1527 -0.0695
  101OSM    H1T10167   3.241   5.867  10.668  0.3408 -0.5766 -0.3652
  101OSM     NF10168   3.136   5.986  10.477 -0.5802 -0.3188  0.6107
  101OSM    HNF10169   3.089   5.903  10.449 -0.8309  0.0983 -0.2157
  101OSM    C2S10170   3.278   5.972  10.503 -0.0567  0.3053 -0.1783
  101OSM    H2S10171   3.325   6.068  10.471 -0.1052  0.9037  1.4775
  101OSM    C3S10172   3.347   5.868  10.410  0.0494 -0.6420 -0.6486
  101OSM    H3S10173   3.294   5.772  10.426 -1.9992  0.3167 -1.6149
  101OSM     O310174   3.480   5.826  10.437 -0.3894  0.0467  0.0845
  101OSM    HO310175   3.507   5.897  10.496  0.9424  0.3692 -0.8787
  101OSM    C4S10176   3.320   5.906  10.272 -0.2379 -0.0289 -0.4400
  101OSM    H4S10177   3.346   6.010  10.245  0.4311 -0.2158 -0.5111
  101OSM    C5S10178   3.244   5.827  10.187 -0.3726 -0.2355  0.0175
  101OSM    H5S10179   3.207   5.727  10.212  0.5771 -0.8090 -0.8153
  101OSM    C6S10180   3.214   5.874  10.050 -0.6673  0.0918  0.6789
  101OSM    H6S10181   3.124   5.940  10.052  0.4425  1.7945 -2.2141
  101OSM    H6T10182   3.184   5.793   9.980  1.4098 -2.3147  2.5171
  101OSM    C7S10183   3.328   5.960   9.986  1.0056  0.1010 -0.5396
  101OSM    H7S10184   3.415   5.892   9.984  1.5721  0.8006  0.0129
  101OSM    H7T10185   3.350   6.057  10.035  1.1508  0.0060 -0.4158
  101OSM    C8S10186   3.311   5.986   9.838  0.1553  0.2817  0.0322
  101OSM    H8S10187   3.218   6.045   9.826 -0.5960 -1.1628 -1.4143
  101OSM    H8T10188   3.284   5.894   9.783 -0.5974  1.0732 -0.9309
  101OSM    C9S10189   3.435   6.046   9.767 -0.0361 -0.3849  0.1934
  101OSM    H9S10190   3.512   5.975   9.731  0.5058 -0.0234  0.6192
  101OSM    H9T10191   3.490   6.119   9.831  0.1765 -0.9519  0.6579
  101OSM   C10S10192   3.382   6.124   9.650 -0.3334  0.6433  0.8780
  101OSM   H10S10193   3.306   6.199   9.681  0.7464  1.3275  1.8766
  101OSM   H10T10194   3.321   6.058   9.584 -0.7625 -1.8856  3.7204
  101OSM   C11S10195   3.500   6.174   9.575 -0.4227  0.1022  0.1511
  101OSM   H11S10196   3.559   6.086   9.542 -0.1646 -0.4847  2.1359
  101OSM   H11T10197   3.560   6.240   9.641 -2.9809  2.5078  0.1828
  101OSM   C12S10198   3.467   6.264   9.448 -0.0842 -0.1647 -0.3047
  101OSM   H12S10199   3.565   6.312   9.430  0.8958 -1.5672  1.1400
  101OSM   H12T10200   3.388   6.338   9.472 -1.8258 -1.7029 -1.1684
  101OSM   C13S10201   3.425   6.178   9.333  0.2800 -0.2177  0.5031
  101OSM   H13S10202   3.323   6.137   9.345  0.2345 -0.7646 -1.5976
  101OSM   H13T10203   3.493   6.089   9.331  1.1244  0.4398 -0.1471
  101OSM   C14S10204   3.425   6.250   9.201 -0.3491  0.4967 -0.0352
  101OSM   H14S10205   3.357   6.336   9.218 -1.1676 -0.4879  1.7984
  101OSM   H14T10206   3.371   6.193   9.122 -0.5527  0.9004 -0.1886
  101OSM   C15S10207   3.559   6.290   9.156 -0.5246 -0.0249  0.6437
  101OSM   H15S10208   3.623   6.200   9.153  1.7959  1.6367 -1.6488
  101OSM   H15T10209   3.610   6.363   9.223 -1.9023  1.1544  0.4448
  101OSM   C16S10210   3.557   6.355   9.009  1.1653  0.4748 -0.1474
  101OSM   H16S10211   3.555   6.465   9.019 -0.2827  0.3097  1.6220
  101OSM   H16T10212   3.470   6.331   8.943  0.6587  3.0867 -0.4822
  101OSM   C17S10213   3.686   6.315   8.936 -0.5115  0.3167 -1.0890
  101OSM   H17S10214   3.764   6.308   9.015 -1.4970 -0.0736 -0.1284
  101OSM   H17T10215   3.716   6.390   8.861 -1.2093  0.7528 -0.9371
  101OSM   C18S10216   3.668   6.188   8.859 -0.3106  0.7169  0.2735
  101OSM   H18S10217   3.606   6.199   8.767 -0.4163 -1.8292  0.0186
  101OSM   H18T10218   3.626   6.107   8.922  1.7493 -0.2548  0.4106
  101OSM   H18U10219   3.771   6.161   8.827 -0.5576 -0.1625  0.2130
  101OSM    C1F10220   3.066   6.089  10.514 -0.4540 -0.4488 -1.0498
  101OSM     OF10221   3.103   6.183  10.585 -0.5669 -0.2164  0.4691
  101OSM    C2F10222   2.920   6.090  10.471  0.0181 -0.2092  0.7312
  101OSM    H2F10223   2.863   6.130  10.557  1.0209  2.1292  0.3337
  101OSM    H2G10224   2.891   5.983  10.458  2.8110 -0.9832  0.3797
  101OSM    C3F10225   2.894   6.184  10.345  0.2581  0.4075  0.7352
  101OSM    H3F10226   2.927   6.289  10.361  1.0084  0.0725  1.3917
  101OSM    H3G10227   2.783   6.179  10.337  0.2214  1.8414  0.0257
  101OSM    C4F10228   2.958   6.124  10.215  0.0052  0.4073  1.1868
  101OSM    H4F10229   2.944   6.014  10.206 -2.9141  0.9063 -1.2930
  101OSM    H4G10230   3.068   6.140  10.216  0.7002 -3.5925 -0.1409
  101OSM    C5F10231   2.911   6.193  10.080 -0.3251  0.1610  0.4732
  101OSM    H5F10232   2.933   6.302  10.093 -1.1388  0.1756  1.8569
  101OSM    H5G10233   2.801   6.183  10.070  0.0033 -1.9864 -1.3203
  101OSM    C6F10234   2.977   6.125   9.958  0.0583  0.0778 -0.4060
  101OSM    H6F10235   2.943   6.020   9.950 -2.0766  0.8803 -2.5554
  101OSM    H6G10236   3.086   6.137   9.974  0.0152  0.1084 -0.1356
  101OSM    C7F10237   2.934   6.205   9.836 -0.4356  0.5438 -0.0316
  101OSM    H7F10238   2.995   6.298   9.827  0.3769  0.1265  0.9825
  101OSM    H7G10239   2.829   6.235   9.853 -1.0283 -1.4798 -0.1245
  101OSM    C8F10240   2.928   6.122   9.710  0.0675  0.2852  0.5193
  101OSM    H8F10241   2.865   6.032   9.727  3.2036 -2.2460 -0.8214
  101OSM    H8G10242   3.028   6.083   9.683  0.3127  0.5527  1.0504
  101OSM    C9F10243   2.859   6.204   9.603 -0.8943  0.5465 -0.1751
  101OSM    H9F10244   2.750   6.201   9.593 -0.7995  0.8213 -1.2734
  101OSM   C10F10245   2.921   6.274   9.502 -0.1539  0.1585 -0.1497
  101OSM   H10F10246   2.868   6.330   9.424 -0.4525 -1.0146 -0.8014
  101OSM   C11F10247   3.068   6.293   9.485  0.4636  0.0424 -0.4797
  101OSM   H11F10248   3.119   6.196   9.469  0.2132 -0.3528  1.0893
  101OSM   H11G10249   3.109   6.327   9.583  0.3228  0.8070 -0.6783
  101OSM   C12F10250   3.094   6.392   9.373  0.4552 -1.0739  0.1449
  101OSM   H12F10251   3.199   6.423   9.387  0.1396 -0.1849  0.5939
  101OSM   H12G10252   3.035   6.486   9.380  4.2938  1.2966  2.5406
  101OSM   C13F10253   3.077   6.333   9.229 -0.2732 -0.2065  0.3606
  101OSM   H13F10254   2.981   6.277   9.215  0.5877 -2.0341  1.6957
  101OSM   H13G10255   3.159   6.260   9.217 -1.4720 -1.4809 -0.1589
  101OSM   C14F10256   3.100   6.437   9.120 -0.3859  0.9594 -0.4019
  101OSM   H14F10257   3.205   6.472   9.127 -0.6850  1.7972 -0.0325
  101OSM   H14G10258   3.044   6.530   9.140  0.3712  0.8456  2.5401
  101OSM   C15F10259   3.076   6.384   8.983 -0.3914  0.4987 -0.3007
  101OSM   H15F10260   2.994   6.309   8.989 -1.1209  1.3391  0.3107
  101OSM   H15G10261   3.166   6.327   8.951 -0.4549  1.1713 -1.6906
  101OSM   C16F10262   3.064   6.497   8.881  0.6611  0.1800 -0.1301
  101OSM   H16F10263   3.169   6.524   8.858  0.8183  0.5981  1.0445
  101OSM   H16G10264   3.007   6.581   8.925 -1.6895 -1.7579  0.6611
  101OSM   C17F10265   3.011   6.453   8.740  0.2545 -0.5219  0.0623
  101OSM   H17F10266   3.083   6.396   8.678 -1.7391 -0.8627 -2.0381
  101OSM   H17G10267   2.985   6.544   8.683 -0.7981  0.0276  1.3894
  101OSM   C18F10268   2.888   6.361   8.748 -0.3628  0.1201 -0.6820
  101OSM   H18F10269   2.832   6.355   8.652 -0.7974 -1.4833 -0.3592
  101OSM   H18G10270   2.812   6.401   8.820  0.9931  0.4822  0.5688
  101OSM   H18H10271   2.921   6.259   8.777 -0.5307 -0.4443 -2.4009
  102OSM      N10272   3.300   5.481  10.731  0.2872  0.2910 -0.1563
  102OSM    C1510273   3.447   5.459  10.749  0.0149  0.1366  0.5228
  102OSM   H15A10274   3.488   5.552  10.785  0.4568 -0.0510  0.5028
  102OSM   H15B10275   3.505   5.434  10.661  0.3006 -1.7878  1.2405
  102OSM   H15C10276   3.458   5.384  10.826  0.8713  0.0178  0.2893
  102OSM    C1410277   3.244   5.532  10.858  0.2145 -0.0922  0.5957
  102OSM   H14A10278   3.140   5.552  10.839  0.5036  2.4161  1.4403
  102OSM   H14B10279   3.282   5.632  10.876 -0.8736  0.4848 -0.2707
  102OSM   H14C10280   3.253   5.452  10.930 -0.7279 -1.5011 -0.8168
  102OSM    C1310281   3.282   5.598  10.630  0.0108  1.0488 -0.2081
  102OSM   H13A10282   3.308   5.553  10.535  1.5474 -0.4607  0.8894
  102OSM   H13B10283   3.350   5.681  10.646  0.7508  0.5646 -0.8270
  102OSM   H13C10284   3.179   5.630  10.634 -0.7159 -1.1320 -0.6842
  102OSM    C1210285   3.234   5.348  10.698  0.6094 -0.6637 -0.3096
  102OSM   H12A10286   3.259   5.280  10.778 -3.0942 -2.7950 -0.8668
  102OSM   H12B10287   3.276   5.297  10.612 -0.1443  1.4963 -2.0183
  102OSM    C1110288   3.078   5.347  10.681 -0.4175  1.0919  0.5527
  102OSM   H11A10289   3.055   5.246  10.639 -1.8209  2.3130 -1.6839
  102OSM   H11B10290   3.056   5.426  10.607 -0.0465  1.3931  0.7583
  102OSM      P10291   2.868   5.314  10.835 -0.1622 -0.3255  0.0745
  102OSM    O1310292   2.875   5.223  10.949 -0.1531 -0.7859  0.4511
  102OSM    O1410293   2.769   5.427  10.846 -0.0396  0.8381 -0.2264
  102OSM    O1110294   2.831   5.245  10.700  0.4274 -0.4954  0.4966
  102OSM    O1210295   3.011   5.371  10.803  0.2337 -0.5620 -0.2365
  102OSM    C1S10296   2.752   5.317  10.601  0.7138 -0.2034  0.5855
  102OSM    H1S10297   2.768   5.426  10.605  3.2658 -0.6073  2.3576
  102OSM    H1T10298   2.645   5.298  10.626 -0.2573  2.9395 -0.9548
  102OSM     NF10299   2.713   5.383  10.363  1.0197  0.0576 -0.5505
  102OSM    HNF10300   2.630   5.365  10.312 -0.4497  0.3797  1.6788
  102OSM    C2S10301   2.780   5.291  10.452 -0.1582  0.4211 -0.0657
  102OSM    H2S10302   2.891   5.299  10.443 -0.2320 -0.2314 -1.5820
  102OSM    C3S10303   2.750   5.144  10.422 -0.2589 -0.3330 -0.3604
  102OSM    H3S10304   2.639   5.131  10.427 -0.6463  2.4009 -1.3768
  102OSM     O310305   2.812   5.049  10.513 -0.3622  0.3170 -0.9992
  102OSM    HO310306   2.833   5.102  10.590 -1.9233  0.5183 -0.6904
  102OSM    C4S10307   2.777   5.110  10.278  0.5685 -0.0551  0.2098
  102OSM    H4S10308   2.690   5.135  10.216 -1.4468 -1.6887  2.3191
  102OSM    C5S10309   2.896   5.070  10.230  0.5309 -0.3156  0.4048
  102OSM    H5S10310   2.987   5.077  10.292  1.4821 -1.3007 -0.8226
  102OSM    C6S10311   2.926   5.033  10.086 -0.1470  0.7072  0.2725
  102OSM    H6S10312   2.893   4.929  10.064 -0.1033  0.8547 -0.5037
  102OSM    H6T10313   3.034   5.032  10.059 -0.2463  0.8327 -0.1220
  102OSM    C7S10314   2.863   5.138   9.995  0.2250  0.6238 -0.0454
  102OSM    H7S10315   2.899   5.239  10.024 -0.7301  1.5983 -2.0932
  102OSM    H7T10316   2.752   5.146   9.996  0.2093  0.2538  2.3668
  102OSM    C8S10317   2.905   5.097   9.854 -0.2677  0.5547 -0.3900
  102OSM    H8S10318   2.870   4.992   9.837  1.5026  0.2975 -2.7918
  102OSM    H8T10319   3.014   5.107   9.834 -0.6421  3.4864 -1.1716
  102OSM    C9S10320   2.854   5.196   9.751 -0.0758 -0.3136 -0.8048
  102OSM    H9S10321   2.871   5.298   9.791 -2.0742 -1.3053  2.8916
  102OSM    H9T10322   2.748   5.179   9.723  0.4644  1.0833 -3.9295
  102OSM   C10S10323   2.915   5.171   9.604  0.5465  0.3863 -0.5279
  102OSM   H10S10324   2.903   5.064   9.579 -1.1877 -0.0648  2.0525
  102OSM   H10T10325   3.025   5.182   9.613  0.8014 -2.4213  0.1990
  102OSM   C11S10326   2.854   5.279   9.508  0.4502  0.8452  0.9614
  102OSM   H11S10327   2.866   5.376   9.562  0.2757  1.9694 -0.9764
  102OSM   H11T10328   2.746   5.264   9.489  0.3164  0.2851  2.1361
  102OSM   C12S10329   2.934   5.281   9.379  0.4457  0.2234 -0.4428
  102OSM   H12S10330   2.953   5.181   9.334 -0.2852 -0.1168 -0.0031
  102OSM   H12T10331   3.037   5.316   9.405 -0.3945  0.7495  2.3869
  102OSM   C13S10332   2.857   5.373   9.284  0.5370 -0.6234  0.0647
  102OSM   H13S10333   2.874   5.480   9.308 -0.3818 -0.0122 -1.9150
  102OSM   H13T10334   2.748   5.360   9.302  0.7382  0.4072  2.0967
  102OSM   C14S10335   2.892   5.338   9.141 -0.1207 -0.0527 -0.3652
  102OSM   H14S10336   2.861   5.238   9.104 -3.5877  1.9703 -3.2561
  102OSM   H14T10337   3.002   5.350   9.129 -0.1988 -0.2869 -1.3500
  102OSM   C15S10338   2.826   5.434   9.034  0.1067 -0.1883 -0.4447
  102OSM   H15S10339   2.847   5.536   9.071 -2.9405 -0.7515  3.1552
  102OSM   H15T10340   2.715   5.424   9.034  0.1339 -0.5378 -1.0153
  102OSM   C16S10341   2.880   5.431   8.892 -0.6580 -0.4600  0.7061
  102OSM   H16S10342   2.802   5.476   8.826  0.4317 -0.2052 -0.4319
  102OSM   H16T10343   2.900   5.329   8.854  0.4998  0.1165 -0.2713
  102OSM   C17S10344   3.005   5.516   8.883  0.3426  0.3211  0.0456
  102OSM   H17S10345   3.065   5.514   8.977 -0.3020 -0.4752  0.4526
  102OSM   H17T10346   2.976   5.622   8.870 -2.8856 -0.5461 -0.1596
  102OSM   C18S10347   3.088   5.484   8.762 -0.4756  0.4859 -0.6178
  102OSM   H18S10348   3.135   5.387   8.787 -1.3102  0.5068  1.0773
  102OSM   H18T10349   3.163   5.565   8.750  2.1222 -1.4869  1.6908
  102OSM   H18U10350   3.027   5.472   8.669  0.3388  1.5800 -1.3113
  102OSM    C1F10351   2.765   5.504  10.340  0.1198 -0.6258 -0.3652
  102OSM     OF10352   2.871   5.533  10.388  0.4885 -0.2937 -0.2121
  102OSM    C2F10353   2.700   5.601  10.254  0.3322  0.3675 -0.2623
  102OSM    H2F10354   2.591   5.583  10.244  0.7108 -2.1155 -0.1584
  102OSM    H2G10355   2.740   5.587  10.151  1.3441  0.6493  0.0946
  102OSM    C3F10356   2.733   5.751  10.296  0.3418 -0.0889  0.1413
  102OSM    H3F10357   2.835   5.790  10.278  0.0941  0.1675 -0.7486
  102OSM    H3G10358   2.702   5.767  10.401  0.1347 -1.2680  0.2636
  102OSM    C4F10359   2.655   5.849  10.206 -0.5543  0.4654  0.1385
  102OSM    H4F10360   2.700   5.949  10.219  1.3146 -0.6810  3.0590
  102OSM    H4G10361   2.549   5.840  10.239 -1.1651 -0.3143 -1.9500
  102OSM    C5F10362   2.658   5.820  10.060  0.5569  0.0845 -0.6523
  102OSM    H5F10363   2.624   5.719  10.029 -0.0244  0.2287 -0.4903
  102OSM    H5G10364   2.763   5.833  10.024 -0.2463 -0.8016 -3.4321
  102OSM    C6F10365   2.575   5.924   9.980 -0.0057 -0.5405 -0.7629
  102OSM    H6F10366   2.610   6.027  10.003  1.1256 -0.7305 -1.5953
  102OSM    H6G10367   2.467   5.917  10.006 -0.2095 -1.7472 -1.9214
  102OSM    C7F10368   2.576   5.918   9.830 -0.1463  0.0046  0.3204
  102OSM    H7F10369   2.515   5.834   9.793 -2.9580  0.7902  2.9586
  102OSM    H7G10370   2.675   5.908   9.780 -0.2852 -0.7809  0.2016
  102OSM    C8F10371   2.523   6.054   9.774 -0.3595  0.5378  0.3856
  102OSM    H8F10372   2.519   6.032   9.665  0.2001 -0.7215  0.6196
  102OSM    H8G10373   2.596   6.135   9.799 -2.2570  2.3870  0.1316
  102OSM    C9F10374   2.387   6.091   9.824  0.0529 -0.2715 -0.3652
  102OSM    H9F10375   2.389   6.145   9.920 -1.5519 -0.6568 -0.1016
  102OSM   C10F10376   2.268   6.057   9.777 -0.3800  0.3587  0.4484
  102OSM   H10F10377   2.179   6.096   9.828 -1.0617 -1.1506  0.4457
  102OSM   C11F10378   2.236   5.974   9.657 -0.5341 -0.0377  0.2955
  102OSM   H11F10379   2.179   5.886   9.695 -1.1296  0.0309 -0.4388
  102OSM   H11G10380   2.327   5.943   9.601 -1.4585  3.4838 -3.3038
  102OSM   C12F10381   2.150   6.059   9.562 -0.0253  0.9963  0.3103
  102OSM   H12F10382   2.204   6.153   9.538  1.1265  0.2357 -0.0964
  102OSM   H12G10383   2.055   6.086   9.613 -0.3352 -1.7282  1.2940
  102OSM   C13F10384   2.110   5.972   9.445  0.2662 -0.1032  0.1822
  102OSM   H13F10385   2.026   6.026   9.396 -0.2861 -2.3427 -1.3898
  102OSM   H13G10386   2.069   5.877   9.485  0.7555  0.3571  1.8197
  102OSM   C14F10387   2.227   5.930   9.354  0.1112  0.6728 -0.0247
  102OSM   H14F10388   2.294   5.858   9.407  0.3687  0.9661  0.0514
  102OSM   H14G10389   2.276   6.028   9.333  1.1777 -0.1802 -1.6147
  102OSM   C15F10390   2.183   5.872   9.219 -0.2868 -0.0638 -0.0199
  102OSM   H15F10391   2.148   5.955   9.154 -2.1423 -1.5530 -0.9679
  102OSM   H15G10392   2.106   5.796   9.244  1.9150 -2.0689  0.7855
  102OSM   C16F10393   2.296   5.791   9.150 -0.4670 -0.4426 -0.1094
  102OSM   H16F10394   2.327   5.703   9.210 -0.5970 -1.5153 -1.5685
  102OSM   H16G10395   2.387   5.853   9.136 -1.5392  0.9619 -1.0221
  102OSM   C17F10396   2.260   5.719   9.020 -1.0317  0.1884 -0.3636
  102OSM   H17F10397   2.250   5.800   8.945  3.9934  0.9255 -0.4341
  102OSM   H17G10398   2.161   5.670   9.028 -1.0191  0.4194  1.5369
  102OSM   C18F10399   2.364   5.612   8.967 -1.3371 -0.1518  0.1640
  102OSM   H18F10400   2.458   5.663   8.940 -0.5458 -2.6235 -1.9548
  102OSM   H18G10401   2.318   5.564   8.878 -1.5081  0.1588  0.0817
  102OSM   H18H10402   2.383   5.528   9.037  0.2551  1.6956  2.0229
  103OSM      N10403   3.559   1.268  11.161  0.4234 -0.2168  0.1009
  103OSM    C1510404   3.559   1.367  11.269  0.3598 -0.9812 -0.0546
  103OSM   H15A10405   3.460   1.375  11.313 -0.6841 -1.1399 -2.3437
  103OSM   H15B10406   3.578   1.461  11.220  0.6154 -1.4471 -0.8592
  103OSM   H15C10407   3.631   1.351  11.348 -1.3668 -1.4658  1.4510
  103OSM    C1410408   3.501   1.149  11.219 -0.5585  1.0572 -0.9582
  103OSM   H14A10409   3.519   1.061  11.159  3.1100 -0.0769  1.6153
  103OSM   H14B10410   3.396   1.157  11.242 -0.4251  0.4383 -0.0948
  103OSM   H14C10411   3.548   1.127  11.314  0.2783  2.1543 -1.1153
  103OSM    C1310412   3.490   1.323  11.045 -0.0070 -0.3228  0.0028
  103OSM   H13A10413   3.528   1.422  11.025  0.5645 -0.6474 -0.5166
  103OSM   H13B10414   3.384   1.329  11.067 -0.0328  0.7303 -0.3709
  103OSM   H13C10415   3.519   1.249  10.971 -0.0160  0.6704 -1.0200
  103OSM    C1210416   3.701   1.234  11.116  0.0443 -0.0383 -0.3057
  103OSM   H12A10417   3.747   1.328  11.091  1.2036 -0.6880 -0.6415
  103OSM   H12B10418   3.704   1.165  11.032 -1.3807 -0.1322 -0.2908
  103OSM    C1110419   3.796   1.161  11.219 -0.0821 -0.4072 -0.0373
  103OSM   H11A10420   3.789   1.210  11.318  2.7474 -0.2057  0.0945
  103OSM   H11B10421   3.900   1.188  11.191 -0.5005  1.8283  0.4972
  103OSM      P10422   3.797   0.912  11.131  0.4355 -0.1913 -0.4316
  103OSM    O1310423   3.942   0.882  11.148  0.0483 -0.3923  0.3446
  103OSM    O1410424   3.700   0.799  11.152 -0.5429 -0.4269 -0.4278
  103OSM    O1110425   3.762   0.976  10.992 -0.2854  0.7275 -0.0654
  103OSM    O1210426   3.757   1.022  11.221 -0.2747 -0.6823  0.0681
  103OSM    C1S10427   3.659   0.921  10.906 -0.0015 -0.3657  0.2805
  103OSM    H1S10428   3.561   0.965  10.934  1.2344  2.8305 -0.2363
  103OSM    H1T10429   3.660   0.810  10.915  1.3188 -0.5129 -1.3617
  103OSM     NF10430   3.560   0.927  10.669 -0.5462  0.5734  0.0573
  103OSM    HNF10431   3.569   0.857  10.598  2.1801 -1.2705  2.1275
  103OSM    C2S10432   3.673   0.967  10.752 -0.3492 -0.4003 -0.2260
  103OSM    H2S10433   3.682   1.078  10.751  1.0096 -0.4991 -0.0938
  103OSM    C3S10434   3.802   0.917  10.693 -0.1143 -0.6843  0.2611
  103OSM    H3S10435   3.815   0.807  10.700  1.0136 -0.4229  2.4569
  103OSM     O310436   3.920   0.965  10.757  0.2594 -0.5517 -0.0896
  103OSM    HO310437   3.882   1.001  10.838  3.1541  0.6562  0.7891
  103OSM    C4S10438   3.815   0.961  10.549 -0.4785  0.5841 -0.8279
  103OSM    H4S10439   3.805   1.070  10.541  1.1653  1.0264  2.1979
  103OSM    C5S10440   3.842   0.885  10.441 -0.2654 -0.0163  0.8563
  103OSM    H5S10441   3.858   0.777  10.453  0.8715  0.0400 -0.0738
  103OSM    C6S10442   3.855   0.936  10.304 -0.8392 -0.2402  0.5912
  103OSM    H6S10443   3.847   1.047  10.298  1.3566 -0.1897 -2.0067
  103OSM    H6T10444   3.767   0.893  10.252  0.3963  0.5296 -2.2418
  103OSM    C7S10445   3.982   0.872  10.232 -0.2848  0.4617  0.0195
  103OSM    H7S10446   3.992   0.765  10.258  1.3823  1.1342  2.2529
  103OSM    H7T10447   4.065   0.931  10.276 -2.1951  2.3041  1.2702
  103OSM    C8S10448   3.998   0.891  10.077  0.2876  0.2423 -1.0947
  103OSM    H8S10449   3.908   0.849  10.027 -0.2910  2.4886 -1.9889
  103OSM    H8T10450   4.090   0.853  10.027  0.8509  0.0859  0.0398
  103OSM    C9S10451   3.998   1.045  10.044  0.4302  0.3086  0.7657
  103OSM    H9S10452   4.080   1.088  10.105 -1.6045  0.5922  3.4069
  103OSM    H9T10453   3.905   1.086  10.089  0.4579  0.0545  1.0520
  103OSM   C10S10454   4.008   1.065   9.888  0.1138 -0.0006 -0.7066
  103OSM   H10S10455   3.899   1.057   9.869 -0.1452 -2.0473  1.4482
  103OSM   H10T10456   4.048   0.983   9.826 -1.9430 -0.7441 -1.1011
  103OSM   C11S10457   4.057   1.198   9.836  0.4721 -0.6017  0.2330
  103OSM   H11S10458   4.168   1.206   9.843  0.0621  4.0456  3.4332
  103OSM   H11T10459   4.019   1.280   9.900  0.5571 -1.3686  1.2626
  103OSM   C12S10460   4.010   1.227   9.692 -0.2520 -0.2621  0.1202
  103OSM   H12S10461   3.900   1.219   9.690 -0.2290 -0.7758  0.6379
  103OSM   H12T10462   4.056   1.155   9.621  2.2270 -0.6665  2.0660
  103OSM   C13S10463   4.052   1.370   9.657 -0.2071  0.4692 -0.0312
  103OSM   H13S10464   4.153   1.399   9.695 -0.2943 -0.3473  0.8416
  103OSM   H13T10465   3.983   1.437   9.714  2.8907  3.4454  0.3652
  103OSM   C14S10466   4.031   1.400   9.514  0.2146  0.5573  0.2806
  103OSM   H14S10467   3.929   1.373   9.479  0.9174 -0.5204 -0.9401
  103OSM   H14T10468   4.098   1.334   9.456  2.0072  0.6707  2.1626
  103OSM   C15S10469   4.060   1.554   9.494  0.9547 -0.3304  0.2684
  103OSM   H15S10470   4.160   1.582   9.532  0.8917  0.4011 -0.0998
  103OSM   H15T10471   3.987   1.620   9.547  1.7299  0.7875 -0.0292
  103OSM   C16S10472   4.055   1.606   9.346  0.6275 -0.3626  0.2454
  103OSM   H16S10473   3.951   1.613   9.307  1.3123 -0.1736 -1.5693
  103OSM   H16T10474   4.115   1.542   9.279 -0.8046  2.2735 -3.7586
  103OSM   C17S10475   4.113   1.750   9.333 -0.7358  0.1136  0.0370
  103OSM   H17S10476   4.218   1.750   9.368 -0.0564 -1.7844 -1.9231
  103OSM   H17T10477   4.062   1.828   9.394 -0.5529 -0.2776  0.6860
  103OSM   C18S10478   4.113   1.804   9.190  1.2187 -0.3598  0.1107
  103OSM   H18S10479   4.010   1.798   9.150  2.1855  1.1794 -2.7583
  103OSM   H18T10480   4.178   1.745   9.121  3.7232  2.4220  0.0190
  103OSM   H18U10481   4.158   1.905   9.188  0.1826  0.1217  0.9338
  103OSM    C1F10482   3.433   0.979  10.684  0.0435  0.0876 -0.7926
  103OSM     OF10483   3.416   1.073  10.762 -0.0772 -0.2108 -0.5709
  103OSM    C2F10484   3.327   0.920  10.613 -0.5077 -0.2409 -0.3359
  103OSM    H2F10485   3.252   0.875  10.682 -0.6932  1.1395  0.3820
  103OSM    H2G10486   3.357   0.851  10.532 -1.6975 -1.1196 -0.0540
  103OSM    C3F10487   3.246   1.019  10.530 -0.1527 -0.0841  0.0751
  103OSM    H3F10488   3.199   1.088  10.603 -0.0135 -0.8191  0.8634
  103OSM    H3G10489   3.174   0.975  10.457 -1.0565  0.7912  0.4166
  103OSM    C4F10490   3.338   1.109  10.441  0.0566  0.1387  0.4171
  103OSM    H4F10491   3.382   1.190  10.502  1.8070 -0.7325  0.3287
  103OSM    H4G10492   3.263   1.159  10.375 -1.1179 -2.0964 -0.0162
  103OSM    C5F10493   3.439   1.034  10.344  0.3570  0.7031 -0.5922
  103OSM    H5F10494   3.395   0.949  10.288  1.4870 -1.0336  1.1089
  103OSM    H5G10495   3.524   0.993  10.403  0.2322  0.3024 -0.6940
  103OSM    C6F10496   3.501   1.126  10.237  0.0655 -0.1936 -0.5347
  103OSM    H6F10497   3.604   1.087  10.220  0.4955  0.3925  0.6750
  103OSM    H6G10498   3.504   1.224  10.289 -1.5970 -1.3910  1.8506
  103OSM    C7F10499   3.428   1.119  10.106 -0.2346  0.0922  0.7919
  103OSM    H7F10500   3.324   1.154  10.124 -0.8341 -1.3225  0.1361
  103OSM    H7G10501   3.414   1.012  10.081  0.6152 -0.0784  1.0359
  103OSM    C8F10502   3.504   1.193   9.997  0.1669 -0.2267  0.5848
  103OSM    H8F10503   3.607   1.160   9.972 -0.4107 -1.1206 -0.6981
  103OSM    H8G10504   3.502   1.302  10.019 -3.7513  0.1747 -1.2891
  103OSM    C9F10505   3.417   1.193   9.873 -0.5687 -0.0715  0.4336
  103OSM    H9F10506   3.313   1.210   9.902 -0.6738  0.2707 -0.1295
  103OSM   C10F10507   3.457   1.206   9.741 -0.4293 -0.1757 -0.0798
  103OSM   H10F10508   3.387   1.195   9.657  0.1623  0.7986 -0.7025
  103OSM   C11F10509   3.599   1.217   9.693 -0.6083  0.2346  0.1557
  103OSM   H11F10510   3.632   1.117   9.657 -1.1645 -0.1276  0.6433
  103OSM   H11G10511   3.671   1.233   9.777  0.7707 -0.3182 -0.8987
  103OSM   C12F10512   3.620   1.326   9.590  0.4535 -0.7154 -1.0878
  103OSM   H12F10513   3.730   1.316   9.578  0.8864  0.2392  1.6970
  103OSM   H12G10514   3.598   1.425   9.636 -1.4113 -0.9217 -1.4967
  103OSM   C13F10515   3.555   1.303   9.448  0.2402 -0.4221  0.0926
  103OSM   H13F10516   3.563   1.193   9.429 -0.9077 -0.2352 -1.6257
  103OSM   H13G10517   3.447   1.325   9.454  0.0153 -0.2014 -3.4677
  103OSM   C14F10518   3.621   1.388   9.333 -0.0117  0.2297 -0.3101
  103OSM   H14F10519   3.729   1.368   9.341  0.5436  2.6334 -1.2933
  103OSM   H14G10520   3.614   1.497   9.358  1.9777  0.7258 -1.8310
  103OSM   C15F10521   3.563   1.357   9.191  0.1315  0.2099  0.1213
  103OSM   H15F10522   3.454   1.365   9.207 -0.1469  0.5429 -1.8683
  103OSM   H15G10523   3.579   1.247   9.183 -2.3167 -0.0046 -2.2674
  103OSM   C16F10524   3.620   1.419   9.068  0.5215  0.2382  0.3453
  103OSM   H16F10525   3.611   1.529   9.082 -1.3685  0.2073 -0.4382
  103OSM   H16G10526   3.557   1.384   8.984  1.8423 -0.7819 -0.2410
  103OSM   C17F10527   3.767   1.382   9.026 -0.1176 -0.6260  0.9376
  103OSM   H17F10528   3.778   1.385   8.915  2.0800 -0.2616  1.1483
  103OSM   H17G10529   3.793   1.277   9.052 -2.6808 -2.7406 -4.1450
  103OSM   C18F10530   3.876   1.480   9.080 -0.4948  0.0282  0.1803
  103OSM   H18F10531   3.977   1.433   9.081 -0.2029  0.6464  0.1067
  103OSM   H18G10532   3.861   1.498   9.188  0.9106 -0.6765  0.5030
  103OSM   H18H10533   3.871   1.576   9.025  0.7127  0.8345  1.4428
  104OSM      N10534   1.347   0.840  11.014  0.3223  0.2228 -0.6391
  104OSM    C1510535   1.205   0.804  11.059 -0.1512  0.8878 -0.3007
  104OSM   H15A10536   1.210   0.795  11.166 -1.5257 -0.7181 -0.3443
  104OSM   H15B10537   1.176   0.716  11.002  1.0147  1.0492 -1.1878
  104OSM   H15C10538   1.143   0.885  11.024 -1.0835 -0.1971 -1.1892
  104OSM    C1410539   1.388   0.954  11.107 -0.0018  0.2422  0.1286
  104OSM   H14A10540   1.495   0.968  11.105  0.0164  0.1647  0.6030
  104OSM   H14B10541   1.363   0.926  11.208  1.4710  0.2294  0.5086
  104OSM   H14C10542   1.341   1.047  11.080 -0.0536  0.4402  0.9035
  104OSM    C1310543   1.428   0.716  11.040  0.1015  0.4314  0.2849
  104OSM   H13A10544   1.536   0.725  11.033  0.1060 -0.9429 -1.6352
  104OSM   H13B10545   1.403   0.649  10.960 -0.3415  1.1370 -0.1731
  104OSM   H13C10546   1.416   0.670  11.137  1.7505 -0.7408 -0.0393
  104OSM    C1210547   1.347   0.890  10.867 -0.1485 -0.2903  0.0308
  104OSM   H12A10548   1.445   0.928  10.842 -0.0752 -0.5222 -0.0442
  104OSM   H12B10549   1.286   0.978  10.860 -0.3559 -0.4298  0.0626
  104OSM    C1110550   1.302   0.796  10.756  1.0036 -0.2333 -0.4514
  104OSM   H11A10551   1.379   0.719  10.734  1.3518 -0.2951  0.9384
  104OSM   H11B10552   1.294   0.861  10.667 -1.2782 -0.6497 -0.5824
  104OSM      P10553   1.081   0.640  10.703  0.4582  0.1743 -0.0532
  104OSM    O1310554   1.118   0.501  10.722  0.2789  0.0236 -0.5689
  104OSM    O1410555   0.944   0.680  10.735 -0.0744  0.4111 -0.4374
  104OSM    O1110556   1.121   0.683  10.561 -0.2973 -0.5332  0.6058
  104OSM    O1210557   1.182   0.732  10.788  0.0781 -0.2561 -0.9806
  104OSM    C1S10558   1.037   0.795  10.512  0.5254  0.4262  0.1375
  104OSM    H1S10559   1.042   0.886  10.575 -2.2453 -0.3855  1.6305
  104OSM    H1T10560   0.929   0.769  10.501  1.0108 -1.3397 -0.5269
  104OSM     NF10561   0.999   0.957  10.320  0.0623  0.6324 -0.3201
  104OSM    HNF10562   0.909   0.951  10.279 -0.1132  1.4846 -0.0669
  104OSM    C2S10563   1.070   0.835  10.357  0.4044  0.1388  0.0463
  104OSM    H2S10564   1.179   0.854  10.356  1.0309 -3.1357 -0.5273
  104OSM    C3S10565   1.032   0.717  10.262  0.2114 -0.3295 -0.6690
  104OSM    H3S10566   0.923   0.704  10.250  0.4351 -2.6724 -0.3122
  104OSM     O310567   1.081   0.597  10.317 -0.2758  0.5181  0.7516
  104OSM    HO310568   1.116   0.626  10.402  1.0674 -1.5186  0.9343
  104OSM    C4S10569   1.092   0.727  10.123  0.3353 -0.3560 -0.2203
  104OSM    H4S10570   1.028   0.783  10.054 -0.3108  0.5342  1.0966
  104OSM    C5S10571   1.208   0.682  10.063 -0.1669 -0.2651  0.1578
  104OSM    H5S10572   1.269   0.620  10.130 -1.2171 -1.6119 -0.1037
  104OSM    C6S10573   1.267   0.682   9.928 -0.4793  0.0465  0.1156
  104OSM    H6S10574   1.288   0.576   9.903  0.6470  0.2375  0.1971
  104OSM    H6T10575   1.367   0.731   9.933  0.3434 -1.0495 -3.8133
  104OSM    C7S10576   1.180   0.750   9.817 -0.7842 -0.9805  0.1861
  104OSM    H7S10577   1.161   0.858   9.834  3.3182 -0.1418 -0.0861
  104OSM    H7T10578   1.085   0.691   9.812 -1.0854 -0.5074  0.3558
  104OSM    C8S10579   1.242   0.727   9.679  0.1639  0.3180 -0.8221
  104OSM    H8S10580   1.263   0.618   9.667  2.1858  0.6203 -0.2430
  104OSM    H8T10581   1.333   0.790   9.682  0.3305  0.1113 -1.5393
  104OSM    C9S10582   1.153   0.777   9.565 -0.2083  0.3417 -0.0721
  104OSM    H9S10583   1.129   0.883   9.587  1.6615  1.0946 -1.4770
  104OSM    H9T10584   1.060   0.717   9.554 -0.6849  0.1728  3.9386
  104OSM   C10S10585   1.211   0.777   9.422  0.2139  0.2486 -0.5008
  104OSM   H10S10586   1.234   0.674   9.388 -0.9545 -0.2903  0.3089
  104OSM   H10T10587   1.307   0.834   9.422  1.2358 -1.4436 -0.3035
  104OSM   C11S10588   1.119   0.839   9.314  1.1174 -1.0607 -0.1255
  104OSM   H11S10589   1.095   0.941   9.351  0.5559 -1.2686  0.0968
  104OSM   H11T10590   1.021   0.786   9.320  0.4814  0.1601  0.5160
  104OSM   C12S10591   1.195   0.862   9.184  0.2714  0.0646 -0.6032
  104OSM   H12S10592   1.219   0.764   9.137  1.8705 -0.9679  2.2246
  104OSM   H12T10593   1.293   0.909   9.202  0.5843 -0.5518 -0.6666
  104OSM   C13S10594   1.128   0.961   9.090  0.1384 -0.3542  0.0371
  104OSM   H13S10595   1.194   0.961   9.000 -0.1215  0.2091 -0.1589
  104OSM   H13T10596   1.124   1.063   9.135 -1.3595 -0.9282  1.2212
  104OSM   C14S10597   0.980   0.942   9.042  0.7032  0.4080  0.3662
  104OSM   H14S10598   0.919   0.952   9.134  0.6658  1.0234  0.2751
  104OSM   H14T10599   0.966   0.836   9.009  0.5448  0.5249  0.0557
  104OSM   C15S10600   0.930   1.047   8.936 -0.0381 -0.9762 -0.2012
  104OSM   H15S10601   0.999   1.034   8.850 -0.0909 -0.2206 -0.3620
  104OSM   H15T10602   0.936   1.148   8.982 -2.3384 -1.4190  1.1622
  104OSM   C16S10603   0.784   1.023   8.887 -0.5542 -0.4817 -0.4888
  104OSM   H16S10604   0.718   1.081   8.955  1.7525  0.4383  1.0394
  104OSM   H16T10605   0.750   0.918   8.900  0.3359 -0.4739  2.1502
  104OSM   C17S10606   0.788   1.063   8.738  0.3876  0.4334  0.0729
  104OSM   H17S10607   0.865   0.997   8.694 -0.7855 -0.6028 -0.4783
  104OSM   H17T10608   0.821   1.169   8.742 -1.1889  0.9736 -0.8494
  104OSM   C18S10609   0.658   1.046   8.655 -0.1076  0.1626  0.3148
  104OSM   H18S10610   0.671   1.092   8.554  0.1189  2.5636  1.4008
  104OSM   H18T10611   0.580   1.101   8.711 -1.6658  0.1930 -1.7989
  104OSM   H18U10612   0.631   0.939   8.642 -0.3577  0.3455 -0.7080
  104OSM    C1F10613   1.033   1.076  10.379 -0.2099  0.7886  0.6054
  104OSM     OF10614   1.130   1.093  10.454  0.2637  0.0549  0.1470
  104OSM    C2F10615   0.937   1.185  10.351  0.0053 -0.0461 -0.1611
  104OSM    H2F10616   0.911   1.233  10.448  2.8057  0.3814  0.4233
  104OSM    H2G10617   0.842   1.149  10.306 -0.3454  0.3789  0.2476
  104OSM    C3F10618   1.006   1.307  10.276 -0.1249  0.9075 -0.7349
  104OSM    H3F10619   1.105   1.307  10.325 -0.7059  1.3523  0.4467
  104OSM    H3G10620   0.963   1.409  10.287 -1.2315  0.1933  1.8282
  104OSM    C4F10621   1.013   1.278  10.122  0.0471  0.2088  0.6259
  104OSM    H4F10622   1.047   1.172  10.111 -0.0319  0.2293  0.1812
  104OSM    H4G10623   1.093   1.345  10.084  0.1125 -0.9113 -1.2924
  104OSM    C5F10624   0.885   1.310  10.044  0.4635 -0.1043 -0.3750
  104OSM    H5F10625   0.852   1.416  10.056 -1.6045 -0.1585 -4.4961
  104OSM    H5G10626   0.805   1.245  10.085  0.9992  0.4679  1.6324
  104OSM    C6F10627   0.907   1.282   9.895 -0.5846  0.8623 -0.1911
  104OSM    H6F10628   0.806   1.301   9.852 -0.7903  3.1976  1.2502
  104OSM    H6G10629   0.942   1.179   9.871 -3.4140  0.0033 -0.7993
  104OSM    C7F10630   0.989   1.377   9.808 -0.3340 -0.0510 -1.0067
  104OSM    H7F10631   1.096   1.350   9.821 -0.9937 -1.9396  0.6768
  104OSM    H7G10632   0.982   1.481   9.845 -0.0813 -0.9243  1.6092
  104OSM    C8F10633   0.958   1.374   9.661  0.3847 -0.0186  0.4307
  104OSM    H8F10634   1.016   1.454   9.612 -2.3339  0.2361 -2.5275
  104OSM    H8G10635   0.852   1.406   9.654 -0.3028 -1.7331  2.2687
  104OSM    C9F10636   0.967   1.242   9.582 -0.0665  0.0645 -0.0404
  104OSM    H9F10637   0.934   1.150   9.633  1.5845 -0.7036 -0.3295
  104OSM   C10F10638   1.009   1.236   9.457  0.2749  0.3876  0.2418
  104OSM   H10F10639   1.021   1.141   9.402 -2.0702 -0.1400  0.5647
  104OSM   C11F10640   1.046   1.358   9.378  0.1606  0.5958  0.0387
  104OSM   H11F10641   1.143   1.399   9.412 -0.2846 -0.9770  3.3576
  104OSM   H11G10642   0.972   1.440   9.391 -1.0253 -0.9199  3.4034
  104OSM   C12F10643   1.054   1.326   9.227 -0.2689 -0.7700  0.3233
  104OSM   H12F10644   0.968   1.261   9.203  1.3155 -2.0449 -2.1479
  104OSM   H12G10645   1.140   1.256   9.215  0.1604 -0.1037 -0.5507
  104OSM   C13F10646   1.061   1.442   9.129  0.5331  0.5287 -0.4832
  104OSM   H13F10647   1.091   1.407   9.029 -2.5715  2.5039 -2.1887
  104OSM   H13G10648   1.142   1.505   9.172 -1.0038  1.4703  1.0877
  104OSM   C14F10649   0.935   1.528   9.123 -0.3415  0.2168  0.0695
  104OSM   H14F10650   0.913   1.586   9.215 -0.3900  2.0383 -1.0616
  104OSM   H14G10651   0.847   1.465   9.100 -0.6304  0.4777  0.4539
  104OSM   C15F10652   0.941   1.627   9.015 -0.0857  0.4384 -0.2459
  104OSM   H15F10653   1.007   1.713   9.039  1.1985 -0.1802 -1.4699
  104OSM   H15G10654   0.846   1.682   9.024  0.4592  1.3508 -0.0213
  104OSM   C16F10655   0.946   1.564   8.872  0.4447 -0.7125 -0.0359
  104OSM   H16F10656   0.847   1.527   8.840  0.0682  0.2701 -0.0246
  104OSM   H16G10657   1.027   1.490   8.858 -1.1785 -1.8687 -3.8095
  104OSM   C17F10658   0.977   1.681   8.775  0.0813  0.2186  0.8740
  104OSM   H17F10659   0.961   1.634   8.676 -1.9503  2.7795 -0.0656
  104OSM   H17G10660   1.083   1.713   8.777 -0.4638  2.0641  1.3746
  104OSM   C18F10661   0.887   1.812   8.784 -0.2554  0.3647 -0.2075
  104OSM   H18F10662   0.887   1.871   8.689 -1.8559  1.0439  0.2116
  104OSM   H18G10663   0.924   1.880   8.864 -1.0932  2.0312 -1.2139
  104OSM   H18H10664   0.782   1.784   8.803  0.1055  0.7481  2.4956
  105OSM      N10665   0.300   0.498  10.799 -0.5235  0.0010 -0.5032
  105OSM    C1510666   0.164   0.554  10.837 -0.0618 -0.1068  0.4588
  105OSM   H15A10667   0.166   0.636  10.906  1.3326 -0.3125  0.6956
  105OSM   H15B10668   0.100   0.469  10.857  1.6808 -1.8112 -0.9021
  105OSM   H15C10669   0.136   0.601  10.744 -1.3495  0.6313  1.2265
  105OSM    C1410670   0.385   0.603  10.736  0.1981 -0.0621 -0.1727
  105OSM   H14A10671   0.338   0.660  10.657 -0.5113 -0.0515  0.2478
  105OSM   H14B10672   0.473   0.555  10.698 -0.2659 -0.8695 -0.2423
  105OSM   H14C10673   0.418   0.677  10.808 -1.7590  0.6703  0.0052
  105OSM    C1310674   0.356   0.456  10.930 -0.6036  0.2344  0.2304
  105OSM   H13A10675   0.386   0.540  10.990 -0.7917  0.4451  0.0310
  105OSM   H13B10676   0.439   0.390  10.912 -2.3198 -2.7851  2.8954
  105OSM   H13C10677   0.284   0.402  10.990 -0.9357 -1.5548 -1.6927
  105OSM    C1210678   0.296   0.386  10.694  0.4893  0.3559 -0.5951
  105OSM   H12A10679   0.252   0.439  10.611 -0.0536  0.8951  0.0246
  105OSM   H12B10680   0.230   0.313  10.737  0.6531  1.5036  1.6681
  105OSM    C1110681   0.430   0.319  10.657 -0.4599  0.8217 -0.1345
  105OSM   H11A10682   0.497   0.393  10.607  1.6694 -1.5755 -0.9130
  105OSM   H11B10683   0.416   0.248  10.573 -1.3047  0.8009  0.0171
  105OSM      P10684   0.650   0.220  10.756 -0.1738 -0.1350 -0.0519
  105OSM    O1310685   0.732   0.317  10.823 -0.4306 -0.0950 -0.3381
  105OSM    O1410686   0.661   0.087  10.820  0.0806  0.6757  0.2980
  105OSM    O1110687   0.692   0.223  10.604 -0.2735  0.4357  0.7244
  105OSM    O1210688   0.495   0.253  10.762 -0.2155 -0.0269  0.2163
  105OSM    C1S10689   0.815   0.291  10.572  0.1571 -0.9781 -0.4436
  105OSM    H1S10690   0.899   0.234  10.617  0.6590  0.4063  0.4014
  105OSM    H1T10691   0.807   0.396  10.607  3.4059 -0.6706 -0.4646
  105OSM     NF10692   0.993   0.308  10.397  0.1772 -0.1024 -0.5352
  105OSM    HNF10693   1.029   0.395  10.364  1.3936  0.0373  1.1025
  105OSM    C2S10694   0.852   0.283  10.415 -0.4515  0.5682  0.2652
  105OSM    H2S10695   0.829   0.178  10.388  0.6225  0.9185 -2.0484
  105OSM    C3S10696   0.747   0.377  10.342 -0.6069  0.9940 -0.9735
  105OSM    H3S10697   0.775   0.479  10.377  1.0286  0.8239 -1.7515
  105OSM     O310698   0.615   0.354  10.382  0.3344 -0.2911 -0.6280
  105OSM    HO310699   0.627   0.303  10.463  4.5323  1.0968 -0.2749
  105OSM    C4S10700   0.762   0.375  10.198  0.5842 -0.4580  0.5114
  105OSM    H4S10701   0.823   0.458  10.161  0.2291 -0.7258 -0.7069
  105OSM    C5S10702   0.720   0.297  10.096 -0.7701 -0.2881 -0.9976
  105OSM    H5S10703   0.673   0.200  10.119 -0.1258 -0.9067 -2.2195
  105OSM    C6S10704   0.756   0.333   9.948 -0.3283  0.0547 -0.1750
  105OSM    H6S10705   0.669   0.304   9.885 -0.1052  1.1570 -1.0248
  105OSM    H6T10706   0.842   0.279   9.904  0.8947  1.8812 -0.1239
  105OSM    C7S10707   0.787   0.472   9.890  0.2176  0.0019  0.2222
  105OSM    H7S10708   0.881   0.503   9.940  0.2891 -1.9426  1.3177
  105OSM    H7T10709   0.702   0.532   9.929  1.3547  1.8217 -0.0507
  105OSM    C8S10710   0.789   0.481   9.738  0.2880  0.4836  0.1740
  105OSM    H8S10711   0.776   0.588   9.709  1.1270  0.2391 -1.1705
  105OSM    H8T10712   0.699   0.428   9.702  1.1585 -2.0737  1.6050
  105OSM    C9S10713   0.917   0.429   9.672  0.5117  0.9207 -0.2397
  105OSM    H9S10714   0.914   0.325   9.712  0.2676  2.1809  3.1274
  105OSM    H9T10715   1.003   0.484   9.716  0.8940  0.0922  0.0537
  105OSM   C10S10716   0.910   0.431   9.518  0.8667 -0.2945  0.1299
  105OSM   H10S10717   0.989   0.361   9.483 -2.7680 -3.7077 -1.6259
  105OSM   H10T10718   0.945   0.532   9.490 -1.5439  1.0318  1.6824
  105OSM   C11S10719   0.773   0.410   9.458 -0.1518  0.2477  0.6018
  105OSM   H11S10720   0.712   0.501   9.469  1.2282  1.1498  0.9302
  105OSM   H11T10721   0.743   0.330   9.529 -0.9161 -0.3480 -0.3839
  105OSM   C12S10722   0.772   0.366   9.308 -0.1222  0.4870 -0.0937
  105OSM   H12S10723   0.672   0.322   9.289  0.3964 -0.2275 -1.2398
  105OSM   H12T10724   0.850   0.287   9.299 -0.4625  0.1802 -0.3834
  105OSM   C13S10725   0.803   0.483   9.214 -0.1212  0.5471  0.0917
  105OSM   H13S10726   0.908   0.514   9.232 -0.7893  1.8145  1.9083
  105OSM   H13T10727   0.743   0.571   9.243 -0.2738  0.2627  0.6441
  105OSM   C14S10728   0.779   0.451   9.064  0.1280  0.2605 -0.3002
  105OSM   H14S10729   0.681   0.400   9.054 -0.2339  1.2634 -1.9271
  105OSM   H14T10730   0.855   0.384   9.020  0.5738 -0.1628  1.0699
  105OSM   C15S10731   0.783   0.575   8.974  0.7150  0.1743  0.1048
  105OSM   H15S10732   0.871   0.634   9.006 -0.0982  1.3647  0.1550
  105OSM   H15T10733   0.702   0.646   8.997  1.3015  0.7971  0.2528
  105OSM   C16S10734   0.788   0.569   8.818  0.4399  0.0770  0.0463
  105OSM   H16S10735   0.697   0.600   8.763 -1.1327  1.3281  3.2326
  105OSM   H16T10736   0.787   0.462   8.786  1.3925  0.0448  0.1009
  105OSM   C17S10737   0.917   0.629   8.755  0.4537  0.2521 -0.2768
  105OSM   H17S10738   1.004   0.588   8.810  0.2578  1.1326  0.6998
  105OSM   H17T10739   0.917   0.737   8.780 -1.8394  0.6075 -1.6535
  105OSM   C18S10740   0.927   0.594   8.613  0.7677  0.1467  1.0055
  105OSM   H18S10741   1.027   0.637   8.589  0.6609 -0.4405 -0.5182
  105OSM   H18T10742   0.848   0.640   8.549  1.7565  1.6320  0.8200
  105OSM   H18U10743   0.911   0.487   8.590 -1.4243  0.8674 -1.0719
  105OSM    C1F10744   1.084   0.217  10.414  0.2524 -0.0606  0.4665
  105OSM     OF10745   1.048   0.105  10.445 -0.6165  0.0853  0.0531
  105OSM    C2F10746   1.224   0.256  10.376 -0.4052 -0.3711 -0.0276
  105OSM    H2F10747   1.284   0.244  10.469 -0.6536 -0.6888  0.0945
  105OSM    H2G10748   1.233   0.366  10.363 -0.1672 -0.4586 -0.6161
  105OSM    C3F10749   1.281   0.185  10.253 -0.0731  0.1785  0.0673
  105OSM    H3F10750   1.274   0.075  10.241 -1.5598  0.1632  1.0440
  105OSM    H3G10751   1.391   0.204  10.246 -0.0311 -0.1608 -0.2528
  105OSM    C4F10752   1.231   0.251  10.123  0.3615  0.4297  0.0879
  105OSM    H4F10753   1.241   0.362  10.122  0.8490  0.4337  2.3332
  105OSM    H4G10754   1.123   0.226  10.126  0.1374  1.2130 -0.9897
  105OSM    C5F10755   1.284   0.185   9.996 -0.7385  0.2375  0.0046
  105OSM    H5F10756   1.282   0.075  10.005 -1.8660  0.3053  0.7425
  105OSM    H5G10757   1.388   0.215   9.970 -0.9075  0.1410 -0.7725
  105OSM    C6F10758   1.205   0.235   9.872  0.0218 -0.2944  0.7179
  105OSM    H6F10759   1.228   0.344   9.864 -0.7175 -0.2669 -1.2075
  105OSM    H6G10760   1.096   0.223   9.889  0.3238 -0.3044  2.8139
  105OSM    C7F10761   1.265   0.167   9.745  0.2853 -0.4168 -0.2388
  105OSM    H7F10762   1.208   0.074   9.727 -2.4586  1.1776 -0.0830
  105OSM    H7G10763   1.372   0.145   9.763 -0.4076 -2.7795  1.2510
  105OSM    C8F10764   1.247   0.255   9.625 -0.2802 -0.0152 -0.0826
  105OSM    H8F10765   1.296   0.351   9.650  2.5281 -1.6573  0.9563
  105OSM    H8G10766   1.138   0.277   9.623 -0.7026 -2.1237 -1.6142
  105OSM    C9F10767   1.312   0.193   9.505  0.1487 -0.4930  0.9309
  105OSM    H9F10768   1.346   0.089   9.518 -0.0112 -0.4981  1.3122
  105OSM   C10F10769   1.326   0.257   9.383  1.1620 -0.3743  0.3848
  105OSM   H10F10770   1.369   0.204   9.297 -0.5107 -1.9932  0.5163
  105OSM   C11F10771   1.281   0.395   9.367 -0.2845  0.2741  0.2489
  105OSM   H11F10772   1.366   0.467   9.372  0.1227 -0.2726  1.4469
  105OSM   H11G10773   1.207   0.426   9.444  1.5988  1.3958  1.6914
  105OSM   C12F10774   1.201   0.432   9.239  0.1434 -0.2327  0.0930
  105OSM   H12F10775   1.139   0.521   9.263 -1.0728 -1.7376  2.7049
  105OSM   H12G10776   1.130   0.348   9.221 -1.8233  1.4021  0.0895
  105OSM   C13F10777   1.291   0.449   9.115  0.1613  0.4052 -0.4298
  105OSM   H13F10778   1.359   0.361   9.113  1.5511  1.4760 -0.7313
  105OSM   H13G10779   1.347   0.544   9.106 -0.4390  0.4920 -3.6534
  105OSM   C14F10780   1.211   0.450   8.984  0.0994  0.4633 -0.5380
  105OSM   H14F10781   1.158   0.548   8.983  0.4551  0.6556 -0.7539
  105OSM   H14G10782   1.142   0.364   8.975 -0.2283  0.5842  0.6922
  105OSM   C15F10783   1.297   0.443   8.853  0.6507  0.2218 -0.6544
  105OSM   H15F10784   1.230   0.408   8.772 -0.4610 -3.9583  1.9767
  105OSM   H15G10785   1.381   0.370   8.851  0.9408  0.4881  0.9400
  105OSM   C16F10786   1.368   0.579   8.833 -0.3841  0.1098 -0.0024
  105OSM   H16F10787   1.437   0.609   8.914 -1.2853 -0.2224  0.9043
  105OSM   H16G10788   1.303   0.668   8.847  0.8359  0.7373  1.8282
  105OSM   C17F10789   1.462   0.573   8.715 -0.2341 -0.3771  0.2428
  105OSM   H17F10790   1.401   0.570   8.622  0.4330 -0.2419 -0.2004
  105OSM   H17G10791   1.516   0.476   8.708  0.9374  0.1962  1.1933
  105OSM   C18F10792   1.563   0.682   8.709  0.5209  0.0956  1.1849
  105OSM   H18F10793   1.528   0.781   8.673 -0.4346 -0.5376  0.3189
  105OSM   H18G10794   1.633   0.653   8.628  1.0376 -1.1279  2.0495
  105OSM   H18H10795   1.615   0.695   8.806  0.0093  0.6735  1.3883
  106OSM      N10796   2.392   5.499  10.738 -0.2402 -0.2557 -0.0812
  106OSM    C1510797   2.409   5.643  10.770 -0.2523  0.7187  0.2026
  106OSM   H15A10798   2.365   5.663  10.866 -4.6438 -1.7042 -1.1818
  106OSM   H15B10799   2.345   5.702  10.705 -0.1053 -1.5250 -2.0580
  106OSM   H15C10800   2.512   5.676  10.762 -0.1703  0.3346 -0.3251
  106OSM    C1410801   2.246   5.469  10.750  0.6279  0.2994  0.0170
  106OSM   H14A10802   2.228   5.375  10.700  2.2903 -0.6930  1.2221
  106OSM   H14B10803   2.199   5.543  10.688 -0.4618  1.5269  2.2565
  106OSM   H14C10804   2.215   5.463  10.854  2.2940 -2.1204  0.4322
  106OSM    C1310805   2.435   5.469  10.594  0.4245 -0.0309 -0.9798
  106OSM   H13A10806   2.393   5.374  10.565  0.7188 -0.8943  1.3510
  106OSM   H13B10807   2.542   5.461  10.583  0.7352 -0.4018  1.9640
  106OSM   H13C10808   2.394   5.547  10.531 -0.7354 -0.9134 -1.3248
  106OSM    C1210809   2.476   5.397  10.824  0.4294  0.1658  0.5843
  106OSM   H12A10810   2.470   5.436  10.925  2.0572  0.4618  0.5893
  106OSM   H12B10811   2.580   5.408  10.798  0.4358  0.5067  0.7499
  106OSM    C1110812   2.438   5.245  10.822 -0.0579 -0.6730 -0.0456
  106OSM   H11A10813   2.338   5.230  10.867  0.3625 -0.4149  1.0015
  106OSM   H11B10814   2.506   5.198  10.897 -0.7635 -1.8681 -0.1460
  106OSM      P10815   2.392   5.054  10.648 -0.2113 -0.0041 -0.3663
  106OSM    O1310816   2.473   4.951  10.718 -0.3080  0.0866 -0.1981
  106OSM    O1410817   2.246   5.042  10.678 -0.1056 -0.4037 -0.0769
  106OSM    O1110818   2.408   5.050  10.496  0.5966 -0.4662 -0.5533
  106OSM    O1210819   2.449   5.197  10.686 -0.4937 -0.2670 -0.1838
  106OSM    C1S10820   2.335   5.124  10.405  0.6514 -0.2373 -0.3668
  106OSM    H1S10821   2.341   5.230  10.438 -1.5444  0.0099 -0.6519
  106OSM    H1T10822   2.229   5.091  10.410  0.4110  0.4663 -0.7279
  106OSM     NF10823   2.327   5.203  10.170 -0.3146 -0.5306 -0.6301
  106OSM    HNF10824   2.247   5.170  10.120  0.2969 -0.8133 -1.4132
  106OSM    C2S10825   2.386   5.102  10.264  0.2449 -0.3763 -0.0262
  106OSM    H2S10826   2.497   5.114  10.261  0.2957  0.1992  2.5911
  106OSM    C3S10827   2.361   4.951  10.229  0.5629 -0.1075 -0.2805
  106OSM    H3S10828   2.253   4.930  10.240 -0.0920  2.9985 -0.3142
  106OSM     O310829   2.435   4.856  10.303  0.0266 -0.1975 -0.4269
  106OSM    HO310830   2.470   4.906  10.377  0.0225  1.9961 -1.8672
  106OSM    C4S10831   2.406   4.926  10.090  0.5515 -0.4602 -0.1913
  106OSM    H4S10832   2.509   4.961  10.071 -0.2057  1.2791 -1.2743
  106OSM    C5S10833   2.335   4.880   9.989 -0.4800 -0.7773 -0.2912
  106OSM    H5S10834   2.231   4.849  10.010 -1.1037  1.0695 -0.5033
  106OSM    C6S10835   2.382   4.877   9.848 -0.2174 -1.1264  0.7441
  106OSM    H6S10836   2.336   4.785   9.805  1.3032 -1.7072  0.3114
  106OSM    H6T10837   2.492   4.878   9.830 -0.2838  0.4692  0.3596
  106OSM    C7S10838   2.317   5.002   9.781 -0.4214 -0.2507  0.5183
  106OSM    H7S10839   2.362   5.094   9.822  1.7239 -1.6526  1.3420
  106OSM    H7T10840   2.210   5.004   9.813  0.1298 -0.3758  2.3957
  106OSM    C8S10841   2.332   5.001   9.626  0.7999 -0.6200  0.3698
  106OSM    H8S10842   2.440   4.982   9.610  1.0012  0.1321  0.8743
  106OSM    H8T10843   2.297   5.099   9.586  1.0230 -1.3613 -1.7263
  106OSM    C9S10844   2.255   4.886   9.557  0.8531 -0.1944  0.0169
  106OSM    H9S10845   2.162   4.864   9.613  2.2485  1.6692  3.1669
  106OSM    H9T10846   2.316   4.793   9.558 -0.9323 -1.3746 -0.0043
  106OSM   C10S10847   2.219   4.907   9.409  0.0069 -0.4251 -0.0641
  106OSM   H10S10848   2.188   5.013   9.418  0.2166 -0.4132  0.5783
  106OSM   H10T10849   2.127   4.851   9.379  0.1040 -0.0848 -0.9996
  106OSM   C11S10850   2.336   4.894   9.310 -0.7224 -0.0212 -0.3966
  106OSM   H11S10851   2.371   4.789   9.307 -1.1750 -0.1855  0.0049
  106OSM   H11T10852   2.430   4.946   9.339 -0.4611 -0.3237 -0.6965
  106OSM   C12S10853   2.294   4.927   9.170  0.0828  0.1892 -0.4332
  106OSM   H12S10854   2.245   5.027   9.168 -0.5248 -0.1406 -2.5427
  106OSM   H12T10855   2.217   4.854   9.138 -0.9846  0.8669  0.5298
  106OSM   C13S10856   2.404   4.923   9.064 -0.2095 -0.6268  1.0260
  106OSM   H13S10857   2.419   4.819   9.027  0.4151  0.1597 -0.9913
  106OSM   H13T10858   2.487   4.967   9.122 -0.3277  1.8926 -0.6391
  106OSM   C14S10859   2.379   5.011   8.934  0.2781  0.0189  0.3279
  106OSM   H14S10860   2.478   5.016   8.885 -0.4526 -1.1201 -1.3192
  106OSM   H14T10861   2.343   5.112   8.965 -1.5426 -0.8747  1.2488
  106OSM   C15S10862   2.284   4.948   8.827  0.3065 -0.5629 -0.1421
  106OSM   H15S10863   2.181   4.969   8.863 -0.0052  1.9422 -2.3136
  106OSM   H15T10864   2.298   4.838   8.833  1.3989 -0.3762  0.7999
  106OSM   C16S10865   2.306   5.007   8.689  0.6498 -0.3895 -0.4117
  106OSM   H16S10866   2.400   4.956   8.659  1.1123 -1.0956  2.1765
  106OSM   H16T10867   2.318   5.117   8.688 -0.0458 -0.3125 -0.5664
  106OSM   C17S10868   2.198   4.963   8.591 -0.0354 -0.0198  0.2222
  106OSM   H17S10869   2.104   5.012   8.624 -0.7631 -0.2546 -1.4639
  106OSM   H17T10870   2.179   4.854   8.601 -0.7972 -0.0795 -1.7425
  106OSM   C18S10871   2.227   4.994   8.444  0.0370  0.3638 -0.5384
  106OSM   H18S10872   2.189   5.095   8.418 -2.1192 -0.3222 -0.1268
  106OSM   H18T10873   2.169   4.922   8.382 -2.5193  1.6568  0.3034
  106OSM   H18U10874   2.336   4.984   8.423  0.3353 -1.0019  1.5141
  106OSM    C1F10875   2.364   5.334  10.172  0.2874 -0.1590 -0.2799
  106OSM     OF10876   2.454   5.370  10.254 -0.2978 -0.6172 -0.3033
  106OSM    C2F10877   2.310   5.442  10.077 -0.1171 -0.0651  0.6462
  106OSM    H2F10878   2.275   5.520  10.147  2.9244  1.4751  0.5516
  106OSM    H2G10879   2.219   5.399  10.030 -0.9321  0.7445  1.4588
  106OSM    C3F10880   2.413   5.499   9.980  0.4754  0.1655 -0.1159
  106OSM    H3F10881   2.503   5.521  10.041 -0.4361  0.8649  0.9957
  106OSM    H3G10882   2.375   5.594   9.936 -1.5772 -0.6297 -0.1207
  106OSM    C4F10883   2.444   5.405   9.858 -0.2852  0.0849  0.0231
  106OSM    H4F10884   2.350   5.383   9.803  0.0970  1.8386 -1.3461
  106OSM    H4G10885   2.478   5.305   9.893  1.5224  0.9453  0.8111
  106OSM    C5F10886   2.558   5.454   9.762 -0.2852 -0.1211 -0.2516
  106OSM    H5F10887   2.612   5.367   9.720  0.0172  0.1264 -0.3828
  106OSM    H5G10888   2.639   5.500   9.824  2.0057 -2.1234 -1.6531
  106OSM    C6F10889   2.505   5.565   9.674 -0.3681  0.0699 -0.3365
  106OSM    H6F10890   2.501   5.656   9.738 -0.7276  0.5779 -1.0835
  106OSM    H6G10891   2.400   5.554   9.641 -0.4363 -0.9341  0.1787
  106OSM    C7F10892   2.606   5.583   9.564 -0.1819 -0.0088  1.0504
  106OSM    H7F10893   2.630   5.493   9.505 -2.2626  0.8522 -1.1897
  106OSM    H7G10894   2.697   5.630   9.609  0.4213 -0.9259  0.8055
  106OSM    C8F10895   2.555   5.698   9.464  0.9282  0.3679 -0.4706
  106OSM    H8F10896   2.577   5.794   9.515 -1.3827  1.2400 -1.0978
  106OSM    H8G10897   2.450   5.670   9.443  1.2242  0.1615 -1.6814
  106OSM    C9F10898   2.639   5.687   9.341 -0.2312 -0.6239  0.1252
  106OSM    H9F10899   2.649   5.588   9.296  2.7560 -0.6934  0.8724
  106OSM   C10F10900   2.692   5.789   9.277 -0.1682 -0.9686 -0.3323
  106OSM   H10F10901   2.747   5.760   9.187 -1.4073 -2.3280 -0.6859
  106OSM   C11F10902   2.702   5.938   9.300  0.4262  0.0730 -0.3783
  106OSM   H11F10903   2.758   5.957   9.394  0.5966  0.0802 -0.4817
  106OSM   H11G10904   2.606   5.991   9.321 -0.2003 -1.5177  0.9531
  106OSM   C12F10905   2.761   6.013   9.177  0.5715 -0.5043  0.1492
  106OSM   H12F10906   2.848   5.957   9.137  0.3394 -0.0673 -0.9910
  106OSM   H12G10907   2.800   6.113   9.205  1.3660 -1.2318  1.7198
  106OSM   C13F10908   2.657   6.016   9.065 -0.2977  0.6106  0.0085
  106OSM   H13F10909   2.574   6.077   9.105  0.8433  2.3796 -0.2536
  106OSM   H13G10910   2.614   5.914   9.059 -1.2197  1.0928 -2.0084
  106OSM   C14F10911   2.710   6.085   8.940 -0.5579  0.0861 -0.5446
  106OSM   H14F10912   2.807   6.039   8.910 -1.8240 -0.4993 -3.9870
  106OSM   H14G10913   2.726   6.193   8.960 -1.3064  0.3771 -1.4809
  106OSM   C15F10914   2.614   6.072   8.826 -0.0630 -0.3351 -0.0989
  106OSM   H15F10915   2.600   6.167   8.771 -0.1066  0.0220  0.5241
  106OSM   H15G10916   2.511   6.067   8.866 -0.8249  1.7443 -1.7233
  106OSM   C16F10917   2.650   5.941   8.751  0.5676  0.9059  0.9241
  106OSM   H16F10918   2.649   5.850   8.815 -0.9279  0.9178  0.9317
  106OSM   H16G10919   2.755   5.949   8.716  0.6927  0.1737  1.1244
  106OSM   C17F10920   2.555   5.914   8.631 -0.3678 -0.5761  0.2301
  106OSM   H17F10921   2.459   5.942   8.680 -2.1756 -0.1622 -3.3814
  106OSM   H17G10922   2.554   5.809   8.593  2.2486 -0.2714 -0.7590
  106OSM   C18F10923   2.592   6.012   8.512 -0.2836 -0.3864 -1.1547
  106OSM   H18F10924   2.576   6.115   8.552 -0.9762  0.5139 -3.6220
  106OSM   H18G10925   2.524   6.000   8.424 -1.8550 -3.1360  0.3664
  106OSM   H18H10926   2.697   6.014   8.476  0.5823 -2.7498  1.0698
  107OSM      N10927   2.789   2.959  11.070  0.3210  0.1574  0.8785
  107OSM    C1510928   2.792   2.882  10.938  0.2038  0.5926  0.3867
  107OSM   H15A10929   2.702   2.830  10.906  2.2200 -3.4580  0.8979
  107OSM   H15B10930   2.861   2.799  10.937  0.4031  0.7664 -0.2860
  107OSM   H15C10931   2.821   2.941  10.853 -2.6532 -2.8576 -3.2170
  107OSM    C1410932   2.906   3.053  11.074  0.0432 -0.0657  0.1931
  107OSM   H14A10933   2.918   3.091  11.175 -3.7303 -1.1388  1.1655
  107OSM   H14B10934   2.888   3.144  11.020  0.1745  0.5806  1.2232
  107OSM   H14C10935   2.996   3.016  11.028  0.4421  0.1457  0.8010
  107OSM    C1310936   2.664   3.047  11.079 -0.6495  0.0263 -0.5943
  107OSM   H13A10937   2.579   2.983  11.061 -0.6366 -0.1604  0.0035
  107OSM   H13B10938   2.670   3.122  11.001  1.0038 -1.0052 -1.4771
  107OSM   H13C10939   2.661   3.093  11.177 -1.8806 -2.0968  0.3778
  107OSM    C1210940   2.798   2.854  11.181 -0.3749 -0.1024 -1.2308
  107OSM   H12A10941   2.721   2.779  11.168  2.0564 -2.8947 -0.0624
  107OSM   H12B10942   2.767   2.896  11.275 -0.3504 -0.5220 -1.0373
  107OSM    C1110943   2.925   2.766  11.190  0.0245  0.2108  0.1804
  107OSM   H11A10944   2.925   2.709  11.285 -0.6020  3.2758  2.1053
  107OSM   H11B10945   3.017   2.828  11.187 -0.8664  1.5816  0.9264
  107OSM      P10946   2.856   2.536  11.085 -0.5494  0.1822 -0.0980
  107OSM    O1310947   2.944   2.440  11.149  0.0092  0.0476  0.1964
  107OSM    O1410948   2.719   2.557  11.145 -0.2482  0.0449 -0.8713
  107OSM    O1110949   2.837   2.502  10.934  0.6816 -0.0259 -0.2937
  107OSM    O1210950   2.927   2.674  11.081  0.5535  0.1308  0.1781
  107OSM    C1S10951   2.943   2.499  10.838 -0.3599  0.6155  0.0773
  107OSM    H1S10952   3.001   2.405  10.844  0.7970  1.2423 -1.0722
  107OSM    H1T10953   3.014   2.582  10.857  1.4266 -0.7192 -0.6640
  107OSM     NF10954   3.017   2.519  10.598 -0.1076 -0.5707 -0.3817
  107OSM    HNF10955   3.047   2.608  10.565 -3.2162  1.5090  2.0745
  107OSM    C2S10956   2.904   2.520  10.688  0.3743 -0.2233  0.7302
  107OSM    H2S10957   2.837   2.434  10.666 -1.2167  1.1421  0.1608
  107OSM    C3S10958   2.813   2.646  10.679 -0.4382  0.2949  0.2190
  107OSM    H3S10959   2.858   2.743  10.710  3.1238 -1.5836  1.2124
  107OSM     O310960   2.693   2.645  10.755  0.5930 -0.1006  0.0123
  107OSM    HO310961   2.716   2.570  10.809  0.6211  1.5327  2.3381
  107OSM    C4S10962   2.767   2.664  10.537 -0.0016  0.8880 -0.2967
  107OSM    H4S10963   2.706   2.585  10.492  0.3125 -0.0643  0.9138
  107OSM    C5S10964   2.793   2.784  10.470  0.5039  0.3341 -0.3942
  107OSM    H5S10965   2.859   2.852  10.526  2.1874 -1.4628 -0.1779
  107OSM    C6S10966   2.746   2.823  10.334 -0.0129  0.3672  0.3110
  107OSM    H6S10967   2.828   2.878  10.282 -0.8107  0.5509 -0.7615
  107OSM    H6T10968   2.658   2.891  10.338 -1.5942 -1.5912 -0.1628
  107OSM    C7S10969   2.705   2.697  10.251 -0.0495  0.4658  1.0190
  107OSM    H7S10970   2.625   2.633  10.294  0.7003 -1.5408 -0.4808
  107OSM    H7T10971   2.788   2.624  10.238 -0.7650 -0.0879 -0.6068
  107OSM    C8S10972   2.663   2.732  10.108  0.5958 -0.2541  0.7131
  107OSM    H8S10973   2.577   2.801  10.112  0.7187 -0.0065 -0.7157
  107OSM    H8T10974   2.606   2.650  10.060 -0.5233  1.1274 -0.3500
  107OSM    C9S10975   2.781   2.754  10.013  0.4807 -0.2809 -0.3403
  107OSM    H9S10976   2.833   2.656  10.002  0.2627 -0.4675  0.3001
  107OSM    H9T10977   2.845   2.829  10.064 -1.0911  2.3132 -2.0408
  107OSM   C10S10978   2.739   2.815   9.884  0.3229  0.1164  0.7584
  107OSM   H10S10979   2.675   2.738   9.836  0.4264  0.5758 -0.1394
  107OSM   H10T10980   2.823   2.848   9.819 -1.1691 -3.1649 -3.0304
  107OSM   C11S10981   2.656   2.944   9.891  0.1745  0.0891  0.6554
  107OSM   H11S10982   2.723   2.992   9.966  2.9246 -1.2509 -0.8712
  107OSM   H11T10983   2.555   2.932   9.935 -0.8983 -1.8114 -2.2311
  107OSM   C12S10984   2.634   3.022   9.759 -0.3927 -0.5003  0.3746
  107OSM   H12S10985   2.538   2.992   9.713 -0.7955 -1.7241  1.9864
  107OSM   H12T10986   2.715   2.995   9.688  1.2569  1.4841  1.4421
  107OSM   C13S10987   2.632   3.174   9.779  0.0481  0.2657 -0.2797
  107OSM   H13S10988   2.720   3.221   9.830  0.3381 -0.4650 -0.1054
  107OSM   H13T10989   2.543   3.201   9.840 -2.1681 -0.5738 -3.0798
  107OSM   C14S10990   2.628   3.261   9.654 -0.8488 -0.2221 -0.7042
  107OSM   H14S10991   2.611   3.368   9.676  1.5391  0.1521 -0.4840
  107OSM   H14T10992   2.546   3.230   9.586 -1.0602 -0.9481 -0.1280
  107OSM   C15S10993   2.758   3.252   9.558  0.1517  0.2727 -0.0574
  107OSM   H15S10994   2.779   3.145   9.538 -0.7021  0.4816 -2.2257
  107OSM   H15T10995   2.846   3.294   9.611  0.2064  1.7631 -1.2928
  107OSM   C16S10996   2.733   3.323   9.421 -0.1650 -0.1795 -0.0669
  107OSM   H16S10997   2.762   3.430   9.423  1.3690 -0.6014  1.6038
  107OSM   H16T10998   2.625   3.333   9.397 -0.1739  0.8870  0.3821
  107OSM   C17S10999   2.811   3.248   9.307  0.0064  0.4162 -0.2093
  107OSM   H17S11000   2.776   3.142   9.302 -1.6857  0.8569  1.7841
  107OSM   H17T11001   2.920   3.238   9.326 -0.6294  0.0115  3.6381
  107OSM   C18S11002   2.797   3.320   9.172 -0.5100  0.4515 -0.4286
  107OSM   H18S11003   2.691   3.344   9.149 -0.1884  1.2688 -1.1038
  107OSM   H18T11004   2.812   3.242   9.095 -0.0304  0.1059  0.0109
  107OSM   H18U11005   2.865   3.408   9.170  0.8716 -0.6057 -3.1713
  107OSM    C1F11006   3.091   2.417  10.586 -0.1261 -0.3356 -0.1425
  107OSM     OF11007   3.069   2.310  10.644  0.0280  0.2378  0.3780
  107OSM    C2F11008   3.204   2.429  10.491  0.0290 -0.4635 -0.1232
  107OSM    H2F11009   3.298   2.381  10.524  0.1301 -0.6722 -0.7124
  107OSM    H2G11010   3.230   2.537  10.486  1.0625 -0.7001  0.1216
  107OSM    C3F11011   3.157   2.373  10.358 -0.2667  0.2660 -0.6858
  107OSM    H3F11012   3.127   2.267  10.371 -2.6418  0.9214 -0.7247
  107OSM    H3G11013   3.245   2.362  10.290  0.1965  0.6196 -0.1447
  107OSM    C4F11014   3.044   2.451  10.283 -0.3873 -0.3295 -0.3099
  107OSM    H4F11015   2.955   2.467  10.347 -0.1456 -1.7358  0.3891
  107OSM    H4G11016   3.006   2.386  10.201 -0.2994 -1.1729  0.3130
  107OSM    C5F11017   3.086   2.590  10.219 -0.1385 -0.2542 -0.4473
  107OSM    H5F11018   3.165   2.634  10.284  0.0516 -3.2850  1.4554
  107OSM    H5G11019   2.999   2.659  10.215 -0.4241 -0.6060 -0.3640
  107OSM    C6F11020   3.141   2.574  10.070  0.2957  0.2082 -0.2997
  107OSM    H6F11021   3.062   2.561   9.993 -0.0022  0.0796  0.0245
  107OSM    H6G11022   3.200   2.483  10.049 -0.0471 -0.1117  0.1094
  107OSM    C7F11023   3.211   2.688  10.013 -0.4177  0.0630  0.0547
  107OSM    H7F11024   3.313   2.693  10.058  0.0634 -1.0809 -0.8853
  107OSM    H7G11025   3.167   2.782  10.052  1.1524  0.7317  0.2536
  107OSM    C8F11026   3.246   2.682   9.859 -0.1334 -0.4884  0.2420
  107OSM    H8F11027   3.296   2.586   9.832 -0.1301  0.3477 -2.8889
  107OSM    H8G11028   3.325   2.758   9.843  1.2034 -1.7644  0.5979
  107OSM    C9F11029   3.132   2.711   9.765 -0.4127  0.1880  0.4755
  107OSM    H9F11030   3.040   2.712   9.826 -0.1131 -0.2421  0.9408
  107OSM   C10F11031   3.128   2.726   9.633 -0.0544  0.4786  0.3003
  107OSM   H10F11032   3.037   2.746   9.575 -0.4263 -0.4140  0.5765
  107OSM   C11F11033   3.241   2.710   9.537  0.4975  0.1857  0.9163
  107OSM   H11F11034   3.320   2.648   9.582 -0.7551 -0.2284  2.5893
  107OSM   H11G11035   3.275   2.815   9.528 -1.0963  0.5521 -1.7848
  107OSM   C12F11036   3.216   2.644   9.406  0.0915  0.0812  0.5524
  107OSM   H12F11037   3.163   2.548   9.419 -1.1836  0.9939  2.3614
  107OSM   H12G11038   3.315   2.615   9.364 -0.0894 -1.7829  1.3910
  107OSM   C13F11039   3.152   2.730   9.301 -0.1762 -0.2288 -0.4877
  107OSM   H13F11040   3.228   2.811   9.291  0.3552 -0.5571  0.8143
  107OSM   H13G11041   3.061   2.784   9.334  0.4336  0.4048  0.1637
  107OSM   C14F11042   3.114   2.666   9.166 -0.0728  0.0888 -0.2647
  107OSM   H14F11043   3.026   2.600   9.182  0.0583 -0.2862 -1.0877
  107OSM   H14G11044   3.201   2.601   9.140 -0.8164 -1.9838  2.2327
  107OSM   C15F11045   3.086   2.763   9.051 -0.0614 -0.2183  0.0125
  107OSM   H15F11046   3.085   2.714   8.951 -1.7769 -0.0341 -0.0827
  107OSM   H15G11047   3.171   2.835   9.052  0.0558 -0.3266 -0.9682
  107OSM   C16F11048   2.952   2.850   9.051 -0.2040 -0.1887  0.3707
  107OSM   H16F11049   2.962   2.938   8.983 -1.0890  0.0188  0.4989
  107OSM   H16G11050   2.935   2.888   9.154  0.9588  0.6955  0.2512
  107OSM   C17F11051   2.834   2.762   9.003  0.6973 -0.5835  0.1678
  107OSM   H17F11052   2.744   2.816   9.039  2.6123  3.2753 -0.6046
  107OSM   H17G11053   2.851   2.666   9.056  3.4645 -0.2669 -0.0724
  107OSM   C18F11054   2.821   2.749   8.852 -0.4116 -0.3718  0.6299
  107OSM   H18F11055   2.771   2.837   8.808 -0.7020 -0.2247  1.2526
  107OSM   H18G11056   2.771   2.651   8.837  1.1808 -1.0305 -0.6237
  107OSM   H18H11057   2.913   2.739   8.790 -1.2328 -1.5982 -0.4068
  108OSM      N11058   6.651   6.572  11.043  0.7921 -0.4360 -0.7875
  108OSM    C1511059   6.505   6.551  11.052 -0.5057 -0.9212  0.9972
  108OSM   H15A11060   6.482   6.446  11.041 -0.6708 -0.8639  0.7962
  108OSM   H15B11061   6.450   6.606  10.977 -0.6980 -1.1263  0.9845
  108OSM   H15C11062   6.469   6.581  11.149 -1.0645  1.4264  0.0803
  108OSM    C1411063   6.674   6.708  11.100 -0.4899 -0.7972 -0.4467
  108OSM   H14A11064   6.782   6.714  11.092 -0.4225 -2.4065 -0.9607
  108OSM   H14B11065   6.652   6.719  11.205 -1.5656 -2.5365 -0.4748
  108OSM   H14C11066   6.624   6.787  11.046  2.0712 -0.5838 -2.6306
  108OSM    C1311067   6.722   6.473  11.129 -0.4880  0.4822  0.0877
  108OSM   H13A11068   6.746   6.376  11.087 -0.5431 -0.0230  1.1861
  108OSM   H13B11069   6.664   6.457  11.219  1.0889  3.2901  1.6508
  108OSM   H13C11070   6.817   6.513  11.161 -0.8403 -0.6049  2.6389
  108OSM    C1211071   6.709   6.562  10.907 -0.9336 -0.1615 -0.4844
  108OSM   H12A11072   6.697   6.458  10.880 -1.2922  0.0364 -1.0769
  108OSM   H12B11073   6.816   6.578  10.912 -1.5401  5.3573 -1.2680
  108OSM    C1111074   6.656   6.656  10.799  0.5910  0.0528  0.2205
  108OSM   H11A11075   6.547   6.636  10.790 -0.0244  3.1805  0.2169
  108OSM   H11B11076   6.697   6.629  10.700  0.4019 -0.0132  0.1591
  108OSM      P11077   6.798   6.880  10.787  0.0209  0.3707  0.1711
  108OSM    O1311078   6.797   7.015  10.851 -0.4823 -0.7021 -0.0694
  108OSM    O1411079   6.921   6.801  10.801  0.0985 -0.0694 -0.0070
  108OSM    O1111080   6.781   6.899  10.632  0.0834 -0.1891 -0.7840
  108OSM    O1211081   6.667   6.797  10.832  0.3686  0.2556 -0.4095
  108OSM    C1S11082   6.666   6.969  10.580 -0.1693  0.4951 -0.1365
  108OSM    H1S11083   6.675   7.073  10.618  3.7232 -0.2035  1.0105
  108OSM    H1T11084   6.568   6.932  10.618 -0.6962  0.9749 -1.0275
  108OSM     NF11085   6.571   7.071  10.364  0.3699 -0.7882  0.1633
  108OSM    HNF11086   6.476   7.052  10.343 -0.1905  1.8029  0.1875
  108OSM    C2S11087   6.665   6.972  10.424 -0.0351  0.2181  0.0959
  108OSM    H2S11088   6.768   6.995  10.389 -0.1132  0.4592  0.0216
  108OSM    C3S11089   6.628   6.832  10.372  0.0154  0.0339  0.2952
  108OSM    H3S11090   6.518   6.821  10.383 -0.0042  0.1514  0.2071
  108OSM     O311091   6.684   6.722  10.439 -0.0807 -0.1596  0.0184
  108OSM    HO311092   6.703   6.764  10.523 -1.6495 -1.9177  1.3015
  108OSM    C4S11093   6.662   6.828  10.227  0.5752  0.0923 -0.0253
  108OSM    H4S11094   6.603   6.900  10.168  1.4553  0.3265 -0.6406
  108OSM    C5S11095   6.763   6.766  10.165 -0.1066  0.6884 -0.1316
  108OSM    H5S11096   6.833   6.705  10.224  0.7447  1.0352 -0.7851
  108OSM    C6S11097   6.793   6.776  10.016  0.7742 -0.0298 -0.0838
  108OSM    H6S11098   6.890   6.730   9.986  0.4987 -0.2716 -0.6040
  108OSM    H6T11099   6.788   6.878   9.973  0.5787  0.8364  1.9289
  108OSM    C7S11100   6.679   6.721   9.934  0.4587 -0.3475  0.2984
  108OSM    H7S11101   6.582   6.775   9.936  1.2124  1.0838 -0.8723
  108OSM    H7T11102   6.657   6.616   9.962  0.7763 -0.2970  0.7542
  108OSM    C8S11103   6.716   6.722   9.785 -0.5030 -0.1165  0.7005
  108OSM    H8S11104   6.798   6.650   9.763  0.2465  1.4084 -1.7461
  108OSM    H8T11105   6.736   6.827   9.755 -1.7770  0.6793  2.5509
  108OSM    C9S11106   6.599   6.670   9.704  0.2138  0.7579  0.1560
  108OSM    H9S11107   6.504   6.727   9.699  0.9688  1.9386 -1.2670
  108OSM    H9T11108   6.574   6.564   9.729  0.1011  0.1308 -2.4116
  108OSM   C10S11109   6.626   6.656   9.554  0.4708 -0.1980  0.6142
  108OSM   H10S11110   6.536   6.624   9.497  1.4867  0.5226 -1.4490
  108OSM   H10T11111   6.704   6.580   9.535  0.3778  0.4450 -2.5768
  108OSM   C11S11112   6.657   6.794   9.488  0.6327  0.3859  0.3351
  108OSM   H11S11113   6.757   6.829   9.522  0.3207  1.6393 -0.0347
  108OSM   H11T11114   6.587   6.872   9.524  0.6699 -0.1900  1.7009
  108OSM   C12S11115   6.655   6.783   9.331 -0.0852  0.3134  0.2625
  108OSM   H12S11116   6.650   6.881   9.278  2.7737 -0.5513 -1.6893
  108OSM   H12T11117   6.553   6.746   9.307  0.0207  2.1806 -3.5900
  108OSM   C13S11118   6.757   6.694   9.255 -0.3647  0.5808 -0.6436
  108OSM   H13S11119   6.736   6.591   9.293  1.3283  1.1903  2.1009
  108OSM   H13T11120   6.856   6.732   9.287 -1.0936  0.7106  1.5452
  108OSM   C14S11121   6.736   6.697   9.101  0.0470  0.3973  0.0201
  108OSM   H14S11122   6.749   6.802   9.069 -2.7750  0.5222 -0.9073
  108OSM   H14T11123   6.636   6.655   9.076  0.3992 -1.7841  2.0921
  108OSM   C15S11124   6.844   6.619   9.028  0.5694  0.6540 -0.1088
  108OSM   H15S11125   6.829   6.509   9.025 -0.9729  0.8772 -1.4614
  108OSM   H15T11126   6.938   6.642   9.083  0.8275 -0.7831  0.0520
  108OSM   C16S11127   6.867   6.662   8.886  1.3946 -0.0067  0.1581
  108OSM   H16S11128   6.964   6.634   8.840 -0.3440 -1.6812 -2.5722
  108OSM   H16T11129   6.869   6.773   8.879  0.7287  0.1143  1.6229
  108OSM   C17S11130   6.752   6.617   8.788 -0.5163  0.3012 -0.2916
  108OSM   H17S11131   6.673   6.693   8.808  0.4582  1.4857 -0.8529
  108OSM   H17T11132   6.726   6.511   8.808 -2.1488  0.5833 -0.7769
  108OSM   C18S11133   6.792   6.623   8.639 -0.6132  0.3030 -0.7074
  108OSM   H18S11134   6.709   6.589   8.573 -0.5167 -1.1050 -0.1134
  108OSM   H18T11135   6.876   6.552   8.626  0.1087  1.0024  0.0367
  108OSM   H18U11136   6.817   6.728   8.614  0.9436 -0.0073 -0.4894
  108OSM    C1F11137   6.607   7.200  10.375  0.0730 -0.1152  0.0104
  108OSM     OF11138   6.716   7.242  10.423  0.2230 -0.3125  0.3189
  108OSM    C2F11139   6.498   7.302  10.334  0.0976  0.2475  0.2704
  108OSM    H2F11140   6.534   7.404  10.307  0.4573  0.2298  0.6705
  108OSM    H2G11141   6.432   7.327  10.420 -3.6577 -1.6236 -1.9573
  108OSM    C3F11142   6.422   7.260  10.212 -0.6233 -0.1080  1.2264
  108OSM    H3F11143   6.359   7.347  10.182 -0.7239 -0.7630 -0.4977
  108OSM    H3G11144   6.347   7.184  10.242  0.1123 -1.3393  0.0059
  108OSM    C4F11145   6.506   7.238  10.086  0.0515  0.1816  0.1321
  108OSM    H4F11146   6.594   7.171  10.095 -0.8658 -1.5393 -2.8090
  108OSM    H4G11147   6.536   7.339  10.051 -2.8116  0.5051 -1.6193
  108OSM    C5F11148   6.415   7.179   9.978 -0.3157  0.2826  0.9356
  108OSM    H5F11149   6.333   7.249   9.953 -0.6116  0.1345  1.4782
  108OSM    H5G11150   6.373   7.081  10.010  1.4012 -1.1756 -1.0593
  108OSM    C6F11151   6.496   7.141   9.844  0.0822 -0.0858 -0.0786
  108OSM    H6F11152   6.565   7.062   9.883 -0.1897 -1.3350 -2.0567
  108OSM    H6G11153   6.542   7.239   9.820 -2.3382  0.9377 -0.5823
  108OSM    C7F11154   6.398   7.083   9.738 -0.0305  0.2199 -0.3967
  108OSM    H7F11155   6.294   7.083   9.776  0.6686 -3.4658  1.8577
  108OSM    H7G11156   6.427   6.975   9.741  0.6220  0.2951 -2.9954
  108OSM    C8F11157   6.410   7.142   9.595 -0.1423  0.0957 -0.7770
  108OSM    H8F11158   6.515   7.174   9.579  0.8274 -1.9488  1.2910
  108OSM    H8G11159   6.352   7.238   9.599  0.3702  0.4079 -0.8345
  108OSM    C9F11160   6.361   7.043   9.487  0.5770 -0.1759  0.4111
  108OSM    H9F11161   6.304   6.960   9.531  1.3860 -0.7191  0.4499
  108OSM   C10F11162   6.368   7.071   9.359 -0.0945  0.8059 -0.4320
  108OSM   H10F11163   6.348   6.990   9.288 -0.2939  1.3630 -1.0205
  108OSM   C11F11164   6.411   7.197   9.293 -0.1031  0.0570  0.1188
  108OSM   H11F11165   6.519   7.202   9.267  0.0624  1.1912  0.9950
  108OSM   H11G11166   6.398   7.281   9.365  2.0834  1.4367 -1.0281
  108OSM   C12F11167   6.337   7.241   9.172  0.5884 -0.1073 -0.1064
  108OSM   H12F11168   6.393   7.335   9.152  1.7179  0.0686  3.4353
  108OSM   H12G11169   6.231   7.261   9.197 -0.2416  0.5377 -3.8417
  108OSM   C13F11170   6.354   7.163   9.039  0.3732  0.1947  0.8904
  108OSM   H13F11171   6.320   7.224   8.953  0.1481  0.5757  1.2443
  108OSM   H13G11172   6.285   7.076   9.030 -0.7275  1.2437 -1.1756
  108OSM   C14F11173   6.497   7.101   9.019  0.6472 -0.1465  0.3072
  108OSM   H14F11174   6.531   7.054   9.114 -0.4891 -0.9844  0.3062
  108OSM   H14G11175   6.569   7.185   9.011  0.4904 -0.2270 -2.2587
  108OSM   C15F11176   6.506   7.006   8.896 -0.0736 -0.2020  0.4801
  108OSM   H15F11177   6.605   6.991   8.847 -1.0177 -1.0228 -1.2518
  108OSM   H15G11178   6.460   7.066   8.815  0.2333 -2.3718 -1.3650
  108OSM   C16F11179   6.448   6.869   8.908 -0.3113 -0.7380  0.3833
  108OSM   H16F11180   6.388   6.861   9.001  0.5114 -1.8279  0.8385
  108OSM   H16G11181   6.528   6.794   8.927 -0.1854 -0.4916  0.8269
  108OSM   C17F11182   6.361   6.826   8.796  0.3794  0.1525 -0.5950
  108OSM   H17F11183   6.273   6.893   8.789 -0.8730 -1.4261 -0.2930
  108OSM   H17G11184   6.325   6.723   8.816  3.4585 -0.7702  0.4622
  108OSM   C18F11185   6.426   6.836   8.656  0.0312  0.0011  0.2914
  108OSM   H18F11186   6.467   6.937   8.633  0.1410  0.4853  2.4484
  108OSM   H18G11187   6.352   6.820   8.575  0.2214 -0.0557  0.1293
  108OSM   H18H11188   6.505   6.759   8.645 -1.0922 -1.3918  1.6572
  109OSM      N11189   1.023   1.756  10.906 -0.4041  0.1237  0.1295
  109OSM    C1511190   1.147   1.841  10.917  0.8445  0.2585  0.4494
  109OSM   H15A11191   1.232   1.810  10.858  0.9952  0.4522  0.5670
  109OSM   H15B11192   1.175   1.850  11.021  1.4670  2.5726  0.1102
  109OSM   H15C11193   1.131   1.938  10.873 -0.0482  0.1660  0.5693
  109OSM    C1411194   0.984   1.751  10.766 -0.1119  0.8181 -0.6263
  109OSM   H14A11195   1.032   1.672  10.709  0.0985  0.1403  0.4857
  109OSM   H14B11196   1.009   1.844  10.716  3.3221  0.5258  0.4080
  109OSM   H14C11197   0.879   1.726  10.763  0.5711 -2.4575  0.9681
  109OSM    C1311198   1.049   1.615  10.946  0.0766  0.1398 -0.1219
  109OSM   H13A11199   1.075   1.618  11.051 -2.2258 -0.9041  0.5182
  109OSM   H13B11200   1.129   1.568  10.891 -0.9311 -3.2672  1.1888
  109OSM   H13C11201   0.964   1.550  10.931  1.3860 -1.7768  0.5338
  109OSM    C1211202   0.915   1.822  10.978  1.2063 -0.1237  0.1510
  109OSM   H12A11203   0.887   1.907  10.917 -1.2565 -0.6837  0.4508
  109OSM   H12B11204   0.950   1.854  11.075  4.3542  2.3836 -1.6948
  109OSM    C1111205   0.784   1.732  10.993  0.1626  0.1987 -0.1930
  109OSM   H11A11206   0.722   1.787  11.067 -0.7095 -0.7724 -0.1889
  109OSM   H11B11207   0.808   1.630  11.031 -2.1633  0.1822  1.3660
  109OSM      P11208   0.587   1.634  10.834  0.4368  0.0549 -0.3359
  109OSM    O1311209   0.582   1.520  10.934 -0.4332 -0.2809  0.2219
  109OSM    O1411210   0.475   1.727  10.831 -0.7738 -0.0086  0.0914
  109OSM    O1111211   0.610   1.567  10.692  0.2528  0.6928  0.5635
  109OSM    O1211212   0.716   1.724  10.864  0.7337 -0.3019  0.1265
  109OSM    C1S11213   0.676   1.644  10.587  0.3624  0.0947  0.3085
  109OSM    H1S11214   0.777   1.680  10.613  1.2545 -2.3965  0.4977
  109OSM    H1T11215   0.624   1.739  10.563 -0.4181 -0.1080  1.1465
  109OSM     NF11216   0.759   1.640  10.359  0.3002 -0.6500  0.0209
  109OSM    HNF11217   0.711   1.703  10.298  0.2922 -0.1993  0.4910
  109OSM    C2S11218   0.682   1.563  10.452  0.0371  0.1096 -0.3848
  109OSM    H2S11219   0.727   1.463  10.472  0.2249  0.6585  2.0935
  109OSM    C3S11220   0.530   1.528  10.397 -0.3866  0.5325  0.2763
  109OSM    H3S11221   0.462   1.616  10.394  1.1851  1.7066 -1.9239
  109OSM     O311222   0.471   1.432  10.486 -0.2116 -0.4889 -0.0660
  109OSM    HO311223   0.514   1.441  10.571 -0.6311 -1.9773  0.3275
  109OSM    C4S11224   0.535   1.463  10.261  0.0482 -0.9845 -0.8732
  109OSM    H4S11225   0.575   1.360  10.265  0.6742 -0.6944  0.5039
  109OSM    C5S11226   0.516   1.533  10.147  0.5659 -0.6438 -0.2246
  109OSM    H5S11227   0.500   1.642  10.148  1.3696 -0.5209  0.6716
  109OSM    C6S11228   0.520   1.472  10.014  0.3709  0.1687 -0.2608
  109OSM    H6S11229   0.461   1.378  10.006  0.1110  0.3727 -0.7581
  109OSM    H6T11230   0.625   1.441   9.995  1.5885  2.4752  2.4509
  109OSM    C7S11231   0.473   1.567   9.909 -0.6316  0.1278  0.3691
  109OSM    H7S11232   0.527   1.664   9.900  0.0777 -0.3605 -0.7853
  109OSM    H7T11233   0.373   1.606   9.937  0.0709  2.6096 -0.4740
  109OSM    C8S11234   0.462   1.507   9.774 -0.3943 -0.2419  1.2013
  109OSM    H8S11235   0.368   1.524   9.718  0.8868  1.4654 -0.4936
  109OSM    H8T11236   0.466   1.397   9.790  0.1588 -0.4494 -0.3281
  109OSM    C9S11237   0.578   1.535   9.673  0.1601  0.0703  0.0687
  109OSM    H9S11238   0.677   1.530   9.723 -0.8858 -0.0461  2.1890
  109OSM    H9T11239   0.574   1.637   9.631 -2.4079 -0.1702 -0.3235
  109OSM   C10S11240   0.568   1.448   9.547  0.4095 -0.0982  0.1412
  109OSM   H10S11241   0.516   1.353   9.572  1.6366 -0.0286  3.2201
  109OSM   H10T11242   0.665   1.397   9.528 -1.7709 -4.5955  0.4515
  109OSM   C11S11243   0.518   1.520   9.418 -0.0004  0.5996 -0.2332
  109OSM   H11S11244   0.574   1.612   9.394 -0.3753  1.4741  2.0797
  109OSM   H11T11245   0.410   1.537   9.440  0.3966  1.2831  1.2715
  109OSM   C12S11246   0.536   1.421   9.295 -0.9275  0.3016  0.3620
  109OSM   H12S11247   0.481   1.334   9.337  0.7775 -1.7113 -1.4573
  109OSM   H12T11248   0.643   1.390   9.289 -0.6437  0.9008  1.9353
  109OSM   C13S11249   0.479   1.454   9.158 -0.3791  0.9123 -0.8814
  109OSM   H13S11250   0.538   1.542   9.124  1.8071 -0.8352 -1.7642
  109OSM   H13T11251   0.371   1.476   9.173 -0.3280 -0.7047  2.2258
  109OSM   C14S11252   0.485   1.334   9.065  0.4762 -0.1866  0.1941
  109OSM   H14S11253   0.429   1.249   9.110 -1.7054 -0.7946 -3.4995
  109OSM   H14T11254   0.595   1.323   9.054  0.4383  0.1423 -0.5583
  109OSM   C15S11255   0.427   1.364   8.926  0.8207 -0.6512 -0.2586
  109OSM   H15S11256   0.318   1.387   8.927  0.6660 -1.3257  2.3285
  109OSM   H15T11257   0.441   1.272   8.866  1.7833 -0.2693 -0.6354
  109OSM   C16S11258   0.505   1.484   8.864 -0.0712 -0.2544  0.1355
  109OSM   H16S11259   0.612   1.454   8.868  0.1017  0.4916  0.9551
  109OSM   H16T11260   0.487   1.581   8.914 -0.0223 -0.2297  0.1061
  109OSM   C17S11261   0.488   1.488   8.708  0.1617 -0.3778  0.1413
  109OSM   H17S11262   0.513   1.388   8.667 -0.4129 -0.0432 -1.0277
  109OSM   H17T11263   0.572   1.552   8.673  0.3357 -0.4171  0.4795
  109OSM   C18S11264   0.352   1.529   8.663 -0.7385  0.0396 -0.0429
  109OSM   H18S11265   0.314   1.621   8.712  0.4695  0.2916  0.4440
  109OSM   H18T11266   0.281   1.444   8.669 -0.4701 -0.3917 -2.2828
  109OSM   H18U11267   0.368   1.552   8.555  0.0878 -1.3698 -0.2356
  109OSM    C1F11268   0.894   1.639  10.370  0.0106 -0.2083  0.3709
  109OSM     OF11269   0.954   1.595  10.468  0.8556  0.2749  0.6931
  109OSM    C2F11270   0.969   1.692  10.244  0.5603 -0.3591  0.1257
  109OSM    H2F11271   1.034   1.606  10.218 -1.6016 -2.5569  1.7834
  109OSM    H2G11272   1.027   1.781  10.277 -0.6252  0.1528  0.8681
  109OSM    C3F11273   0.884   1.729  10.119  0.4556 -0.2570 -0.3746
  109OSM    H3F11274   0.826   1.821  10.144  0.6993  0.9129 -3.8868
  109OSM    H3G11275   0.815   1.644  10.100  0.6345 -0.3323 -0.6792
  109OSM    C4F11276   0.956   1.775   9.999 -0.0652 -0.4194  0.5427
  109OSM    H4F11277   1.044   1.709   9.983  2.0843  2.4428  0.0031
  109OSM    H4G11278   0.982   1.883  10.009 -1.5653 -0.1595  1.7764
  109OSM    C5F11279   0.861   1.756   9.879 -0.1513 -0.1800  0.3567
  109OSM    H5F11280   0.767   1.808   9.905 -0.7509  1.3024 -4.3754
  109OSM    H5G11281   0.839   1.647   9.872  1.1411 -0.6559  2.9178
  109OSM    C6F11282   0.923   1.809   9.749 -0.3321 -0.7192 -0.0705
  109OSM    H6F11283   1.032   1.787   9.753 -0.6091 -1.9108  1.4689
  109OSM    H6G11284   0.917   1.919   9.765 -1.3275 -0.6175 -1.0891
  109OSM    C7F11285   0.850   1.767   9.622 -0.8048 -0.0991  0.3331
  109OSM    H7F11286   0.743   1.795   9.632 -0.7418  0.0440  0.6087
  109OSM    H7G11287   0.849   1.656   9.619  3.8545 -0.2387 -0.5092
  109OSM    C8F11288   0.923   1.808   9.494  0.0947  0.3579  0.0809
  109OSM    H8F11289   0.873   1.761   9.407 -1.0855  0.6198  0.6057
  109OSM    H8G11290   1.028   1.770   9.492 -0.1890 -0.5498  1.3622
  109OSM    C9F11291   0.925   1.961   9.482 -0.2111  0.4415  0.5856
  109OSM    H9F11292   0.912   2.013   9.578  0.8134  0.3222  0.7921
  109OSM   C10F11293   0.920   2.039   9.377  0.0953  0.3089  0.8595
  109OSM   H10F11294   0.918   2.149   9.382 -0.6914  0.2985  0.8296
  109OSM   C11F11295   0.929   2.003   9.231 -0.1786 -0.2390 -0.6879
  109OSM   H11F11296   0.955   1.897   9.211 -0.9638 -0.6858  0.6275
  109OSM   H11G11297   1.009   2.068   9.190  1.0470 -0.3352  1.5460
  109OSM   C12F11298   0.793   2.026   9.153 -0.7504 -0.5882 -0.0442
  109OSM   H12F11299   0.830   2.030   9.048 -2.5344  3.8224 -0.5950
  109OSM   H12G11300   0.745   2.123   9.175 -1.6892  0.0891 -4.5397
  109OSM   C13F11301   0.696   1.910   9.183 -0.4198  0.5668 -0.6852
  109OSM   H13F11302   0.674   1.911   9.292  0.9500 -0.8047 -0.3765
  109OSM   H13G11303   0.730   1.806   9.164 -1.0079  0.3534 -0.5830
  109OSM   C14F11304   0.562   1.925   9.107 -0.1970 -0.0188 -0.1665
  109OSM   H14F11305   0.502   2.000   9.164  1.0973  1.6771 -0.9815
  109OSM   H14G11306   0.497   1.835   9.112 -2.4923  1.6033  0.3098
  109OSM   C15F11307   0.569   1.982   8.963  0.0367  0.5906 -0.8726
  109OSM   H15F11308   0.646   1.921   8.911  0.5433  0.1582  0.3603
  109OSM   H15G11309   0.597   2.090   8.966 -1.0005  0.8760 -1.0674
  109OSM   C16F11310   0.432   1.976   8.892 -0.1350 -0.6244  0.4895
  109OSM   H16F11311   0.345   1.997   8.957 -0.5365 -0.4173 -0.1054
  109OSM   H16G11312   0.418   1.870   8.863 -3.5663  0.0104 -0.3198
  109OSM   C17F11313   0.417   2.060   8.759 -0.8124 -0.3729 -0.2542
  109OSM   H17F11314   0.320   2.037   8.710 -0.8792 -3.9962  1.4107
  109OSM   H17G11315   0.491   2.022   8.686 -1.0624 -3.0461  0.8422
  109OSM   C18F11316   0.439   2.211   8.775 -0.4706  0.2737  0.0900
  109OSM   H18F11317   0.542   2.248   8.794 -0.5264  0.6235 -0.2897
  109OSM   H18G11318   0.368   2.256   8.848 -2.2150  1.1729 -2.1207
  109OSM   H18H11319   0.406   2.264   8.683  0.8931  1.7781  0.4446
  110OSM      N11320   2.138   0.804  11.079 -0.5006  0.2671  0.3169
  110OSM    C1511321   2.013   0.870  11.134 -0.3711 -0.0397  0.4607
  110OSM   H15A11322   1.933   0.798  11.137 -0.7014  0.3835  1.9109
  110OSM   H15B11323   1.981   0.953  11.073 -0.8526 -1.0891 -0.7341
  110OSM   H15C11324   2.023   0.900  11.237 -1.0250  0.8199  0.2743
  110OSM    C1411325   2.242   0.911  11.089  0.0945 -0.2342  0.0150
  110OSM   H14A11326   2.338   0.875  11.055  0.7442 -0.1609  1.7266
  110OSM   H14B11327   2.251   0.941  11.193 -2.6403 -0.1574  0.2807
  110OSM   H14C11328   2.216   0.998  11.032 -1.5438  0.9196  2.4201
  110OSM    C1311329   2.191   0.681  11.150 -0.1575 -1.2054  0.2880
  110OSM   H13A11330   2.284   0.653  11.103  0.1578 -2.5115  1.6924
  110OSM   H13B11331   2.123   0.600  11.126  0.0667 -0.6759 -2.3098
  110OSM   H13C11332   2.213   0.692  11.255  0.0255 -0.8048  0.2094
  110OSM    C1211333   2.124   0.766  10.929 -0.6395 -0.2920  0.0405
  110OSM   H12A11334   2.220   0.750  10.883 -1.5259 -1.7425 -1.3423
  110OSM   H12B11335   2.090   0.856  10.879  0.8543  0.3026  0.0482
  110OSM    C1111336   2.027   0.649  10.899  1.0653 -0.5830 -0.0996
  110OSM   H11A11337   2.025   0.639  10.789 -0.5835  2.0528 -0.3421
  110OSM   H11B11338   1.925   0.684  10.928  0.7131 -0.2843 -1.6580
  110OSM      P11339   2.117   0.399  10.881 -0.2430 -0.1037  0.2689
  110OSM    O1311340   2.261   0.420  10.876 -0.5267 -0.0546  0.4199
  110OSM    O1411341   2.064   0.277  10.943  0.4676  0.1156 -0.1832
  110OSM    O1111342   2.059   0.415  10.735  0.7312  0.1358 -0.7140
  110OSM    O1211343   2.053   0.522  10.959  0.0302 -0.4700 -0.1557
  110OSM    C1S11344   1.920   0.406  10.703 -0.2010  0.6468 -0.3852
  110OSM    H1S11345   1.885   0.510  10.723  1.1311  0.4567  3.2899
  110OSM    H1T11346   1.862   0.330  10.758 -0.4097  0.3074 -1.0737
  110OSM     NF11347   1.758   0.384  10.509 -0.4999 -0.7668 -0.1563
  110OSM    HNF11348   1.697   0.307  10.495 -1.2244  0.0006 -1.3458
  110OSM    C2S11349   1.892   0.362  10.559 -0.0857 -0.8164 -0.1694
  110OSM    H2S11350   1.949   0.428  10.490  0.1448 -0.5627  0.2604
  110OSM    C3S11351   1.940   0.220  10.541  0.1078 -0.1490 -0.2152
  110OSM    H3S11352   1.890   0.144  10.604  1.8627  0.0163  1.4204
  110OSM     O311353   2.077   0.187  10.572 -0.8421  0.1289  0.0336
  110OSM    HO311354   2.120   0.268  10.598 -2.0189  0.3792  1.2817
  110OSM    C4S11355   1.913   0.179  10.397 -0.0689  0.7890 -0.0045
  110OSM    H4S11356   1.813   0.134  10.383 -0.3356  1.8915 -1.8012
  110OSM    C5S11357   1.984   0.207  10.286 -0.1942  0.3922  0.5158
  110OSM    H5S11358   2.077   0.264  10.291  0.3764 -0.3619 -0.9428
  110OSM    C6S11359   1.941   0.182  10.145 -0.0564  0.5379  0.0531
  110OSM    H6S11360   1.837   0.142  10.139 -0.5589  1.6955  0.8632
  110OSM    H6T11361   2.008   0.111  10.093 -4.7505 -3.7250 -0.5222
  110OSM    C7S11362   1.931   0.307  10.061  0.0115  0.5167 -0.3081
  110OSM    H7S11363   2.009   0.382  10.085  0.4596 -0.5640  1.7219
  110OSM    H7T11364   1.837   0.361  10.085  0.9830  0.8083  3.2380
  110OSM    C8S11365   1.947   0.275   9.899 -0.7633 -0.6952 -0.0032
  110OSM    H8S11366   1.843   0.268   9.859 -1.6691 -1.0638  2.3555
  110OSM    H8T11367   1.990   0.175   9.875 -0.1108  0.3551 -3.4063
  110OSM    C9S11368   2.035   0.381   9.832 -0.3674 -0.0732 -0.3011
  110OSM    H9S11369   2.140   0.365   9.866 -0.3789  1.7092  0.6165
  110OSM    H9T11370   2.021   0.485   9.867 -2.0228 -0.5652  0.5733
  110OSM   C10S11371   2.023   0.369   9.680 -0.3348 -0.7863 -0.6377
  110OSM   H10S11372   1.936   0.417   9.631  0.4876  1.9410  0.5009
  110OSM   H10T11373   2.001   0.260   9.675  1.5060 -1.1522 -1.0963
  110OSM   C11S11374   2.147   0.412   9.604 -0.5411 -0.5422  0.5048
  110OSM   H11S11375   2.238   0.369   9.651  1.8462  0.8615 -2.7007
  110OSM   H11T11376   2.170   0.521   9.610  0.0099 -0.6952  1.3298
  110OSM   C12S11377   2.141   0.362   9.459 -0.3653 -0.7980  0.5652
  110OSM   H12S11378   2.049   0.396   9.406  0.3718 -0.5513 -0.5767
  110OSM   H12T11379   2.133   0.251   9.461 -1.1519 -0.7256  1.7901
  110OSM   C13S11380   2.263   0.419   9.380  0.2648  0.2619  0.0991
  110OSM   H13S11381   2.358   0.368   9.407 -0.7383 -1.6815  0.0277
  110OSM   H13T11382   2.289   0.525   9.399  0.0614  0.2291  0.5568
  110OSM   C14S11383   2.236   0.390   9.236 -0.3441  0.4698 -0.4351
  110OSM   H14S11384   2.310   0.448   9.175 -0.2068 -0.4635 -1.1748
  110OSM   H14T11385   2.138   0.422   9.196 -0.5299 -0.2181 -0.5321
  110OSM   C15S11386   2.251   0.242   9.206  0.0539  0.5146  0.2573
  110OSM   H15S11387   2.175   0.181   9.259 -0.5495  1.0264 -0.0203
  110OSM   H15T11388   2.347   0.202   9.246 -0.2677 -2.2280 -1.5869
  110OSM   C16S11389   2.230   0.210   9.057 -0.1852 -0.0898 -0.0673
  110OSM   H16S11390   2.291   0.284   9.001 -0.0755  1.0490  1.5448
  110OSM   H16T11391   2.124   0.230   9.033 -0.1728 -1.8513 -1.7669
  110OSM   C17S11392   2.258   0.061   9.017  0.1565  0.4336 -0.0629
  110OSM   H17S11393   2.176  -0.006   9.051 -0.7671  1.1422 -0.8411
  110OSM   H17T11394   2.347   0.023   9.071 -1.5020  1.4412  3.5686
  110OSM   C18S11395   2.280   0.038   8.863  0.4982  0.9041 -0.2783
  110OSM   H18S11396   2.203   0.093   8.805 -2.7023 -1.2048  1.7695
  110OSM   H18T11397   2.265  -0.070   8.843  1.0719  1.0600 -1.5743
  110OSM   H18U11398   2.381   0.065   8.825 -0.6173  1.2547 -3.0563
  110OSM    C1F11399   1.708   0.508  10.505 -0.1441  0.1613  0.4136
  110OSM     OF11400   1.775   0.610  10.506  0.4829 -1.1605  0.0013
  110OSM    C2F11401   1.555   0.513  10.500 -0.6737 -0.1050  0.3739
  110OSM    H2F11402   1.517   0.542  10.600 -0.1589 -1.3048  0.9270
  110OSM    H2G11403   1.513   0.412  10.483 -1.2846  0.2618 -0.3554
  110OSM    C3F11404   1.504   0.623  10.407 -0.6041 -0.1119  0.0292
  110OSM    H3F11405   1.512   0.728  10.444  1.8575 -0.5814  0.9133
  110OSM    H3G11406   1.395   0.605  10.420 -0.6290  1.0795  1.7025
  110OSM    C4F11407   1.546   0.603  10.261 -0.1340 -0.5318 -0.5370
  110OSM    H4F11408   1.641   0.658  10.246  0.5957 -1.6978 -0.1576
  110OSM    H4G11409   1.469   0.647  10.194  1.2369 -0.2498 -1.9568
  110OSM    C5F11410   1.561   0.456  10.221  0.2923 -0.0821  0.1070
  110OSM    H5F11411   1.475   0.398  10.260 -0.1017 -1.2319 -2.3694
  110OSM    H5G11412   1.654   0.412  10.261 -0.0975 -1.0597 -0.0483
  110OSM    C6F11413   1.563   0.435  10.066 -0.4269 -0.1810 -0.5770
  110OSM    H6F11414   1.462   0.426  10.020 -0.7171  0.7572 -0.1179
  110OSM    H6G11415   1.614   0.338  10.048 -0.8737  0.2286 -4.5462
  110OSM    C7F11416   1.651   0.552   9.993  0.2486 -0.7644 -0.7784
  110OSM    H7F11417   1.750   0.547  10.042  0.9704 -0.5087 -2.2007
  110OSM    H7G11418   1.602   0.650  10.009 -0.2631 -1.3398  1.3271
  110OSM    C8F11419   1.668   0.510   9.847  0.6966 -0.0058  0.5840
  110OSM    H8F11420   1.649   0.401   9.840  0.7819 -0.0784  1.4286
  110OSM    H8G11421   1.768   0.542   9.810  0.5934 -2.0456 -1.5743
  110OSM    C9F11422   1.565   0.586   9.758  0.6813  0.3732  0.1628
  110OSM    H9F11423   1.480   0.639   9.803 -0.3713 -1.0120 -0.1696
  110OSM   C10F11424   1.553   0.578   9.622  1.4129  0.7979  0.1480
  110OSM   H10F11425   1.466   0.629   9.577 -1.5670 -3.9760  0.1338
  110OSM   C11F11426   1.630   0.487   9.526  0.3338 -0.1574  0.3192
  110OSM   H11F11427   1.573   0.401   9.483 -0.9299  1.1494 -0.6746
  110OSM   H11G11428   1.721   0.451   9.579  0.8729 -0.5793 -0.8661
  110OSM   C12F11429   1.697   0.574   9.417  0.5089  0.4804 -0.0651
  110OSM   H12F11430   1.771   0.516   9.360 -1.5472 -1.5563 -0.7452
  110OSM   H12G11431   1.754   0.646   9.480 -2.6077  2.0124  1.1388
  110OSM   C13F11432   1.603   0.632   9.311 -0.1058 -0.0725 -0.5522
  110OSM   H13F11433   1.508   0.667   9.356 -1.9914 -1.5322 -3.2771
  110OSM   H13G11434   1.591   0.557   9.229  1.0140 -1.3110  0.4014
  110OSM   C14F11435   1.667   0.755   9.245  0.3738 -1.1677 -0.6432
  110OSM   H14F11436   1.760   0.709   9.208  0.6401  0.5224 -2.1173
  110OSM   H14G11437   1.691   0.837   9.316 -1.5716 -0.5071 -0.7157
  110OSM   C15F11438   1.579   0.811   9.127  0.5925 -0.3118 -0.0380
  110OSM   H15F11439   1.473   0.816   9.161  0.2371  0.5858 -1.2526
  110OSM   H15G11440   1.585   0.732   9.049  1.3071 -0.0880 -0.2139
  110OSM   C16F11441   1.615   0.942   9.060 -0.2137  0.7747  0.1057
  110OSM   H16F11442   1.703   0.924   8.995 -0.8955  0.2699 -0.6718
  110OSM   H16G11443   1.637   1.016   9.140 -1.5179  0.9677  0.2956
  110OSM   C17F11444   1.501   0.982   8.963 -0.5936 -0.3362 -0.4106
  110OSM   H17F11445   1.453   1.076   8.999 -0.5703 -0.0097 -1.2208
  110OSM   H17G11446   1.425   0.901   8.972 -1.1888  0.2786  0.2164
  110OSM   C18F11447   1.545   1.018   8.822  0.0890  0.0314 -0.1014
  110OSM   H18F11448   1.456   0.985   8.764 -0.0628  0.8214 -0.3183
  110OSM   H18G11449   1.630   0.952   8.792  0.1194 -0.1739  0.4376
  110OSM   H18H11450   1.568   1.126   8.817  2.3820 -0.4804 -1.6021
  111OSM      N11451   2.632   3.559  10.797 -0.8562  0.4116  0.2671
  111OSM    C1511452   2.634   3.408  10.819  0.0105 -0.1399 -0.5634
  111OSM   H15A11453   2.693   3.364  10.740  1.3308  0.5395  0.0213
  111OSM   H15B11454   2.540   3.357  10.809  0.2733 -0.7782  0.2103
  111OSM   H15C11455   2.671   3.382  10.917  0.6862  0.6896 -0.5933
  111OSM    C1411456   2.548   3.590  10.673  0.3085 -0.1926 -0.0215
  111OSM   H14A11457   2.542   3.694  10.644 -0.2438 -0.2631 -0.1584
  111OSM   H14B11458   2.442   3.572  10.682  0.2889 -0.8008 -1.3417
  111OSM   H14C11459   2.590   3.545  10.584  0.4754  0.4534 -0.2746
  111OSM    C1311460   2.566   3.625  10.909  0.4346 -0.3900 -0.0225
  111OSM   H13A11461   2.573   3.733  10.901 -0.6273 -0.3837 -1.0186
  111OSM   H13B11462   2.617   3.594  10.999 -0.3983 -0.5108  0.4122
  111OSM   H13C11463   2.459   3.608  10.915  0.3700 -0.4786 -1.3644
  111OSM    C1211464   2.771   3.603  10.761 -0.2185 -0.0592 -0.8183
  111OSM   H12A11465   2.814   3.551  10.677  0.2984 -0.1169 -0.5206
  111OSM   H12B11466   2.836   3.567  10.838 -2.8508 -1.1115  0.9758
  111OSM    C1111467   2.790   3.753  10.735 -0.0488 -0.7499 -0.1464
  111OSM   H11A11468   2.771   3.819  10.822  3.4506 -1.1261  0.9517
  111OSM   H11B11469   2.713   3.782  10.660 -0.9770  2.3352  1.9202
  111OSM      P11470   3.023   3.869  10.722 -0.2792 -0.3653  0.0880
  111OSM    O1311471   3.029   3.853  10.867  0.2628  0.0903 -0.0791
  111OSM    O1411472   3.155   3.847  10.653  0.1065  0.0167 -0.0841
  111OSM    O1111473   2.957   4.010  10.671  0.1301 -0.1762 -0.1017
  111OSM    O1211474   2.919   3.770  10.673  0.0331 -0.6356 -0.7888
  111OSM    C1S11475   2.936   4.028  10.527 -0.3798  0.1729 -0.1994
  111OSM    H1S11476   2.844   3.969  10.505 -0.6469  0.4881  0.0673
  111OSM    H1T11477   3.023   3.992  10.469 -1.4252  0.1286 -1.7864
  111OSM     NF11478   2.866   4.175  10.344  0.2870 -0.5654  0.0396
  111OSM    HNF11479   2.940   4.217  10.292 -0.2276  1.2948  0.7907
  111OSM    C2S11480   2.883   4.174  10.491  0.1717  0.1633  0.0696
  111OSM    H2S11481   2.781   4.182  10.533 -0.4169  1.0423 -1.4641
  111OSM    C3S11482   2.959   4.289  10.549 -1.1140 -0.5493 -0.3537
  111OSM    H3S11483   3.058   4.304  10.501 -1.7638 -0.7333 -1.7635
  111OSM     O311484   2.984   4.282  10.697 -0.1420 -0.0566  0.4514
  111OSM    HO311485   2.965   4.194  10.728 -1.2565  0.1665  0.4309
  111OSM    C4S11486   2.892   4.424  10.521  0.3100 -0.6994  0.1523
  111OSM    H4S11487   2.792   4.434  10.567  1.4326 -3.7827  3.5437
  111OSM    C5S11488   2.932   4.512  10.423  0.2067 -0.1679  0.8489
  111OSM    H5S11489   3.028   4.490  10.374 -0.2913 -0.4790  0.0014
  111OSM    C6S11490   2.861   4.639  10.397 -0.3244  0.3828  0.2056
  111OSM    H6S11491   2.929   4.727  10.401 -0.0778  0.1027  2.7785
  111OSM    H6T11492   2.773   4.654  10.463 -2.2645  0.9512 -2.4466
  111OSM    C7S11493   2.790   4.631  10.257 -0.5517 -0.3989  0.1804
  111OSM    H7S11494   2.865   4.604  10.179  0.2436 -0.0910  0.8315
  111OSM    H7T11495   2.759   4.736  10.240 -3.1395 -0.8765  1.7526
  111OSM    C8S11496   2.665   4.545  10.225  0.8040 -0.2853 -0.3644
  111OSM    H8S11497   2.592   4.569  10.305  1.4340  3.1688 -0.7466
  111OSM    H8T11498   2.681   4.435  10.228  2.7610  0.0121  1.0676
  111OSM    C9S11499   2.609   4.590  10.090  0.2961  0.0735  0.3409
  111OSM    H9S11500   2.643   4.691  10.059 -3.7157  1.8367  1.2230
  111OSM    H9T11501   2.498   4.599  10.095  0.0233 -2.9109  0.7175
  111OSM   C10S11502   2.656   4.492   9.979 -0.5805 -0.3412  0.4513
  111OSM   H10S11503   2.620   4.388   9.990  0.1212 -0.7175 -0.7411
  111OSM   H10T11504   2.766   4.478   9.986 -0.6606  0.1797  3.2008
  111OSM   C11S11505   2.622   4.536   9.839  0.2842 -0.1288 -0.2026
  111OSM   H11S11506   2.514   4.561   9.835  0.5922  1.2393 -0.1405
  111OSM   H11T11507   2.639   4.445   9.778  1.1266  0.4140 -0.7976
  111OSM   C12S11508   2.700   4.661   9.796  0.1864 -0.1222  0.6998
  111OSM   H12S11509   2.810   4.656   9.803  0.1198  0.3666  2.3721
  111OSM   H12T11510   2.674   4.753   9.853  1.9079  0.7650  0.0995
  111OSM   C13S11511   2.663   4.711   9.658 -0.6940  0.0659  0.1035
  111OSM   H13S11512   2.557   4.743   9.660 -1.3554 -2.0666  0.0790
  111OSM   H13T11513   2.664   4.629   9.583 -2.6724  1.5425 -1.5990
  111OSM   C14S11514   2.744   4.834   9.606  0.3045 -1.2308  0.4867
  111OSM   H14S11515   2.854   4.821   9.619  0.6911  2.3675  1.2478
  111OSM   H14T11516   2.712   4.922   9.666  0.7105 -1.6322  1.3125
  111OSM   C15S11517   2.704   4.865   9.465  0.0065  0.2313  0.0851
  111OSM   H15S11518   2.738   4.967   9.436  1.7331 -0.1614  0.6624
  111OSM   H15T11519   2.597   4.849   9.440  0.2803 -1.3169 -0.1249
  111OSM   C16S11520   2.782   4.771   9.372  0.3233 -0.0941  0.0163
  111OSM   H16S11521   2.748   4.667   9.390 -2.2686  0.3681 -1.9161
  111OSM   H16T11522   2.890   4.789   9.390  0.7605 -0.9918 -1.6314
  111OSM   C17S11523   2.747   4.802   9.223 -0.1666  0.3430 -0.2985
  111OSM   H17S11524   2.641   4.779   9.198  0.3284 -3.0735  0.5951
  111OSM   H17T11525   2.812   4.729   9.170  0.3062 -0.0652  0.8416
  111OSM   C18S11526   2.771   4.944   9.170 -0.1340 -0.3334  0.0216
  111OSM   H18S11527   2.732   4.970   9.069 -0.8877  1.7898  0.8344
  111OSM   H18T11528   2.882   4.953   9.171 -0.1013 -0.6280 -0.6267
  111OSM   H18U11529   2.738   5.024   9.240  1.3961  1.3920 -1.1929
  111OSM    C1F11530   2.776   4.114  10.270  0.1295 -0.6747 -0.1794
  111OSM     OF11531   2.687   4.053  10.326 -0.3837  0.2453 -0.1745
  111OSM    C2F11532   2.790   4.116  10.121  0.2197  0.8250 -0.4510
  111OSM    H2F11533   2.869   4.046  10.087 -1.6549 -2.0481  0.8944
  111OSM    H2G11534   2.832   4.214  10.090 -1.6844  2.1481  0.9970
  111OSM    C3F11535   2.660   4.079  10.039 -0.5666 -0.6321  0.3150
  111OSM    H3F11536   2.591   4.165  10.034  2.4590  1.8265 -0.7333
  111OSM    H3G11537   2.612   3.992  10.089  0.9222 -2.4747 -1.3734
  111OSM    C4F11538   2.690   4.045   9.892 -0.7977 -0.4178 -0.8187
  111OSM    H4F11539   2.613   3.977   9.850 -0.9805  0.9852 -2.8542
  111OSM    H4G11540   2.781   3.982   9.884 -1.4211 -1.4355  0.0438
  111OSM    C5F11541   2.696   4.167   9.797  0.4152 -0.4708 -0.5305
  111OSM    H5F11542   2.757   4.248   9.842  0.1246 -1.1906  1.1836
  111OSM    H5G11543   2.591   4.194   9.771  0.0922 -0.8039  0.4133
  111OSM    C6F11544   2.756   4.134   9.659  0.2546 -0.1291 -0.5049
  111OSM    H6F11545   2.693   4.060   9.607  1.1833 -0.1363 -1.6523
  111OSM    H6G11546   2.848   4.073   9.672  0.5796  0.7388  1.5190
  111OSM    C7F11547   2.787   4.250   9.570 -0.0146 -0.3824  0.2931
  111OSM    H7F11548   2.863   4.315   9.619 -0.6381 -0.1120  0.8982
  111OSM    H7G11549   2.696   4.311   9.584 -0.7226 -1.7812  1.8846
  111OSM    C8F11550   2.811   4.227   9.421 -0.0234 -0.1499  0.1770
  111OSM    H8F11551   2.796   4.333   9.392 -2.4472 -1.1446 -2.3702
  111OSM    H8G11552   2.731   4.166   9.374 -0.5308  1.1273 -0.6592
  111OSM    C9F11553   2.951   4.180   9.396  0.5753  0.0621  0.3793
  111OSM    H9F11554   3.021   4.191   9.480  0.5255  0.3785  0.3800
  111OSM   C10F11555   3.002   4.151   9.280 -0.3479 -0.6841  0.0307
  111OSM   H10F11556   3.106   4.120   9.261  0.2767  0.7347  1.1179
  111OSM   C11F11557   2.927   4.145   9.155  0.4384 -0.5859 -0.1991
  111OSM   H11F11558   2.817   4.157   9.169 -0.0048 -1.1334 -2.8276
  111OSM   H11G11559   2.959   4.053   9.101  0.3379 -0.2534 -0.8318
  111OSM   C12F11560   2.965   4.249   9.050  0.0607 -0.2667 -0.1410
  111OSM   H12F11561   2.953   4.344   9.107  0.9322 -0.5319  0.4901
  111OSM   H12G11562   2.903   4.248   8.957  0.6439 -0.7275 -0.5246
  111OSM   C13F11563   3.110   4.251   9.016  0.9716 -0.4122 -0.3317
  111OSM   H13F11564   3.144   4.147   9.032  2.4462  0.7420  5.1065
  111OSM   H13G11565   3.178   4.303   9.087  1.6553  1.1660 -2.0603
  111OSM   C14F11566   3.140   4.306   8.877 -0.9165 -0.3034 -0.0525
  111OSM   H14F11567   3.250   4.309   8.864 -0.8355 -3.1207 -0.3205
  111OSM   H14G11568   3.115   4.414   8.872  3.5264  0.8250  0.4109
  111OSM   C15F11569   3.087   4.224   8.755  0.7295  0.3141  0.4667
  111OSM   H15F11570   2.982   4.250   8.731  1.2519  1.1639 -1.0134
  111OSM   H15G11571   3.108   4.116   8.772  0.1389 -0.2537 -2.1413
  111OSM   C16F11572   3.165   4.262   8.631 -0.5847  0.3523  0.4038
  111OSM   H16F11573   3.267   4.219   8.634 -1.1704 -1.2015 -0.6114
  111OSM   H16G11574   3.181   4.371   8.633 -0.5360  0.3795 -1.1236
  111OSM   C17F11575   3.107   4.230   8.497 -0.1278  0.5624  0.4890
  111OSM   H17F11576   3.021   4.295   8.471 -1.6474 -0.0596  3.7617
  111OSM   H17G11577   3.067   4.127   8.497  0.7805  0.1743 -2.3540
  111OSM   C18F11578   3.211   4.247   8.382  0.1767  0.3683  0.2842
  111OSM   H18F11579   3.307   4.194   8.397 -0.3968 -0.7288  0.1141
  111OSM   H18G11580   3.241   4.352   8.363 -0.3410  0.6361  0.9220
  111OSM   H18H11581   3.169   4.213   8.285 -0.5225 -0.6992  0.9538
  112OSM      N11582   2.532   1.503  11.330 -0.7375 -0.6470 -0.8629
  112OSM    C1511583   2.414   1.592  11.353  0.3991  0.5931 -0.2045
  112OSM   H15A11584   2.434   1.677  11.416 -0.5236 -0.1176  1.0578
  112OSM   H15B11585   2.335   1.542  11.406 -0.3093  2.7024  0.7854
  112OSM   H15C11586   2.384   1.647  11.264  0.4368 -0.7989 -1.0976
  112OSM    C1411587   2.656   1.580  11.325 -0.1906 -0.2789 -0.1843
  112OSM   H14A11588   2.649   1.645  11.239  0.8748  0.0849  0.0039
  112OSM   H14B11589   2.739   1.513  11.308 -0.4666 -1.1187  1.6745
  112OSM   H14C11590   2.669   1.642  11.412 -2.5930 -1.6544  1.2214
  112OSM    C1311591   2.533   1.421  11.455 -0.3130 -0.2362  0.5625
  112OSM   H13A11592   2.623   1.364  11.470 -0.4814 -0.7445 -0.3385
  112OSM   H13B11593   2.445   1.358  11.456 -1.4939  1.3520  0.2601
  112OSM   H13C11594   2.525   1.481  11.544  0.1332  1.6382 -0.6226
  112OSM    C1211595   2.507   1.423  11.202 -0.3601 -0.1922  0.5124
  112OSM   H12A11596   2.401   1.406  11.199 -0.5332  1.1153 -0.7982
  112OSM   H12B11597   2.544   1.321  11.197  1.5618  0.3578  2.5293
  112OSM    C1111598   2.555   1.488  11.063  0.2630 -0.2826  0.2264
  112OSM   H11A11599   2.521   1.592  11.047 -0.8654 -0.3458  2.1102
  112OSM   H11B11600   2.509   1.431  10.979 -1.0274  1.8320 -0.5258
  112OSM      P11601   2.783   1.367  11.015 -0.3169 -0.2146 -0.2183
  112OSM    O1311602   2.922   1.412  11.027 -0.2053 -0.4000  0.5689
  112OSM    O1411603   2.745   1.255  11.101  0.0424 -0.2619 -0.6656
  112OSM    O1111604   2.749   1.353  10.862 -0.2126 -0.1572  0.2898
  112OSM    O1211605   2.693   1.490  11.048  0.0165  0.6416  0.2076
  112OSM    C1S11606   2.754   1.467  10.776  0.7608  0.3767  0.3966
  112OSM    H1S11607   2.853   1.518  10.769 -0.3493  2.3596 -1.5305
  112OSM    H1T11608   2.674   1.538  10.805  1.5700  0.9242  1.3195
  112OSM     NF11609   2.726   1.551  10.549  0.7467  0.5797 -0.1617
  112OSM    HNF11610   2.637   1.589  10.527  0.6119  0.6946  0.5687
  112OSM    C2S11611   2.719   1.432  10.628  0.1486 -0.4480 -0.1845
  112OSM    H2S11612   2.786   1.354  10.585 -1.6158 -1.6991 -0.7459
  112OSM    C3S11613   2.566   1.369  10.630 -0.3631 -0.0428  0.3579
  112OSM    H3S11614   2.512   1.448  10.687  0.3583 -1.0769  2.5150
  112OSM     O311615   2.564   1.244  10.702  0.1057  0.5458  0.4033
  112OSM    HO311616   2.651   1.243  10.743 -0.3867 -0.8096  1.4537
  112OSM    C4S11617   2.524   1.356  10.487 -0.3782  0.1260 -0.0885
  112OSM    H4S11618   2.592   1.291  10.431 -0.6262  0.7471 -1.1321
  112OSM    C5S11619   2.403   1.399  10.441  0.2246 -0.8903  0.3189
  112OSM    H5S11620   2.329   1.422  10.518  0.3021 -1.8359  0.6704
  112OSM    C6S11621   2.357   1.381  10.295  0.2643  0.5863 -0.0223
  112OSM    H6S11622   2.266   1.441  10.272  0.9808  2.8135  2.7315
  112OSM    H6T11623   2.327   1.275  10.276 -0.8945  1.2536 -2.0900
  112OSM    C7S11624   2.460   1.422  10.189 -0.7925 -0.9155 -0.1920
  112OSM    H7S11625   2.554   1.365  10.201  0.7597  2.0616  2.4759
  112OSM    H7T11626   2.490   1.528  10.204  1.1292 -1.2543 -1.5488
  112OSM    C8S11627   2.397   1.412  10.052 -1.0205 -0.4063  0.3062
  112OSM    H8S11628   2.309   1.479  10.049 -0.5593  0.1823 -0.2222
  112OSM    H8T11629   2.363   1.308  10.032  0.1007 -0.6382 -0.4501
  112OSM    C9S11630   2.493   1.442   9.936 -0.1548 -0.0080  0.1238
  112OSM    H9S11631   2.588   1.388   9.952  0.2343  0.0501 -1.9638
  112OSM    H9T11632   2.520   1.550   9.933 -1.7060  0.4236  0.8546
  112OSM   C10S11633   2.435   1.402   9.801 -0.1224  0.1169  0.1021
  112OSM   H10S11634   2.340   1.454   9.776  0.1571 -0.2900 -1.9316
  112OSM   H10T11635   2.404   1.296   9.814 -1.2886  0.4234 -0.0766
  112OSM   C11S11636   2.532   1.419   9.682 -0.8652 -1.2080 -0.5349
  112OSM   H11S11637   2.488   1.383   9.587  0.5482 -3.1166 -0.5037
  112OSM   H11T11638   2.630   1.366   9.692 -0.5563 -0.4136  0.7174
  112OSM   C12S11639   2.560   1.567   9.656 -0.0558 -0.8018 -0.9336
  112OSM   H12S11640   2.640   1.601   9.725 -0.0961 -1.8118 -0.3917
  112OSM   H12T11641   2.463   1.617   9.676 -0.7754 -2.9088  0.9386
  112OSM   C13S11642   2.612   1.609   9.512  0.9783 -0.0841 -0.5542
  112OSM   H13S11643   2.638   1.717   9.512 -0.2228  0.2143 -1.5285
  112OSM   H13T11644   2.527   1.597   9.441  0.7164 -0.6591 -0.1427
  112OSM   C14S11645   2.718   1.516   9.447  0.0563  0.4786 -0.6971
  112OSM   H14S11646   2.675   1.414   9.438  0.6800  0.2696 -1.3530
  112OSM   H14T11647   2.805   1.520   9.516  0.0615 -1.3671 -0.5758
  112OSM   C15S11648   2.783   1.567   9.310 -0.7245 -0.1514 -0.4641
  112OSM   H15S11649   2.861   1.491   9.285 -0.2170  0.3090 -0.2961
  112OSM   H15T11650   2.834   1.662   9.337 -0.0650 -1.0903  1.7320
  112OSM   C16S11651   2.697   1.595   9.191 -0.8730  1.0166 -0.0915
  112OSM   H16S11652   2.619   1.671   9.212 -0.4946  2.1131 -2.4706
  112OSM   H16T11653   2.650   1.500   9.159 -1.2025  0.7548  1.1579
  112OSM   C17S11654   2.777   1.653   9.070  1.1769  0.0549  1.1603
  112OSM   H17S11655   2.839   1.571   9.026  2.2239  0.2427  2.2477
  112OSM   H17T11656   2.839   1.740   9.099 -0.0643  1.2115  0.3932
  112OSM   C18S11657   2.692   1.704   8.955 -0.0674 -0.4819  0.0422
  112OSM   H18S11658   2.755   1.718   8.864  0.9967 -0.3726  0.7919
  112OSM   H18T11659   2.657   1.806   8.981  0.2417 -0.2773 -0.3268
  112OSM   H18U11660   2.615   1.628   8.932  0.0415 -0.7427  0.5404
  112OSM    C1F11661   2.846   1.603  10.519 -0.2635 -0.4318  0.7880
  112OSM     OF11662   2.950   1.561  10.560  0.3638 -0.5328  0.3067
  112OSM    C2F11663   2.841   1.724  10.425  0.6954 -0.9209 -0.4142
  112OSM    H2F11664   2.782   1.805  10.472  1.2067  1.2882 -3.4951
  112OSM    H2G11665   2.789   1.697  10.330  0.8245 -1.6140 -0.2942
  112OSM    C3F11666   2.979   1.778  10.375  0.0908  0.3703 -0.7185
  112OSM    H3F11667   3.043   1.690  10.350  0.7075  0.7277 -0.4034
  112OSM    H3G11668   3.023   1.831  10.462  0.7693 -0.4720 -0.5420
  112OSM    C4F11669   2.969   1.870  10.254 -0.7398 -0.0643  0.1035
  112OSM    H4F11670   2.897   1.951  10.279 -1.8775 -0.9823 -0.1536
  112OSM    H4G11671   2.931   1.813  10.167  0.7407 -1.4600  0.3403
  112OSM    C5F11672   3.101   1.931  10.210  1.2330 -0.6218  0.7872
  112OSM    H5F11673   3.172   1.848  10.194  1.2026 -0.5370  0.2091
  112OSM    H5G11674   3.136   1.987  10.300  0.2050  2.4703 -0.6822
  112OSM    C6F11675   3.091   2.023  10.087 -0.4254 -0.5916  0.9426
  112OSM    H6F11676   3.017   2.104  10.103 -0.3385  0.0359 -1.5421
  112OSM    H6G11677   3.049   1.959  10.006  1.2326  1.8202 -1.9586
  112OSM    C7F11678   3.220   2.081  10.027  0.4651 -0.4582  0.5061
  112OSM    H7F11679   3.263   1.997   9.969  1.3232 -0.2051  0.7702
  112OSM    H7G11680   3.287   2.118  10.107  0.5434  0.9598 -0.2016
  112OSM    C8F11681   3.191   2.202   9.936 -0.4599  0.0957 -0.2999
  112OSM    H8F11682   3.142   2.285   9.990  1.1207  0.7172  0.1986
  112OSM    H8G11683   3.113   2.171   9.863 -0.7860  1.2575 -0.4484
  112OSM    C9F11684   3.304   2.263   9.855  0.1719  0.2988 -0.0370
  112OSM    H9F11685   3.387   2.288   9.922 -1.1008  2.1402  0.8974
  112OSM   C10F11686   3.300   2.298   9.726 -0.5898  0.5265  0.2429
  112OSM   H10F11687   3.391   2.343   9.683 -1.0467 -0.7913 -2.1431
  112OSM   C11F11688   3.187   2.279   9.625 -0.1474  0.1606 -0.0584
  112OSM   H11F11689   3.164   2.382   9.590 -1.6464 -1.3251 -3.6619
  112OSM   H11G11690   3.100   2.243   9.683  0.9073 -0.5586  1.0956
  112OSM   C12F11691   3.212   2.172   9.509 -0.2924 -0.7288  0.1145
  112OSM   H12F11692   3.319   2.158   9.483 -0.7610 -3.7133 -0.4178
  112OSM   H12G11693   3.153   2.222   9.429 -2.0209 -1.5843  0.8129
  112OSM   C13F11694   3.147   2.032   9.536  0.3282 -0.2178  0.5043
  112OSM   H13F11695   3.162   2.003   9.642  2.8405  1.9885  0.8008
  112OSM   H13G11696   3.204   1.969   9.466  0.5198  0.4838  0.0227
  112OSM   C14F11697   3.001   2.017   9.494  1.1382 -0.0629  0.4578
  112OSM   H14F11698   2.988   2.036   9.386  0.0565  1.7713  0.8910
  112OSM   H14G11699   2.935   2.089   9.547  0.0578 -0.3067 -0.5326
  112OSM   C15F11700   2.945   1.882   9.535  0.4310  0.6130 -0.4876
  112OSM   H15F11701   3.025   1.806   9.525  0.0202  0.0991  0.1210
  112OSM   H15G11702   2.863   1.846   9.471 -0.3797 -0.3780  1.0793
  112OSM   C16F11703   2.908   1.889   9.684  0.3767  0.4275 -0.1066
  112OSM   H16F11704   2.830   1.967   9.696  0.2130  0.1616  0.5650
  112OSM   H16G11705   2.991   1.922   9.751 -0.1172 -0.6914  1.0729
  112OSM   C17F11706   2.857   1.755   9.733 -0.3737 -1.4657  0.3280
  112OSM   H17F11707   2.913   1.670   9.688 -1.3577 -3.2677  2.4159
  112OSM   H17G11708   2.760   1.736   9.683 -0.3931  0.3558 -0.3786
  112OSM   C18F11709   2.854   1.743   9.879  0.3627  0.7575 -0.2722
  112OSM   H18F11710   2.773   1.672   9.906 -0.1515  1.8321  1.0556
  112OSM   H18G11711   2.827   1.838   9.931 -3.7012  1.6586 -3.6943
  112OSM   H18H11712   2.947   1.705   9.926 -1.2050 -1.3904  1.1420
  113OSM      N11713   0.386   4.678  11.000 -0.2064  0.0785 -0.0227
  113OSM    C1511714   0.460   4.712  11.130 -1.0592 -0.6634 -0.0746
  113OSM   H15A11715   0.516   4.626  11.164 -0.2644 -0.4745 -0.8782
  113OSM   H15B11716   0.393   4.758  11.201  0.4467  0.5578  0.5609
  113OSM   H15C11717   0.532   4.787  11.101 -0.1762 -1.9695 -1.3598
  113OSM    C1411718   0.498   4.659  10.901  0.1330 -0.3049 -0.3805
  113OSM   H14A11719   0.456   4.620  10.809 -0.9754  0.1896 -0.0987
  113OSM   H14B11720   0.566   4.584  10.941  1.2581  0.3907 -0.9710
  113OSM   H14C11721   0.545   4.755  10.889 -1.3875  0.6846  1.3503
  113OSM    C1311722   0.320   4.543  11.037 -0.7174  0.5726 -0.1772
  113OSM   H13A11723   0.283   4.545  11.139  0.2245  0.2755  0.1721
  113OSM   H13B11724   0.394   4.465  11.029 -1.5539 -0.3284  0.6209
  113OSM   H13C11725   0.242   4.523  10.965  1.2150 -0.9078 -1.9252
  113OSM    C1211726   0.276   4.786  10.977 -0.4540  0.1349 -0.0842
  113OSM   H12A11727   0.224   4.789  11.072  1.1282 -1.9018  0.8984
  113OSM   H12B11728   0.203   4.750  10.906  0.0882 -1.9611  0.3684
  113OSM    C1111729   0.327   4.912  10.911  0.6010  0.2053  0.0853
  113OSM   H11A11730   0.234   4.964  10.879  0.7999  0.4739 -0.0518
  113OSM   H11B11731   0.379   4.884  10.817  2.3019 -1.5381  1.4806
  113OSM      P11732   0.342   5.090  11.091  0.3083 -0.0127  0.2069
  113OSM    O1311733   0.241   5.015  11.174 -0.3829  0.3122 -0.3502
  113OSM    O1411734   0.453   5.167  11.160  0.2257 -0.1581  1.4012
  113OSM    O1111735   0.271   5.205  11.005 -0.1929 -0.2732 -0.4068
  113OSM    O1211736   0.411   4.996  10.987  0.4730  0.0440  0.7730
  113OSM    C1S11737   0.337   5.270  10.894  0.0203 -0.0625  0.2026
  113OSM    H1S11738   0.370   5.193  10.821  0.9329 -0.4221  0.9943
  113OSM    H1T11739   0.430   5.320  10.927  1.1631  0.5859 -3.7042
  113OSM     NF11740   0.304   5.425  10.710  0.3707 -0.4973 -0.6009
  113OSM    HNF11741   0.353   5.511  10.724 -0.4897 -0.1175  0.1786
  113OSM    C2S11742   0.240   5.372  10.827 -0.7043 -0.0421 -0.7141
  113OSM    H2S11743   0.144   5.320  10.811 -0.7891 -0.7591  1.8674
  113OSM    C3S11744   0.204   5.479  10.936  0.5943  0.2494 -0.0692
  113OSM    H3S11745   0.299   5.533  10.957 -0.5577  1.0896  3.3900
  113OSM     O311746   0.150   5.435  11.056 -0.3830  0.2950  0.0239
  113OSM    HO311747   0.163   5.341  11.045 -0.6590  0.5366 -2.7929
  113OSM    C4S11748   0.103   5.575  10.884 -0.1848  1.0000  0.7129
  113OSM    H4S11749   0.003   5.530  10.872 -1.2156  3.5050 -0.6330
  113OSM    C5S11750   0.123   5.703  10.859  0.7925  0.2300  0.4607
  113OSM    H5S11751   0.222   5.744  10.887  0.9254  0.2109  0.0247
  113OSM    C6S11752   0.015   5.801  10.818 -0.1636 -0.3437 -0.1133
  113OSM    H6S11753   0.034   5.902  10.860 -0.7681  0.1774 -1.0714
  113OSM    H6T11754  -0.078   5.753  10.854  0.2219 -1.3153 -0.3916
  113OSM    C7S11755  -0.000   5.820  10.657  0.5004  0.3873 -0.4342
  113OSM    H7S11756   0.103   5.846  10.625  0.8976  1.3801  1.5695
  113OSM    H7T11757  -0.074   5.900  10.635 -1.0300 -1.2908 -1.5366
  113OSM    C8S11758  -0.050   5.690  10.582 -0.3215  0.0540  0.2814
  113OSM    H8S11759  -0.161   5.695  10.582 -0.3421 -0.3929  0.3130
  113OSM    H8T11760  -0.009   5.596  10.624 -0.3843 -1.1357 -2.1880
  113OSM    C9S11761  -0.005   5.693  10.437 -0.2221  0.3311  0.2868
  113OSM    H9S11762   0.105   5.678  10.435 -0.1930  0.6010 -0.2821
  113OSM    H9T11763  -0.023   5.797  10.401  1.7117  0.2771 -0.8908
  113OSM   C10S11764  -0.074   5.592  10.346  0.2165 -0.0087 -0.3080
  113OSM   H10S11765  -0.183   5.603  10.361  0.5622 -0.6450  3.2007
  113OSM   H10T11766  -0.052   5.491  10.386 -1.3862 -0.8269 -1.4616
  113OSM   C11S11767  -0.027   5.612  10.198  0.2339  0.1505  0.0243
  113OSM   H11S11768   0.082   5.594  10.196  0.3042  0.5561 -0.0255
  113OSM   H11T11769  -0.030   5.715  10.156  3.8565  0.4212  0.2989
  113OSM   C12S11770  -0.095   5.523  10.099  0.8104  0.8215 -0.4119
  113OSM   H12S11771  -0.204   5.541  10.097  0.5906 -0.4856 -0.5037
  113OSM   H12T11772  -0.078   5.420  10.136 -0.3278  0.3679 -1.1384
  113OSM   C13S11773  -0.043   5.529   9.955 -0.4995 -0.4335 -0.1756
  113OSM   H13S11774   0.067   5.518   9.961  0.0326  3.3340 -1.7448
  113OSM   H13T11775  -0.071   5.631   9.922 -2.4227  0.1660  3.0532
  113OSM   C14S11776  -0.097   5.424   9.854 -0.2107  0.1264 -0.0703
  113OSM   H14S11777  -0.207   5.404   9.859 -0.0086 -0.6628  1.1707
  113OSM   H14T11778  -0.037   5.336   9.883  0.5024  1.5321  2.8547
  113OSM   C15S11779  -0.080   5.480   9.712 -0.4480  0.0133 -0.3730
  113OSM   H15S11780  -0.019   5.573   9.714  0.0094 -0.1886 -2.6692
  113OSM   H15T11781  -0.181   5.509   9.675 -0.7129  0.2532  0.5274
  113OSM   C16S11782  -0.024   5.383   9.606 -0.2657  0.0287  0.7027
  113OSM   H16S11783  -0.104   5.323   9.559 -1.8667  2.0821  0.7471
  113OSM   H16T11784   0.054   5.321   9.656 -1.5643 -1.5995  0.7429
  113OSM   C17S11785   0.020   5.464   9.476  0.1195  0.2923  0.0849
  113OSM   H17S11786   0.114   5.515   9.507  1.5099 -3.8735  3.1713
  113OSM   H17T11787  -0.054   5.538   9.437  1.1019  0.5921 -1.2373
  113OSM   C18S11788   0.063   5.365   9.368  0.3467  0.1164 -0.3267
  113OSM   H18S11789   0.150   5.313   9.414 -0.5858 -1.0806  0.1107
  113OSM   H18T11790   0.089   5.425   9.278  0.7692  0.6651  0.1554
  113OSM   H18U11791  -0.021   5.295   9.351  0.0015  0.3195  0.5614
  113OSM    C1F11792   0.323   5.353  10.599 -0.8475  0.0919 -0.0929
  113OSM     OF11793   0.297   5.238  10.592  0.2037  0.3820 -0.4571
  113OSM    C2F11794   0.377   5.423  10.482  0.6004  0.2825  0.3949
  113OSM    H2F11795   0.486   5.433  10.502  0.2845  2.3180  1.2087
  113OSM    H2G11796   0.341   5.528  10.480  1.3854  0.5414 -1.7513
  113OSM    C3F11797   0.328   5.361  10.350  0.0911 -0.9228  0.1084
  113OSM    H3F11798   0.222   5.329  10.346 -0.1564 -0.0220 -0.9431
  113OSM    H3G11799   0.379   5.263  10.339 -0.8492 -1.3826 -0.1455
  113OSM    C4F11800   0.359   5.447  10.231  0.2699  0.3610 -0.4923
  113OSM    H4F11801   0.466   5.476  10.227 -0.0575  1.7023 -0.0955
  113OSM    H4G11802   0.305   5.545  10.234  0.6791  0.5720  0.0194
  113OSM    C5F11803   0.314   5.384  10.103 -0.8175 -0.5176  0.0009
  113OSM    H5F11804   0.204   5.401  10.100 -0.4657  2.2000  0.8935
  113OSM    H5G11805   0.335   5.276  10.115  2.5711  0.1244  0.2059
  113OSM    C6F11806   0.396   5.437   9.982 -0.1895  0.3775 -0.1916
  113OSM    H6F11807   0.503   5.413   9.999  0.6663  4.4898  0.7529
  113OSM    H6G11808   0.395   5.548   9.977  0.2655  0.3592 -0.6579
  113OSM    C7F11809   0.348   5.388   9.843  1.0206 -0.0263  0.2227
  113OSM    H7F11810   0.255   5.447   9.826  1.7206  0.3158 -2.8269
  113OSM    H7G11811   0.331   5.278   9.847 -0.6881  0.2395  0.7230
  113OSM    C8F11812   0.436   5.408   9.731 -0.5008 -0.4303  0.0533
  113OSM    H8F11813   0.405   5.353   9.639 -1.8975  3.0949 -1.6504
  113OSM    H8G11814   0.536   5.365   9.754  0.8848  1.5153 -2.0684
  113OSM    C9F11815   0.470   5.555   9.708  0.5366  0.0400  0.5694
  113OSM    H9F11816   0.479   5.614   9.800  0.9135  1.1173 -0.1439
  113OSM   C10F11817   0.491   5.619   9.588  0.4587 -0.6792  0.3539
  113OSM   H10F11818   0.526   5.723   9.585 -1.0250 -0.1490  0.6010
  113OSM   C11F11819   0.463   5.551   9.453 -0.5999  0.3883  0.2833
  113OSM   H11F11820   0.358   5.559   9.417  0.0240  0.1455 -1.6372
  113OSM   H11G11821   0.496   5.445   9.455 -0.7535  0.2994 -1.2525
  113OSM   C12F11822   0.541   5.625   9.341  0.2365  0.0358 -0.1538
  113OSM   H12F11823   0.649   5.601   9.353  0.1178  1.0729  3.9831
  113OSM   H12G11824   0.514   5.732   9.328  0.9200  0.0779 -1.3092
  113OSM   C13F11825   0.507   5.569   9.200  0.5006 -0.8632  0.1486
  113OSM   H13F11826   0.554   5.633   9.123 -0.6937 -0.4164 -0.2318
  113OSM   H13G11827   0.396   5.581   9.193  0.2099 -3.9093 -1.4780
  113OSM   C14F11828   0.532   5.422   9.168 -0.9634 -0.8578 -0.2412
  113OSM   H14F11829   0.512   5.402   9.060 -0.9171  0.9682 -0.6066
  113OSM   H14G11830   0.462   5.363   9.231 -1.5144 -0.2061 -0.2343
  113OSM   C15F11831   0.677   5.378   9.198 -0.1873 -0.6169 -1.1217
  113OSM   H15F11832   0.700   5.408   9.303 -0.6409 -0.3539 -1.0940
  113OSM   H15G11833   0.745   5.443   9.139 -0.2054  2.1627  1.7883
  113OSM   C16F11834   0.687   5.227   9.168  0.1120 -0.1644 -0.1253
  113OSM   H16F11835   0.662   5.221   9.060  1.5581  2.7710 -0.6478
  113OSM   H16G11836   0.602   5.184   9.226 -0.3010  0.0002 -0.6049
  113OSM   C17F11837   0.819   5.158   9.193  0.1643 -0.3365  0.9268
  113OSM   H17F11838   0.813   5.063   9.136  2.2256 -0.0493  0.1661
  113OSM   H17G11839   0.859   5.150   9.296 -0.9966  1.8553  1.5658
  113OSM   C18F11840   0.930   5.232   9.111  0.3611  0.3829  0.1167
  113OSM   H18F11841   0.916   5.319   9.178 -2.2329  0.7487 -0.8558
  113OSM   H18G11842   0.900   5.248   9.005 -1.1250  2.6835  0.8350
  113OSM   H18H11843   1.032   5.188   9.114  0.0439 -0.3691 -0.0387
  114OSM      N11844   1.970   1.563  11.223  0.7846  0.5029  0.0485
  114OSM    C1511845   1.949   1.677  11.318 -0.0045 -0.8253 -0.7209
  114OSM   H15A11846   1.847   1.712  11.308 -0.2630 -0.8936  1.3970
  114OSM   H15B11847   2.011   1.750  11.269  2.2827 -1.8235  0.5796
  114OSM   H15C11848   1.969   1.659  11.423 -2.3683  1.3717  0.1744
  114OSM    C1411849   2.107   1.525  11.237  0.1712 -0.7623  0.0788
  114OSM   H14A11850   2.121   1.481  11.335 -0.8565 -3.6645 -1.0131
  114OSM   H14B11851   2.178   1.604  11.216 -0.4744 -0.8295 -2.5258
  114OSM   H14C11852   2.128   1.456  11.157 -0.8646  0.8549 -1.6003
  114OSM    C1311853   1.887   1.449  11.282 -0.1551 -1.2490 -0.6516
  114OSM   H13A11854   1.885   1.372  11.207  0.2306  1.5446 -3.6753
  114OSM   H13B11855   1.789   1.486  11.307  0.3194  0.2032 -0.8908
  114OSM   H13C11856   1.928   1.410  11.374  0.2478 -0.7670 -0.6227
  114OSM    C1211857   1.931   1.596  11.082  0.5429  0.1716 -0.4342
  114OSM   H12A11858   1.991   1.680  11.048 -0.4535  1.0270 -0.1127
  114OSM   H12B11859   1.828   1.627  11.073  0.3815 -1.0006 -2.8899
  114OSM    C1111860   1.955   1.477  10.980 -0.0772  0.0284  0.2246
  114OSM   H11A11861   2.061   1.444  10.979 -0.4762 -1.2443 -1.1628
  114OSM   H11B11862   1.939   1.516  10.877 -2.7293  0.6164  0.8126
  114OSM      P11863   1.914   1.222  10.988  0.0424  0.0079 -0.0679
  114OSM    O1311864   1.994   1.189  11.111  0.4038  0.5249  0.3673
  114OSM    O1411865   1.791   1.142  10.968  0.2181 -0.6054 -0.4190
  114OSM    O1111866   2.010   1.210  10.869 -0.1083 -0.4208 -0.0477
  114OSM    O1211867   1.861   1.366  10.998 -0.6935  0.8589  0.0296
  114OSM    C1S11868   1.963   1.240  10.735  0.1628 -0.9462 -0.2397
  114OSM    H1S11869   1.952   1.351  10.732  2.6412 -0.6485  0.7273
  114OSM    H1T11870   1.862   1.203  10.709 -1.0348  2.1071 -0.1456
  114OSM     NF11871   2.031   1.248  10.499 -0.6448 -0.2479  0.0266
  114OSM    HNF11872   2.019   1.176  10.431  0.0393 -1.4489  1.1545
  114OSM    C2S11873   2.070   1.201  10.624 -0.5974 -0.5243  0.3150
  114OSM    H2S11874   2.167   1.251  10.644 -0.9027  0.5359 -0.7941
  114OSM    C3S11875   2.103   1.041  10.634  0.2650 -1.1383 -0.1848
  114OSM    H3S11876   2.006   0.989  10.622  0.3949 -0.8235 -2.8320
  114OSM     O311877   2.153   0.996  10.762 -0.3859 -0.1721 -0.5796
  114OSM    HO311878   2.155   1.074  10.817 -1.3494 -0.5982  0.0742
  114OSM    C4S11879   2.200   1.000  10.523  0.3448 -0.1163  0.4638
  114OSM    H4S11880   2.152   0.997  10.424  1.1373 -0.5749  0.0797
  114OSM    C5S11881   2.334   0.973  10.530  0.2318  0.1942  0.2585
  114OSM    H5S11882   2.386   1.000  10.623 -3.1337  3.4821  1.3013
  114OSM    C6S11883   2.416   0.932  10.410 -0.2729  0.0000 -0.3455
  114OSM    H6S11884   2.366   0.845  10.363  0.9836 -0.3968 -0.9761
  114OSM    H6T11885   2.513   0.896  10.451 -0.3497 -1.4164 -1.3671
  114OSM    C7S11886   2.450   1.038  10.305 -0.4777 -0.0316  0.3212
  114OSM    H7S11887   2.510   1.118  10.355 -0.4214 -0.2012  0.5258
  114OSM    H7T11888   2.356   1.079  10.263 -1.5190 -1.3926  1.2687
  114OSM    C8S11889   2.535   0.977  10.185  0.5437 -0.2279  0.5055
  114OSM    H8S11890   2.483   0.885  10.150 -1.4034  1.7147 -1.9567
  114OSM    H8T11891   2.637   0.956  10.225  1.0638  2.5664  0.7762
  114OSM    C9S11892   2.566   1.077  10.070 -0.2870 -0.1085 -0.2528
  114OSM    H9S11893   2.644   1.153  10.093 -0.9520  0.2188  0.9877
  114OSM    H9T11894   2.469   1.124  10.040 -0.0091  0.1698 -0.7281
  114OSM   C10S11895   2.630   0.994   9.952 -0.2559  0.2412 -0.0687
  114OSM   H10S11896   2.574   0.901   9.931 -1.4388  0.3115  2.4739
  114OSM   H10T11897   2.734   0.966   9.981 -0.6627 -0.1047  1.0975
  114OSM   C11S11898   2.647   1.083   9.822  0.1896  0.6173 -0.3849
  114OSM   H11S11899   2.711   1.172   9.840 -0.1042  0.5526  1.0330
  114OSM   H11T11900   2.546   1.118   9.791 -0.3209  3.5866  4.2159
  114OSM   C12S11901   2.698   1.005   9.707  0.1649  0.7048  0.2863
  114OSM   H12S11902   2.618   0.929   9.691 -2.1727  3.1579  0.0010
  114OSM   H12T11903   2.794   0.954   9.730  1.1044  2.5151  0.4776
  114OSM   C13S11904   2.692   1.094   9.577  1.2048  0.5889  0.1770
  114OSM   H13S11905   2.737   1.195   9.575 -0.3418  1.3028 -2.5178
  114OSM   H13T11906   2.581   1.102   9.570  1.1227 -1.1344 -1.0902
  114OSM   C14S11907   2.725   1.022   9.447 -0.6057  0.5861 -0.6891
  114OSM   H14S11908   2.673   0.924   9.436 -1.0256  0.8665 -1.2290
  114OSM   H14T11909   2.835   1.009   9.432 -0.1549  1.1730  1.9806
  114OSM   C15S11910   2.678   1.096   9.323 -0.2454  0.0181  0.9285
  114OSM   H15S11911   2.701   1.204   9.339 -0.9493 -0.1603  3.4210
  114OSM   H15T11912   2.569   1.093   9.303  0.3204 -0.5238 -2.3737
  114OSM   C16S11913   2.745   1.046   9.195 -0.3094 -0.2512 -0.4408
  114OSM   H16S11914   2.718   0.939   9.188 -1.3924 -0.0485  0.4836
  114OSM   H16T11915   2.854   1.059   9.209  0.0467  0.5262 -3.4599
  114OSM   C17S11916   2.696   1.121   9.072 -0.4815 -0.7589 -0.3620
  114OSM   H17S11917   2.739   1.223   9.070  0.6459 -1.1935  0.8832
  114OSM   H17T11918   2.587   1.135   9.053 -0.1133  4.9671  1.0385
  114OSM   C18S11919   2.747   1.057   8.938  0.0696 -0.0762  0.1603
  114OSM   H18S11920   2.699   0.959   8.919 -2.3548  0.8242  1.4728
  114OSM   H18T11921   2.858   1.055   8.946 -0.0116  1.3729  2.0476
  114OSM   H18U11922   2.715   1.111   8.846  0.3810 -0.0175  0.0847
  114OSM    C1F11923   2.025   1.374  10.470  0.5943 -0.2170 -0.2754
  114OSM     OF11924   2.080   1.451  10.545  0.1402 -0.2596  0.7354
  114OSM    C2F11925   1.969   1.412  10.342 -0.2078  0.0787  0.2718
  114OSM    H2F11926   1.922   1.323  10.295  0.4054 -0.7125  1.1325
  114OSM    H2G11927   2.055   1.454  10.285 -1.0101  1.8867  0.3575
  114OSM    C3F11928   1.866   1.528  10.343  0.7002 -0.1220 -0.2475
  114OSM    H3F11929   1.920   1.625  10.349  0.0038  0.4808 -2.9525
  114OSM    H3G11930   1.797   1.515  10.429  0.5247  2.7307  0.1050
  114OSM    C4F11931   1.792   1.538  10.208 -0.3322  0.3923  0.7677
  114OSM    H4F11932   1.749   1.640  10.203 -1.2978 -0.0519 -0.2887
  114OSM    H4G11933   1.705   1.468  10.203  0.3626 -0.5129  1.1692
  114OSM    C5F11934   1.889   1.520  10.089  0.2873  0.0026 -0.7006
  114OSM    H5F11935   1.930   1.420  10.065 -1.7292 -1.0680  0.2092
  114OSM    H5G11936   1.979   1.580  10.114  2.6432 -3.9530  0.8451
  114OSM    C6F11937   1.832   1.570   9.961  0.6252  0.5937 -0.3066
  114OSM    H6F11938   1.748   1.640   9.978 -0.4393 -0.6275 -0.4344
  114OSM    H6G11939   1.788   1.485   9.904  0.8733 -1.3521  2.3016
  114OSM    C7F11940   1.948   1.644   9.880 -0.2672 -0.2034 -0.3858
  114OSM    H7F11941   1.983   1.726   9.947  0.1399 -0.5783 -0.1445
  114OSM    H7G11942   1.917   1.695   9.786  1.5239  0.9354 -0.3894
  114OSM    C8F11943   2.078   1.572   9.846 -0.2938 -0.4994  0.2128
  114OSM    H8F11944   2.125   1.528   9.936 -1.4144 -2.9090 -0.3119
  114OSM    H8G11945   2.146   1.646   9.799 -1.6540  0.9660  0.5116
  114OSM    C9F11946   2.051   1.464   9.743 -0.4805  0.3658  0.3157
  114OSM    H9F11947   1.990   1.380   9.777  1.4519 -0.5628  1.5585
  114OSM   C10F11948   2.084   1.471   9.611 -0.0183  0.0318  0.5445
  114OSM   H10F11949   2.047   1.388   9.551  0.8359 -0.7166  1.0439
  114OSM   C11F11950   2.149   1.584   9.536  0.1134  0.4644 -0.2842
  114OSM   H11F11951   2.202   1.655   9.603  0.3249  2.0499 -2.1035
  114OSM   H11G11952   2.066   1.640   9.489 -0.2037 -0.8254 -1.3083
  114OSM   C12F11953   2.247   1.535   9.440 -0.7305  0.0477 -0.2842
  114OSM   H12F11954   2.317   1.451   9.462 -0.7904  0.2475  0.6848
  114OSM   H12G11955   2.313   1.623   9.424 -0.1184 -0.0016  1.8133
  114OSM   C13F11956   2.192   1.516   9.296 -1.1779 -0.2830 -0.0457
  114OSM   H13F11957   2.112   1.591   9.273 -0.3401  0.6224 -0.0333
  114OSM   H13G11958   2.153   1.413   9.311  1.5666 -1.0663  2.1955
  114OSM   C14F11959   2.306   1.514   9.197  0.1479  0.7895 -0.1784
  114OSM   H14F11960   2.391   1.447   9.223  1.5318  1.8119 -1.8773
  114OSM   H14G11961   2.342   1.620   9.198 -0.0284  0.8402  1.3198
  114OSM   C15F11962   2.261   1.486   9.049 -0.0952 -0.0981  0.0543
  114OSM   H15F11963   2.196   1.569   9.015  1.5390 -0.3391 -3.9837
  114OSM   H15G11964   2.207   1.389   9.044 -2.4964  1.1915  0.5730
  114OSM   C16F11965   2.383   1.484   8.953  0.3782 -0.7975  0.5893
  114OSM   H16F11966   2.462   1.421   8.999  0.4586 -1.0930  0.0599
  114OSM   H16G11967   2.421   1.588   8.946  0.1974 -0.5326  3.1321
  114OSM   C17F11968   2.341   1.437   8.813  0.5013  1.0017 -0.6298
  114OSM   H17F11969   2.265   1.509   8.777  0.0505  0.7622 -0.1542
  114OSM   H17G11970   2.297   1.337   8.833 -0.0062  1.1008 -1.2447
  114OSM   C18F11971   2.452   1.409   8.719  0.3183 -0.2648 -0.0165
  114OSM   H18F11972   2.408   1.377   8.623 -0.1732  0.6077 -0.0859
  114OSM   H18G11973   2.518   1.328   8.757 -2.0364 -1.4474  1.7044
  114OSM   H18H11974   2.518   1.495   8.693 -0.6421  1.1990  2.1606
  115OSM      N11975   6.012   0.930  11.209  0.6160  0.3396  0.0555
  115OSM    C1511976   5.910   0.952  11.312 -0.0619  0.3636 -0.3286
  115OSM   H15A11977   5.833   1.012  11.268 -0.5038 -0.4881 -0.7294
  115OSM   H15B11978   5.955   1.015  11.387  0.3628 -0.9923  0.5795
  115OSM   H15C11979   5.866   0.862  11.353 -1.6902  0.8520 -0.9855
  115OSM    C1411980   6.063   1.074  11.186  0.6452 -0.2626  0.4260
  115OSM   H14A11981   6.150   1.085  11.123  0.2388 -1.2301 -0.3088
  115OSM   H14B11982   6.086   1.120  11.281  1.5113  1.0351 -0.3907
  115OSM   H14C11983   5.981   1.136  11.154  0.6942  0.6769  2.0413
  115OSM    C1311984   6.137   0.864  11.267  0.3919  0.0661  0.3259
  115OSM   H13A11985   6.185   0.931  11.336 -1.6180  2.2686 -0.3568
  115OSM   H13B11986   6.205   0.836  11.187  0.6659  0.3824  0.4475
  115OSM   H13C11987   6.107   0.779  11.326  1.0186 -0.3836  0.0149
  115OSM    C1211988   5.965   0.858  11.095 -0.3059 -0.5073  0.4515
  115OSM   H12A11989   5.948   0.754  11.118 -1.3900 -1.1593 -2.9517
  115OSM   H12B11990   6.040   0.859  11.017 -1.0652 -0.1699 -0.2831
  115OSM    C1111991   5.844   0.914  11.026 -0.3153  0.4001  0.1858
  115OSM   H11A11992   5.831   0.858  10.931  0.7170  1.4104 -0.5783
  115OSM   H11B11993   5.866   1.020  11.001  1.0100  0.1792  0.3820
  115OSM      P11994   5.659   0.771  11.131 -0.4190 -0.0647 -0.1762
  115OSM    O1311995   5.752   0.681  11.204 -0.2070  0.2232 -0.6828
  115OSM    O1411996   5.530   0.795  11.193 -0.0451 -0.5104  0.1532
  115OSM    O1111997   5.623   0.713  10.983 -0.2243 -0.2974  0.3859
  115OSM    O1211998   5.725   0.916  11.102 -0.4015  0.3710 -0.3054
  115OSM    C1S11999   5.566   0.799  10.880  0.6460 -0.2871 -0.3431
  115OSM    H1S12000   5.616   0.896  10.859  0.1304  0.2033  0.6794
  115OSM    H1T12001   5.463   0.837  10.897  1.3992  1.3310  0.6983
  115OSM     NF12002   5.542   0.807  10.629 -0.6068 -0.5437 -0.2350
  115OSM    HNF12003   5.452   0.816  10.586 -0.7322 -3.2355 -0.6301
  115OSM    C2S12004   5.552   0.720  10.745  0.0526  0.0004 -0.0551
  115OSM    H2S12005   5.651   0.669  10.739 -0.9190 -1.8135 -1.1228
  115OSM    C3S12006   5.443   0.611  10.759  0.5045 -0.1179  0.5392
  115OSM    H3S12007   5.355   0.672  10.788  1.5613  1.7329 -0.0876
  115OSM     O312008   5.468   0.514  10.858 -0.5501 -0.0332  0.1051
  115OSM    HO312009   5.546   0.549  10.902  0.2603 -1.0217 -0.5420
  115OSM    C4S12010   5.420   0.530  10.641  0.7507 -0.2930  0.5702
  115OSM    H4S12011   5.506   0.483  10.590  0.9032 -1.2875  1.7311
  115OSM    C5S12012   5.303   0.516  10.578  0.2363 -0.3392 -0.2407
  115OSM    H5S12013   5.220   0.585  10.599  1.9453  1.6983 -0.0260
  115OSM    C6S12014   5.271   0.431  10.461 -0.0224 -0.2995 -0.0771
  115OSM    H6S12015   5.248   0.493  10.372 -4.0956 -1.7549 -0.1469
  115OSM    H6T12016   5.177   0.378  10.486  0.5550 -1.4476 -0.2706
  115OSM    C7S12017   5.375   0.322  10.444 -0.0024  0.9585  1.0726
  115OSM    H7S12018   5.370   0.257  10.534 -0.3505  0.1896  0.5044
  115OSM    H7T12019   5.475   0.369  10.449  0.7474  0.1636 -4.0222
  115OSM    C8S12020   5.355   0.232  10.318 -0.9378  0.1896  0.2954
  115OSM    H8S12021   5.249   0.197  10.321 -0.2605 -1.8272  2.0646
  115OSM    H8T12022   5.426   0.148  10.331  0.7132  1.1191 -2.4268
  115OSM    C9S12023   5.387   0.318  10.190 -0.0859  0.1600 -0.1234
  115OSM    H9S12024   5.497   0.335  10.189  0.2814 -2.0537 -2.8553
  115OSM    H9T12025   5.360   0.426  10.190 -0.1869  0.1444 -1.2883
  115OSM   C10S12026   5.343   0.252  10.054 -0.2591 -0.1870  0.4206
  115OSM   H10S12027   5.367   0.144  10.056  0.1287 -0.0840  3.3285
  115OSM   H10T12028   5.410   0.287   9.972  1.2308  1.5069  2.2858
  115OSM   C11S12029   5.196   0.276  10.030  0.1998 -0.7996  0.1238
  115OSM   H11S12030   5.160   0.381  10.040 -2.9842 -1.9483  1.5268
  115OSM   H11T12031   5.134   0.218  10.102 -3.0566  1.2333 -0.9433
  115OSM   C12S12032   5.150   0.241   9.892 -0.8917  0.1805  0.5067
  115OSM   H12S12033   5.040   0.251   9.886 -0.9412  0.2049  1.3583
  115OSM   H12T12034   5.180   0.137   9.868  0.0712  0.0287  2.2763
  115OSM   C13S12035   5.200   0.331   9.771 -0.0636 -0.1972  0.4064
  115OSM   H13S12036   5.302   0.301   9.738  0.1350 -0.6872  1.4562
  115OSM   H13T12037   5.206   0.434   9.813  0.7668  0.2534 -0.7594
  115OSM   C14S12038   5.118   0.348   9.645 -0.2257  0.8261 -0.1868
  115OSM   H14S12039   5.021   0.400   9.659 -1.1642 -1.3162  1.4544
  115OSM   H14T12040   5.098   0.243   9.615  1.7694  0.4221 -0.1594
  115OSM   C15S12041   5.197   0.418   9.538 -0.1827  0.0277 -0.3497
  115OSM   H15S12042   5.293   0.365   9.517 -0.3967  0.1688 -1.7428
  115OSM   H15T12043   5.224   0.521   9.570 -0.3619  0.1909 -0.7248
  115OSM   C16S12044   5.117   0.434   9.404  0.7610  0.0836 -0.2727
  115OSM   H16S12045   5.038   0.510   9.424  0.2063 -0.5734  0.0703
  115OSM   H16T12046   5.074   0.333   9.388 -1.0078  0.6828  0.5019
  115OSM   C17S12047   5.191   0.489   9.276  0.4929  0.1787 -0.1571
  115OSM   H17S12048   5.261   0.556   9.331  0.5425  0.3212 -0.3953
  115OSM   H17T12049   5.119   0.548   9.216 -1.0303  0.7513  2.1546
  115OSM   C18S12050   5.262   0.387   9.191 -0.2217 -0.0495 -0.0089
  115OSM   H18S12051   5.191   0.323   9.134 -1.3072  3.1506 -2.4168
  115OSM   H18T12052   5.330   0.328   9.255  0.6439 -0.9094 -1.6801
  115OSM   H18U12053   5.324   0.447   9.120 -1.3036 -1.1406 -1.9109
  115OSM    C1F12054   5.645   0.880  10.586  0.8645  0.7594  0.1444
  115OSM     OF12055   5.749   0.874  10.647  0.2934 -0.8341  0.0609
  115OSM    C2F12056   5.612   0.982  10.477 -0.3742  0.4833 -0.2587
  115OSM    H2F12057   5.633   1.083  10.519  1.2697 -0.0222  0.1611
  115OSM    H2G12058   5.502   0.979  10.462 -0.5748  0.2573  1.1543
  115OSM    C3F12059   5.696   0.971  10.351  0.2610  0.0315 -0.4725
  115OSM    H3F12060   5.674   0.876  10.299 -1.5658 -1.4195  2.7608
  115OSM    H3G12061   5.802   0.990  10.381 -0.1885  1.4144  0.3021
  115OSM    C4F12062   5.652   1.085  10.256 -0.2959  0.4950 -0.0876
  115OSM    H4F12063   5.653   1.184  10.308 -2.5157  1.6956 -2.2507
  115OSM    H4G12064   5.551   1.071  10.212  0.3989  2.1030 -2.2957
  115OSM    C5F12065   5.751   1.091  10.135 -0.3425  0.0127  0.2277
  115OSM    H5F12066   5.752   0.990  10.090 -0.2698 -0.3189  0.9611
  115OSM    H5G12067   5.851   1.118  10.175  0.2277 -0.7017 -0.6979
  115OSM    C6F12068   5.721   1.203  10.033 -0.0522  0.3801 -0.5144
  115OSM    H6F12069   5.729   1.295  10.094  0.4112  0.5987 -0.8992
  115OSM    H6G12070   5.617   1.189   9.997 -0.5643  1.5629  0.4770
  115OSM    C7F12071   5.810   1.215   9.912  0.7721 -0.0292 -1.0348
  115OSM    H7F12072   5.818   1.129   9.843  0.5494 -0.1314 -0.9317
  115OSM    H7G12073   5.912   1.211   9.956 -0.2014 -0.1200  1.3202
  115OSM    C8F12074   5.785   1.338   9.823 -0.7148 -0.2076  0.6902
  115OSM    H8F12075   5.765   1.431   9.881  0.2031  0.0961  0.5278
  115OSM    H8G12076   5.686   1.317   9.777 -0.3661 -2.0858  0.7789
  115OSM    C9F12077   5.881   1.377   9.712  0.0660 -0.7520 -0.1347
  115OSM    H9F12078   5.963   1.443   9.743 -0.5492 -0.5009  0.9974
  115OSM   C10F12079   5.875   1.344   9.581  0.3328 -0.4904  0.0732
  115OSM   H10F12080   5.950   1.393   9.518 -0.4216 -0.1771 -0.5843
  115OSM   C11F12081   5.773   1.251   9.519  0.0109 -0.3509  0.2397
  115OSM   H11F12082   5.676   1.239   9.572 -0.1764  0.6027  0.1301
  115OSM   H11G12083   5.815   1.149   9.531 -0.5147 -0.3452  2.3851
  115OSM   C12F12084   5.742   1.286   9.368  0.4191 -0.3892  0.0618
  115OSM   H12F12085   5.725   1.394   9.349 -0.2343 -0.3411  0.9071
  115OSM   H12G12086   5.650   1.233   9.336 -0.5291 -0.6409  3.0397
  115OSM   C13F12087   5.863   1.265   9.274 -0.2403  0.6646  0.5028
  115OSM   H13F12088   5.867   1.156   9.255  1.0547  0.4750  1.7592
  115OSM   H13G12089   5.959   1.291   9.323  1.2466 -0.0971 -1.9470
  115OSM   C14F12090   5.852   1.340   9.144 -0.2284  0.4454  0.5562
  115OSM   H14F12091   5.838   1.450   9.154  1.1682  0.8432 -1.4899
  115OSM   H14G12092   5.755   1.310   9.098  0.2465 -0.2330 -0.0179
  115OSM   C15F12093   5.966   1.318   9.044 -0.1206 -0.5104 -0.2242
  115OSM   H15F12094   5.981   1.209   9.026  2.3475  0.1683 -2.7117
  115OSM   H15G12095   6.065   1.352   9.081  0.5962 -2.2820 -0.4805
  115OSM   C16F12096   5.931   1.398   8.913  0.6154  0.3122 -0.6490
  115OSM   H16F12097   5.893   1.499   8.941  1.2256  0.6972 -1.2193
  115OSM   H16G12098   5.848   1.343   8.863  1.2955  0.9747 -2.5408
  115OSM   C17F12099   6.047   1.419   8.808  0.1871  0.1586 -0.2933
  115OSM   H17F12100   6.098   1.320   8.799 -0.3138 -0.2890  1.4264
  115OSM   H17G12101   6.116   1.492   8.855  2.9294 -1.6661 -1.3702
  115OSM   C18F12102   5.995   1.476   8.677  0.8116  0.2232  0.8716
  115OSM   H18F12103   6.085   1.495   8.615  0.5893 -1.6217 -0.0643
  115OSM   H18G12104   5.949   1.575   8.697 -1.6034 -0.3738 -1.3582
  115OSM   H18H12105   5.926   1.408   8.622  1.4262 -1.2768  1.9058
  116OSM      N12106   2.798   4.162  11.018  0.4469 -0.2740 -0.8475
  116OSM    C1512107   2.929   4.230  11.027  0.0898 -0.2437  0.2023
  116OSM   H15A12108   2.922   4.337  11.034 -1.9161 -0.2945 -0.6850
  116OSM   H15B12109   2.988   4.203  10.940 -2.1850 -0.5830 -1.2848
  116OSM   H15C12110   2.981   4.204  11.118 -2.7547 -2.2783  1.2964
  116OSM    C1412111   2.722   4.197  11.143  0.0931 -0.1402  0.1605
  116OSM   H14A12112   2.631   4.139  11.133  0.7773 -1.1029 -0.6353
  116OSM   H14B12113   2.700   4.302  11.143 -0.2537 -0.2146  0.8074
  116OSM   H14C12114   2.774   4.157  11.228  1.5043 -1.2502 -1.1902
  116OSM    C1312115   2.720   4.211  10.898  0.3644 -0.2207 -1.1201
  116OSM   H13A12116   2.764   4.183  10.803 -1.6252 -0.2820 -2.0606
  116OSM   H13B12117   2.716   4.319  10.901 -2.0986 -0.3075 -0.3490
  116OSM   H13C12118   2.621   4.168  10.896 -0.6738  2.1338 -3.2430
  116OSM    C1212119   2.806   4.008  11.015  0.1781  0.4517  0.3626
  116OSM   H12A12120   2.868   3.979  11.099 -0.4633  0.3718  0.8169
  116OSM   H12B12121   2.859   3.982  10.925  2.6763  4.3218  0.6209
  116OSM    C1112122   2.668   3.927  11.044 -0.0503  0.6935 -0.0961
  116OSM   H11A12123   2.628   3.964  11.141 -0.9458 -0.4700 -0.0136
  116OSM   H11B12124   2.683   3.820  11.070  0.8234  0.7244 -0.4418
  116OSM      P12125   2.429   3.983  10.940 -0.2288 -0.3534 -0.0485
  116OSM    O1312126   2.355   3.854  10.953 -0.1485 -0.2703  0.3720
  116OSM    O1412127   2.394   4.086  11.038 -0.0953  0.6552 -0.4385
  116OSM    O1112128   2.405   4.049  10.800 -0.4748  0.2324 -0.3885
  116OSM    O1212129   2.583   3.950  10.934  0.0791  0.1846  0.0665
  116OSM    C1S12130   2.440   3.965  10.688  0.3025 -0.2824 -0.3786
  116OSM    H1S12131   2.392   3.865  10.689  2.7918 -1.5160 -0.0905
  116OSM    H1T12132   2.549   3.942  10.689  0.7125  1.4338 -2.0339
  116OSM     NF12133   2.472   3.939  10.449  0.0989 -0.6831  0.2900
  116OSM    HNF12134   2.545   3.990  10.404 -0.0071 -0.0795  0.7900
  116OSM    C2S12135   2.395   4.021  10.549  0.2432 -0.4470 -0.0251
  116OSM    H2S12136   2.286   4.005  10.536 -0.1070  0.2680  1.8767
  116OSM    C3S12137   2.416   4.176  10.546  0.5039 -0.4035  0.0364
  116OSM    H3S12138   2.520   4.191  10.583  0.5819  0.8697 -0.6877
  116OSM     O312139   2.329   4.248  10.636  0.7832 -0.0620 -0.7567
  116OSM    HO312140   2.300   4.175  10.692 -0.7327  2.4488  1.8768
  116OSM    C4S12141   2.418   4.229  10.401  0.3420 -0.6437 -0.2599
  116OSM    H4S12142   2.520   4.225  10.361  1.0202 -0.5596  1.4284
  116OSM    C5S12143   2.314   4.257  10.325  0.3385  0.1457 -0.9029
  116OSM    H5S12144   2.213   4.238  10.363  0.3432 -0.3817 -1.1463
  116OSM    C6S12145   2.325   4.313  10.178  1.1313  0.8766  0.5030
  116OSM    H6S12146   2.371   4.242  10.106  0.8491  0.8070  0.3897
  116OSM    H6T12147   2.394   4.399  10.185 -0.2308  1.8798  2.0974
  116OSM    C7S12148   2.178   4.352  10.124 -0.0889 -0.2023 -0.3207
  116OSM    H7S12149   2.157   4.456  10.158 -0.0414 -0.7703  1.5047
  116OSM    H7T12150   2.101   4.280  10.160 -0.7941  0.6998  0.0096
  116OSM    C8S12151   2.168   4.350   9.974  0.1536 -0.2289  0.3155
  116OSM    H8S12152   2.062   4.329   9.949  0.4121 -0.0095 -0.9840
  116OSM    H8T12153   2.217   4.257   9.940 -1.1732 -0.5674 -0.6943
  116OSM    C9S12154   2.228   4.475   9.905 -0.1763 -0.2087  0.1019
  116OSM    H9S12155   2.336   4.481   9.931  0.6175 -2.7155 -2.3749
  116OSM    H9T12156   2.182   4.568   9.944 -1.3213 -0.7292  0.0214
  116OSM   C10S12157   2.220   4.474   9.752 -0.3392  0.2083 -0.4038
  116OSM   H10S12158   2.229   4.575   9.706 -0.8527 -0.8143 -2.7940
  116OSM   H10T12159   2.115   4.449   9.725 -0.6751  0.4947  0.5964
  116OSM   C11S12160   2.305   4.361   9.679 -0.5654  0.5622  0.2945
  116OSM   H11S12161   2.279   4.257   9.709 -1.8006  0.7322 -0.1754
  116OSM   H11T12162   2.412   4.365   9.710  0.0091 -1.0636 -1.3455
  116OSM   C12S12163   2.288   4.373   9.525  0.0647  0.2352 -1.0944
  116OSM   H12S12164   2.279   4.480   9.496 -1.8947  0.3303 -0.1797
  116OSM   H12T12165   2.189   4.326   9.507 -0.5375  0.9359  0.2768
  116OSM   C13S12166   2.405   4.303   9.467 -0.8027  0.0482  0.3970
  116OSM   H13S12167   2.428   4.201   9.505 -0.7129  0.4707  1.4981
  116OSM   H13T12168   2.493   4.369   9.482 -0.9824  0.1802  0.8763
  116OSM   C14S12169   2.394   4.318   9.314  0.1200 -0.2752 -0.3274
  116OSM   H14S12170   2.295   4.273   9.292  1.3353 -2.0199 -2.3729
  116OSM   H14T12171   2.482   4.261   9.277  2.0926  2.3266  0.1700
  116OSM   C15S12172   2.394   4.467   9.268  0.3456  0.0733  0.4382
  116OSM   H15S12173   2.461   4.519   9.340 -0.6413  1.5960  0.2615
  116OSM   H15T12174   2.293   4.503   9.296  0.2645 -1.1142  1.7620
  116OSM   C16S12175   2.435   4.490   9.116 -0.1256  0.1629  0.7365
  116OSM   H16S12176   2.536   4.446   9.100  0.3027  0.9273  1.2750
  116OSM   H16T12177   2.450   4.597   9.091 -3.9719  0.3297 -1.1135
  116OSM   C17S12178   2.353   4.416   9.012 -0.4613 -0.1780 -1.0205
  116OSM   H17S12179   2.366   4.306   9.014 -2.6232 -0.4413  1.0570
  116OSM   H17T12180   2.400   4.454   8.919  0.8682 -0.0988 -0.3130
  116OSM   C18S12181   2.208   4.459   8.997 -0.2342  0.2517  0.0190
  116OSM   H18S12182   2.140   4.450   9.085 -0.7375  2.5417 -0.0853
  116OSM   H18T12183   2.155   4.402   8.918 -0.4140  1.4695 -0.7527
  116OSM   H18U12184   2.211   4.568   8.972 -0.7724  0.2873  0.1106
  116OSM    C1F12185   2.451   3.808  10.428  1.1799 -0.7626  0.6141
  116OSM     OF12186   2.353   3.756  10.479 -1.1076 -0.2841  0.7561
  116OSM    C2F12187   2.545   3.738  10.324 -0.1574 -0.2082 -0.1644
  116OSM    H2F12188   2.642   3.728  10.377 -0.7220 -0.1041  0.9140
  116OSM    H2G12189   2.556   3.813  10.243 -0.0227  3.9783  3.4923
  116OSM    C3F12190   2.490   3.606  10.271  0.4128  0.4755  0.2594
  116OSM    H3F12191   2.380   3.611  10.258  0.3706  0.4082  0.5983
  116OSM    H3G12192   2.508   3.526  10.346 -1.2417 -0.0474  0.1116
  116OSM    C4F12193   2.534   3.552  10.134 -0.9843 -0.1610 -0.5157
  116OSM    H4F12194   2.494   3.450  10.118 -0.2917 -0.1616 -2.4177
  116OSM    H4G12195   2.645   3.543  10.130 -0.6661  1.4429  2.9982
  116OSM    C5F12196   2.486   3.635  10.003 -0.3667  1.0242 -0.2586
  116OSM    H5F12197   2.529   3.737  10.013  0.0177  0.8575 -0.1912
  116OSM    H5G12198   2.375   3.629  10.009 -0.3826  2.8616  1.9868
  116OSM    C6F12199   2.545   3.575   9.870 -0.9506 -0.5119  0.1771
  116OSM    H6F12200   2.490   3.486   9.832  0.0437 -2.1162  2.3786
  116OSM    H6G12201   2.648   3.536   9.883 -0.4719  0.7144  0.1229
  116OSM    C7F12202   2.538   3.690   9.763 -0.2192 -0.4885  0.3464
  116OSM    H7F12203   2.589   3.781   9.802 -0.0691  0.1739 -1.3422
  116OSM    H7G12204   2.430   3.716   9.761  0.0825  0.7376 -1.6158
  116OSM    C8F12205   2.581   3.654   9.623 -0.5359  0.3255  0.1492
  116OSM    H8F12206   2.509   3.581   9.580 -0.3562 -0.6994  1.5681
  116OSM    H8G12207   2.678   3.600   9.633 -0.6365  0.3273  1.1500
  116OSM    C9F12208   2.599   3.783   9.544  0.7343  0.2227  0.2023
  116OSM    H9F12209   2.503   3.838   9.541  0.0790 -0.8058  1.6770
  116OSM   C10F12210   2.701   3.829   9.463 -0.2658 -0.0610  0.0283
  116OSM   H10F12211   2.692   3.924   9.407 -0.4724  0.1934  0.4921
  116OSM   C11F12212   2.828   3.757   9.427  0.4977  0.1374  0.1218
  116OSM   H11F12213   2.850   3.674   9.496  1.5884 -0.0948 -0.4997
  116OSM   H11G12214   2.907   3.833   9.413 -1.6684  2.2094 -1.3287
  116OSM   C12F12215   2.809   3.704   9.283 -0.1306  1.0543  0.3823
  116OSM   H12F12216   2.728   3.628   9.273  0.5073  0.3734  0.3581
  116OSM   H12G12217   2.907   3.666   9.247 -0.8827  0.7811 -1.4761
  116OSM   C13F12218   2.774   3.803   9.174 -0.1140 -0.0737  0.1845
  116OSM   H13F12219   2.860   3.873   9.180  2.0198 -2.5726  0.1090
  116OSM   H13G12220   2.685   3.864   9.198  1.1724  1.8197  0.2625
  116OSM   C14F12221   2.779   3.736   9.032  0.0575  0.1890 -0.1058
  116OSM   H14F12222   2.687   3.673   9.026 -0.4553  0.8605  0.5617
  116OSM   H14G12223   2.864   3.668   9.013  0.2366  1.0394 -2.5746
  116OSM   C15F12224   2.777   3.835   8.928 -0.4095 -0.4571 -0.3411
  116OSM   H15F12225   2.842   3.918   8.965 -0.7193 -0.1863 -0.4002
  116OSM   H15G12226   2.681   3.888   8.910  0.6955  0.8911 -2.5812
  116OSM   C16F12227   2.833   3.776   8.792  0.0684 -0.2033  0.3762
  116OSM   H16F12228   2.751   3.709   8.758 -1.4904  2.4606 -1.2502
  116OSM   H16G12229   2.925   3.717   8.809  0.8280  1.4771  2.3085
  116OSM   C17F12230   2.874   3.887   8.685 -0.0803  0.1771  0.3550
  116OSM   H17F12231   2.870   3.849   8.581  2.1179 -0.2269  0.4050
  116OSM   H17G12232   2.976   3.918   8.716 -1.5626  3.3627  2.4554
  116OSM   C18F12233   2.786   4.018   8.686 -0.6474  0.0296 -0.4477
  116OSM   H18F12234   2.681   3.995   8.714 -0.9152  2.9119  1.1098
  116OSM   H18G12235   2.803   4.078   8.593 -1.7407  3.1468  1.2743
  116OSM   H18H12236   2.822   4.078   8.772  1.0940 -1.5565 -0.0501
  117OSM      N12237   6.614   5.181  11.248 -0.2293  0.0045  0.2292
  117OSM    C1512238   6.537   5.246  11.356 -0.0326 -0.2716 -0.1949
  117OSM   H15A12239   6.432   5.234  11.334 -0.2925 -0.6038  1.1888
  117OSM   H15B12240   6.564   5.350  11.354 -1.6486  0.1659  0.0217
  117OSM   H15C12241   6.556   5.210  11.456 -0.8925  0.3642  0.2054
  117OSM    C1412242   6.763   5.228  11.256 -0.4794 -0.4279  0.4805
  117OSM   H14A12243   6.812   5.204  11.349  0.2889  1.3102  0.5266
  117OSM   H14B12244   6.765   5.335  11.269  2.1062 -0.7988  3.9090
  117OSM   H14C12245   6.828   5.192  11.178  0.8703  0.1193  1.3255
  117OSM    C1312246   6.594   5.031  11.275 -0.1196  0.3957 -0.0889
  117OSM   H13A12247   6.489   5.007  11.275 -0.0484 -0.0838  2.3840
  117OSM   H13B12248   6.631   5.000  11.372 -0.1282  0.3357 -0.1044
  117OSM   H13C12249   6.643   4.972  11.199 -3.8322 -2.1102 -0.7024
  117OSM    C1212250   6.564   5.222  11.114  0.1774  0.3731  0.0815
  117OSM   H12A12251   6.569   5.329  11.110  0.8936  0.3562  0.4204
  117OSM   H12B12252   6.464   5.185  11.098  0.1262  1.2816 -1.7959
  117OSM    C1112253   6.640   5.161  10.986  0.5869  0.1246  0.2485
  117OSM   H11A12254   6.728   5.224  10.960  0.1419 -0.0028 -1.6450
  117OSM   H11B12255   6.558   5.173  10.912  1.6783  2.9446 -0.5596
  117OSM      P12256   6.588   4.908  10.924  0.3583  0.1080  0.0900
  117OSM    O1312257   6.609   4.785  11.000 -0.3439 -0.0740 -0.9241
  117OSM    O1412258   6.448   4.962  10.922 -0.5313  1.2396 -0.2771
  117OSM    O1112259   6.649   4.880  10.777  0.6397 -0.7843  0.1437
  117OSM    O1212260   6.681   5.016  10.992 -0.5211  0.1059 -0.1351
  117OSM    C1S12261   6.790   4.924  10.757  1.3655 -0.3020  0.0168
  117OSM    H1S12262   6.858   4.841  10.786  2.0124  0.1023 -0.3238
  117OSM    H1T12263   6.827   5.011  10.815  2.8690 -0.9078 -0.0074
  117OSM     NF12264   6.965   4.959  10.570 -0.5220  0.9433 -0.0667
  117OSM    HNF12265   7.016   5.044  10.582  1.6617 -0.2923 -0.4759
  117OSM    C2S12266   6.826   4.953  10.603 -0.0034 -0.4475  0.3741
  117OSM    H2S12267   6.778   4.869  10.547  0.3000 -1.7821  2.0828
  117OSM    C3S12268   6.746   5.078  10.555  0.1143 -0.2495 -0.4126
  117OSM    H3S12269   6.793   5.166  10.604 -1.2503 -0.7121  1.8411
  117OSM     O312270   6.607   5.093  10.595  0.0815 -0.2220  0.1769
  117OSM    HO312271   6.596   5.020  10.655  0.2958  0.8141  1.4934
  117OSM    C4S12272   6.768   5.095  10.404  0.7268 -0.0199  0.1559
  117OSM    H4S12273   6.859   5.148  10.374  1.8610 -1.6419  0.6449
  117OSM    C5S12274   6.692   5.048  10.303 -0.4277  0.4491  0.3178
  117OSM    H5S12275   6.623   4.969  10.335 -0.9802  0.5070 -0.6921
  117OSM    C6S12276   6.725   5.065  10.163 -0.1956  0.3815  0.3523
  117OSM    H6S12277   6.781   5.158  10.137 -0.0402  0.3168  0.4571
  117OSM    H6T12278   6.632   5.078  10.104  1.5819 -0.7582 -2.8237
  117OSM    C7S12279   6.805   4.950  10.099  0.6043  0.4582 -0.2846
  117OSM    H7S12280   6.744   4.858  10.103 -1.4432  1.7307 -1.0921
  117OSM    H7T12281   6.905   4.932  10.143 -0.0609 -1.8758  0.3316
  117OSM    C8S12282   6.838   4.985   9.952 -0.0338 -0.6075  0.8411
  117OSM    H8S12283   6.927   4.927   9.921 -0.1349 -0.7689  0.8545
  117OSM    H8T12284   6.882   5.087   9.942 -0.8217 -0.1062  2.2362
  117OSM    C9S12285   6.716   4.966   9.856  0.0301 -0.2698 -1.0800
  117OSM    H9S12286   6.640   5.045   9.873 -1.6998 -2.1904  0.4181
  117OSM    H9T12287   6.671   4.866   9.874 -1.2621  0.6408  1.0391
  117OSM   C10S12288   6.769   4.978   9.712 -0.4843 -0.2707  0.1647
  117OSM   H10S12289   6.856   4.911   9.693  0.4194  0.8033  0.4332
  117OSM   H10T12290   6.814   5.079   9.702  0.6040 -0.7630  0.0345
  117OSM   C11S12291   6.661   4.933   9.602 -0.1353 -0.0552 -0.1650
  117OSM   H11S12292   6.568   4.988   9.626 -0.2016 -0.0868 -0.3512
  117OSM   H11T12293   6.636   4.826   9.622 -0.3711 -0.2445 -1.4245
  117OSM   C12S12294   6.691   4.956   9.457 -0.5417  0.5730  0.7518
  117OSM   H12S12295   6.781   4.893   9.439  0.5381  1.7107  2.0451
  117OSM   H12T12296   6.708   5.062   9.431  0.6196 -0.4564 -3.0092
  117OSM   C13S12297   6.588   4.901   9.357 -0.9326 -0.4083 -0.7278
  117OSM   H13S12298   6.497   4.964   9.365 -0.6386 -0.1760  0.9038
  117OSM   H13T12299   6.554   4.795   9.366 -1.6994 -0.0785  0.3604
  117OSM   C14S12300   6.654   4.904   9.213  0.4881  0.4065  0.3160
  117OSM   H14S12301   6.745   4.841   9.213 -0.2929 -0.7605  2.0734
  117OSM   H14T12302   6.676   5.005   9.172 -0.1994  0.6248  0.4802
  117OSM   C15S12303   6.553   4.844   9.110  0.0152 -0.5568 -0.1525
  117OSM   H15S12304   6.462   4.909   9.112  0.6340  0.4137 -2.2352
  117OSM   H15T12305   6.509   4.748   9.146 -0.6085 -0.0873  0.3623
  117OSM   C16S12306   6.605   4.829   8.966 -0.6617  0.3904  0.7194
  117OSM   H16S12307   6.700   4.771   8.959 -0.8992 -0.0313  0.9877
  117OSM   H16T12308   6.630   4.932   8.933  0.3058 -0.2111 -0.4865
  117OSM   C17S12309   6.509   4.759   8.869  0.0021 -0.1633  0.4527
  117OSM   H17S12310   6.422   4.826   8.853 -0.0763 -0.5400 -0.7772
  117OSM   H17T12311   6.476   4.662   8.912  0.8341 -0.1159  1.2221
  117OSM   C18S12312   6.584   4.718   8.744  0.3707 -0.5758  0.1155
  117OSM   H18S12313   6.631   4.813   8.710  2.0337 -1.7349 -0.8945
  117OSM   H18T12314   6.520   4.677   8.662 -0.6537  0.6397  0.2861
  117OSM   H18U12315   6.667   4.648   8.763  1.3811  0.9521  1.4681
  117OSM    C1F12316   7.034   4.847  10.541  0.3001 -0.0824 -0.1666
  117OSM     OF12317   6.976   4.741  10.529 -0.5406  0.1539 -0.1119
  117OSM    C2F12318   7.181   4.864  10.542  0.3780  0.4845 -0.7546
  117OSM    H2F12319   7.217   4.780  10.606 -1.8144  0.9740  1.1985
  117OSM    H2G12320   7.225   4.960  10.575 -0.8071  1.7730 -2.7519
  117OSM    C3F12321   7.229   4.829  10.397 -0.8496  0.0316 -0.1749
  117OSM    H3F12322   7.171   4.745  10.353 -0.8655 -0.2560  0.3951
  117OSM    H3G12323   7.339   4.821  10.404 -0.9338 -0.0079  1.1113
  117OSM    C4F12324   7.193   4.952  10.313  0.4358 -0.2354 -0.2213
  117OSM    H4F12325   7.234   5.033  10.377  0.4974 -0.1225 -0.4045
  117OSM    H4G12326   7.088   4.969  10.283  0.5590  1.7699  0.3738
  117OSM    C5F12327   7.257   4.957  10.173  0.0488  0.8179  0.4535
  117OSM    H5F12328   7.362   4.986  10.192  0.1587  2.7339 -2.6554
  117OSM    H5G12329   7.207   5.034  10.110 -1.4996 -1.0511 -0.6965
  117OSM    C6F12330   7.273   4.825  10.093  0.0141  0.1483  0.3554
  117OSM    H6F12331   7.173   4.790  10.059  0.2688 -0.6571  0.4236
  117OSM    H6G12332   7.306   4.746  10.164 -0.9310 -1.1846 -0.6580
  117OSM    C7F12333   7.361   4.855   9.972 -0.4916 -0.1712  0.3385
  117OSM    H7F12334   7.404   4.761   9.930 -2.2316 -1.0415  0.4707
  117OSM    H7G12335   7.454   4.900  10.012 -1.1563  1.1773  0.4082
  117OSM    C8F12336   7.291   4.929   9.859  0.7892 -0.1732  0.3306
  117OSM    H8F12337   7.364   4.952   9.778 -2.1719  1.5656 -1.9375
  117OSM    H8G12338   7.252   5.028   9.891 -1.6470 -0.7507 -0.7755
  117OSM    C9F12339   7.183   4.854   9.788 -0.6159  0.0354  1.0269
  117OSM    H9F12340   7.128   4.782   9.850 -0.8085 -1.4639 -0.8434
  117OSM   C10F12341   7.150   4.864   9.655  0.4670  0.1415 -0.5346
  117OSM   H10F12342   7.063   4.803   9.628 -0.4434 -0.7518  4.0870
  117OSM   C11F12343   7.203   4.963   9.563 -0.2805 -0.5583  1.1807
  117OSM   H11F12344   7.291   4.927   9.506  0.6240  2.4577  0.5686
  117OSM   H11G12345   7.233   5.057   9.613 -2.2515  0.6906  0.1090
  117OSM   C12F12346   7.088   5.004   9.465  0.2201  1.4627 -0.3127
  117OSM   H12F12347   7.024   5.081   9.513 -0.6623  0.1097  0.6993
  117OSM   H12G12348   7.031   4.909   9.453  0.0590  1.3962  0.9716
  117OSM   C13F12349   7.136   5.034   9.327  0.1784 -0.3845 -0.0766
  117OSM   H13F12350   7.222   4.967   9.303  0.2158 -0.3264 -0.1041
  117OSM   H13G12351   7.177   5.137   9.333 -2.6389  0.6883  1.5295
  117OSM   C14F12352   7.017   5.027   9.233 -0.4993 -0.1567  0.1176
  117OSM   H14F12353   6.931   5.073   9.285 -0.1317  0.5534  0.1088
  117OSM   H14G12354   6.998   4.919   9.245 -4.7931  0.7031  1.9609
  117OSM   C15F12355   7.023   5.069   9.089  0.2675  0.1572 -0.2134
  117OSM   H15F12356   7.057   5.175   9.078  0.8684  0.1077  1.0482
  117OSM   H15G12357   6.928   5.063   9.032  0.4467  0.9101 -0.6060
  117OSM   C16F12358   7.126   4.991   9.015  0.3256 -0.2729  0.4983
  117OSM   H16F12359   7.119   4.880   9.017 -0.0506 -0.2781 -0.6954
  117OSM   H16G12360   7.218   5.030   9.064 -0.0972  2.1603 -0.5831
  117OSM   C17F12361   7.135   5.018   8.863 -0.1865 -0.0390 -0.0810
  117OSM   H17F12362   7.122   5.126   8.844  0.2680 -0.0619 -0.5355
  117OSM   H17G12363   7.052   4.969   8.807 -1.5122  2.2035 -0.1187
  117OSM   C18F12364   7.262   4.964   8.797 -0.4406 -0.4773  0.8820
  117OSM   H18F12365   7.356   4.995   8.847  1.2560 -0.1668 -2.3873
  117OSM   H18G12366   7.272   5.007   8.696  1.2740  0.2814  1.3684
  117OSM   H18H12367   7.252   4.853   8.794 -0.2823 -0.5008  1.1521
  118OSM      N12368   0.591   5.750  11.343  0.0996 -0.0228 -0.1540
  118OSM    C1512369   0.585   5.893  11.395  0.3881 -0.6555  0.2387
  118OSM   H15A12370   0.562   5.962  11.315 -1.5824  0.9223  2.1042
  118OSM   H15B12371   0.682   5.926  11.428 -0.7785  2.7072  0.5762
  118OSM   H15C12372   0.513   5.902  11.475 -1.4566 -0.4102 -1.4001
  118OSM    C1412373   0.733   5.733  11.296  0.1871  0.0840  0.1634
  118OSM   H14A12374   0.780   5.818  11.250  0.6345 -0.5980 -0.6491
  118OSM   H14B12375   0.740   5.649  11.228  1.3300  0.5027 -0.2316
  118OSM   H14C12376   0.793   5.724  11.385  0.0509  3.7905  0.6858
  118OSM    C1312377   0.551   5.658  11.455 -0.2479 -0.2222  0.6756
  118OSM   H13A12378   0.528   5.564  11.407  2.7436 -2.1502  2.8344
  118OSM   H13B12379   0.460   5.678  11.509  0.9829  0.6016  2.4981
  118OSM   H13C12380   0.631   5.633  11.523 -0.7896  0.8267  1.7190
  118OSM    C1212381   0.484   5.739  11.236  0.0603  0.5838  0.5401
  118OSM   H12A12382   0.392   5.765  11.286  1.1891  0.9099  2.4504
  118OSM   H12B12383   0.470   5.637  11.201 -1.4590  1.3407 -1.1460
  118OSM    C1112384   0.494   5.835  11.113  0.0146 -0.3425 -0.0952
  118OSM   H11A12385   0.417   5.813  11.035  0.5538  1.4802 -1.1623
  118OSM   H11B12386   0.587   5.808  11.059  0.0146 -0.5032 -0.0139
  118OSM      P12387   0.350   6.039  11.180 -0.1450 -0.4795 -0.2251
  118OSM    O1312388   0.285   5.950  11.278 -0.0069  0.4212  0.1875
  118OSM    O1412389   0.374   6.183  11.219  0.5239  0.3564 -0.2241
  118OSM    O1112390   0.266   6.031  11.042 -0.3491  0.3719  0.2132
  118OSM    O1212391   0.488   5.971  11.146 -0.0478  0.0506  0.0309
  118OSM    C1S12392   0.340   6.084  10.930  0.2608 -0.5644  0.3161
  118OSM    H1S12393   0.422   6.013  10.905  1.1501  0.5089  0.1420
  118OSM    H1T12394   0.398   6.175  10.954  1.6177 -1.8433  1.9897
  118OSM     NF12395   0.324   6.185  10.709 -0.0007  0.0261  0.2694
  118OSM    HNF12396   0.328   6.282  10.688 -0.5513  0.6728  2.9679
  118OSM    C2S12397   0.247   6.133  10.821 -0.5359  0.6867 -0.2472
  118OSM    H2S12398   0.193   6.042  10.787  0.6132  0.9025 -2.7092
  118OSM    C3S12399   0.153   6.236  10.876  1.0348 -0.5899  0.6503
  118OSM    H3S12400   0.214   6.317  10.922  0.1235  0.8108 -0.5477
  118OSM     O312401   0.060   6.190  10.974 -0.9877  0.2937  0.0846
  118OSM    HO312402   0.096   6.108  11.007  0.7271  1.1564  0.4467
  118OSM    C4S12403   0.072   6.289  10.765 -0.4435  0.5110  0.3174
  118OSM    H4S12404   0.133   6.358  10.704  0.2504  1.4109  1.9999
  118OSM    C5S12405  -0.052   6.260  10.720  0.6573  0.5972  0.2007
  118OSM    H5S12406  -0.111   6.185  10.776 -0.1137  1.2828  0.3155
  118OSM    C6S12407  -0.121   6.328  10.605  0.2469  0.4561 -0.4161
  118OSM    H6S12408  -0.068   6.423  10.584 -1.1425  0.6535 -3.2148
  118OSM    H6T12409  -0.227   6.359  10.613 -0.2420 -1.7154  2.6344
  118OSM    C7S12410  -0.111   6.241  10.476 -0.7430 -0.1589  0.1470
  118OSM    H7S12411  -0.012   6.189  10.471 -0.1127  0.9076  1.2334
  118OSM    H7T12412  -0.127   6.300  10.384  2.0414 -0.1835 -0.3960
  118OSM    C8S12413  -0.219   6.133  10.490  0.0265  0.3977  0.2901
  118OSM    H8S12414  -0.324   6.170  10.479 -0.5896 -0.7922  1.9960
  118OSM    H8T12415  -0.227   6.076  10.585  0.2644 -0.8479 -0.4197
  118OSM    C9S12416  -0.210   6.016  10.388 -0.1419  0.3961  0.1177
  118OSM    H9S12417  -0.307   5.963  10.375  0.6162 -0.4161 -2.4277
  118OSM    H9T12418  -0.125   5.957  10.427  0.6485  1.3109 -0.2242
  118OSM   C10S12419  -0.168   6.065  10.247 -0.3430 -0.0972 -0.7797
  118OSM   H10S12420  -0.142   5.971  10.194 -0.2156 -0.6403  0.2386
  118OSM   H10T12421  -0.074   6.124  10.251 -0.3353 -0.1985  0.7910
  118OSM   C11S12422  -0.283   6.130  10.174  0.5330 -0.1504  0.5671
  118OSM   H11S12423  -0.314   6.225  10.222 -1.5856  0.4031 -1.7910
  118OSM   H11T12424  -0.372   6.064  10.169  0.2242  0.3296 -0.3175
  118OSM   C12S12425  -0.228   6.167  10.036 -0.1230 -0.2053  0.0547
  118OSM   H12S12426  -0.219   6.074   9.977 -0.4426  0.8959 -1.7775
  118OSM   H12T12427  -0.122   6.191  10.059 -1.1219  1.2393  3.4972
  118OSM   C13S12428  -0.319   6.267   9.962  0.0409 -0.7683 -0.2444
  118OSM   H13S12429  -0.339   6.367  10.006  1.5058 -1.0436  1.1046
  118OSM   H13T12430  -0.415   6.220   9.932 -2.1709  2.6591  1.1257
  118OSM   C14S12431  -0.268   6.291   9.824 -0.1013 -0.7328  0.4647
  118OSM   H14S12432  -0.173   6.347   9.813  0.6642 -1.9193  0.9163
  118OSM   H14T12433  -0.347   6.354   9.778  0.2522  0.2418  1.1876
  118OSM   C15S12434  -0.248   6.170   9.735  0.3561  0.9857 -0.1095
  118OSM   H15S12435  -0.335   6.101   9.735 -1.0567  2.6941  2.1288
  118OSM   H15T12436  -0.174   6.103   9.782 -0.6579 -0.5812 -0.7075
  118OSM   C16S12437  -0.190   6.206   9.592  0.3521  0.7292  0.3533
  118OSM   H16S12438  -0.112   6.137   9.553  1.1997  1.6775  0.3546
  118OSM   H16T12439  -0.140   6.306   9.596  0.4694  0.7932 -2.0036
  118OSM   C17S12440  -0.304   6.216   9.478 -0.1530  0.2958 -0.9396
  118OSM   H17S12441  -0.368   6.298   9.517  0.3254 -0.4906  1.5738
  118OSM   H17T12442  -0.358   6.119   9.481  0.8164 -0.2095  0.6181
  118OSM   C18S12443  -0.259   6.258   9.340  0.5496  0.4662 -0.0433
  118OSM   H18S12444  -0.354   6.269   9.282  0.5417  2.8348  0.3831
  118OSM   H18T12445  -0.194   6.180   9.297  0.6414  0.7565 -0.4280
  118OSM   H18U12446  -0.201   6.352   9.349  0.3359  0.6334 -0.4215
  118OSM    C1F12447   0.395   6.091  10.639 -0.8248 -0.2278  1.2857
  118OSM     OF12448   0.417   5.973  10.679 -0.2294  0.0548  0.2042
  118OSM    C2F12449   0.477   6.136  10.518 -0.5483 -0.2853  0.7759
  118OSM    H2F12450   0.549   6.210  10.560 -0.5586 -0.6789  1.5110
  118OSM    H2G12451   0.410   6.195  10.452 -0.4295  2.4671  2.9992
  118OSM    C3F12452   0.553   6.028  10.432  0.3024 -0.2090 -0.5833
  118OSM    H3F12453   0.608   5.966  10.506 -0.1686  0.0769  0.0183
  118OSM    H3G12454   0.626   6.079  10.366  1.4612 -0.3908  0.5366
  118OSM    C4F12455   0.454   5.938  10.356 -0.7016 -0.2908  0.1103
  118OSM    H4F12456   0.423   5.864  10.432 -3.8877  0.0690 -0.7456
  118OSM    H4G12457   0.510   5.878  10.281  1.8418 -0.0725  1.7869
  118OSM    C5F12458   0.337   6.015  10.284  0.1113  0.3616  0.5603
  118OSM    H5F12459   0.386   6.096  10.226  0.0216 -0.6316 -0.9503
  118OSM    H5G12460   0.278   6.065  10.364  1.6626  0.1955  1.8313
  118OSM    C6F12461   0.245   5.932  10.199 -0.8014  0.4807 -0.3515
  118OSM    H6F12462   0.152   5.990  10.184 -1.3450 -0.3832 -0.3191
  118OSM    H6G12463   0.221   5.839  10.256  0.5585 -0.2015 -0.8677
  118OSM    C7F12464   0.306   5.890  10.064  0.9155  0.4069  0.1743
  118OSM    H7F12465   0.412   5.860  10.075  0.7756 -0.8419 -1.5712
  118OSM    H7G12466   0.300   5.976   9.994  0.0205 -1.9064 -2.7010
  118OSM    C8F12467   0.209   5.789   9.996  0.1221  0.6652  0.0041
  118OSM    H8F12468   0.188   5.710  10.071  2.1300  1.0363  1.0017
  118OSM    H8G12469   0.278   5.737   9.926 -1.4794 -1.0036 -0.3630
  118OSM    C9F12470   0.088   5.848   9.927 -0.4908 -0.0922  0.6941
  118OSM    H9F12471   0.012   5.892   9.994  1.2430  0.8670  2.0981
  118OSM   C10F12472   0.063   5.858   9.792  0.8766  0.0371  0.6821
  118OSM   H10F12473  -0.042   5.881   9.769  0.4828 -1.0100  1.3880
  118OSM   C11F12474   0.159   5.828   9.682 -0.6271 -0.0845  0.5547
  118OSM   H11F12475   0.204   5.727   9.679 -3.6470 -1.5039  1.0265
  118OSM   H11G12476   0.230   5.912   9.665 -2.7446  1.7281  0.3156
  118OSM   C12F12477   0.087   5.855   9.555  0.7452  0.1189  0.4843
  118OSM   H12F12478   0.056   5.961   9.545  0.7529  0.1597  0.8985
  118OSM   H12G12479  -0.007   5.797   9.548 -0.1252  1.3985  1.2802
  118OSM   C13F12480   0.174   5.817   9.430 -0.6419 -0.1425  0.0297
  118OSM   H13F12481   0.232   5.724   9.448 -0.3763 -0.2148 -1.1844
  118OSM   H13G12482   0.246   5.900   9.413  0.0035 -1.2548 -2.7715
  118OSM   C14F12483   0.079   5.795   9.306  0.4060 -0.2157  0.0006
  118OSM   H14F12484   0.035   5.894   9.281 -2.3392 -1.6495 -1.0196
  118OSM   H14G12485  -0.011   5.739   9.341 -0.1366  0.5879 -0.0923
  118OSM   C15F12486   0.159   5.737   9.197 -0.5437  0.6691 -0.8513
  118OSM   H15F12487   0.202   5.640   9.230 -2.6632 -1.0006 -2.8798
  118OSM   H15G12488   0.248   5.803   9.182  0.4525 -0.1744  1.1307
  118OSM   C16F12489   0.084   5.720   9.065 -0.5533  0.9825  0.4313
  118OSM   H16F12490   0.038   5.816   9.032  1.8396  1.4050 -1.8853
  118OSM   H16G12491  -0.001   5.650   9.083 -0.0675  0.7043  1.7124
  118OSM   C17F12492   0.166   5.662   8.948 -0.7450 -0.5037 -0.5480
  118OSM   H17F12493   0.272   5.693   8.938 -0.7982 -0.6248 -1.5823
  118OSM   H17G12494   0.111   5.697   8.857  1.1185  0.9629 -1.1514
  118OSM   C18F12495   0.161   5.509   8.946 -0.5820  0.6026 -0.4231
  118OSM   H18F12496   0.059   5.467   8.958  0.5453 -2.4748 -1.1437
  118OSM   H18G12497   0.219   5.470   9.033 -0.9213  0.8720 -0.0736
  118OSM   H18H12498   0.209   5.460   8.859 -1.6747 -0.6989 -0.3033
  119OSM      N12499   0.989   5.100  11.235 -0.3421 -0.4445  0.3302
  119OSM    C1512500   1.043   4.985  11.156  0.2979  0.0476  0.2880
  119OSM   H15A12501   1.124   4.932  11.203 -1.1669 -2.0808  0.4574
  119OSM   H15B12502   1.087   5.018  11.063  0.2721  1.0921  0.6375
  119OSM   H15C12503   0.958   4.922  11.135  0.2510  0.3428 -0.4230
  119OSM    C1412504   0.930   5.056  11.367  0.8723 -0.1109 -0.4011
  119OSM   H14A12505   1.012   5.032  11.434  0.5849 -1.1472 -0.4018
  119OSM   H14B12506   0.876   4.962  11.362  0.8365 -0.0707 -0.8008
  119OSM   H14C12507   0.869   5.132  11.412  1.4550 -0.3409  0.8026
  119OSM    C1312508   1.099   5.189  11.264 -0.2736  0.4718  0.7658
  119OSM   H13A12509   1.176   5.148  11.327 -0.1411 -0.6484 -0.1140
  119OSM   H13B12510   1.055   5.266  11.326 -0.0356  2.3401 -1.3033
  119OSM   H13C12511   1.145   5.225  11.173 -1.6831 -0.0541 -0.1633
  119OSM    C1212512   0.880   5.165  11.151  0.1360 -0.2126 -0.4262
  119OSM   H12A12513   0.825   5.242  11.203  0.3597  1.4992 -2.6360
  119OSM   H12B12514   0.796   5.098  11.143 -0.6814  0.7982 -0.3808
  119OSM    C1112515   0.904   5.206  11.000 -0.5511  0.2486 -0.4411
  119OSM   H11A12516   0.811   5.252  10.961 -0.7165  2.2290  2.0839
  119OSM   H11B12517   0.921   5.111  10.947 -2.3894 -0.4686  0.1976
  119OSM      P12518   1.134   5.263  10.889 -0.1250  0.2363 -0.2508
  119OSM    O1312519   1.251   5.343  10.934  0.1998 -0.3366  0.0700
  119OSM    O1412520   1.150   5.117  10.885 -0.0645  0.8212  0.5949
  119OSM    O1112521   1.092   5.313  10.748 -0.3936 -0.1183  0.3408
  119OSM    O1212522   1.011   5.294  10.982 -0.7058  0.3519 -0.0246
  119OSM    C1S12523   0.993   5.248  10.665  0.0568  0.3523  0.4957
  119OSM    H1S12524   0.894   5.287  10.695  0.2979  0.4039  1.2463
  119OSM    H1T12525   1.003   5.138  10.661 -0.8259  0.2790  0.3965
  119OSM     NF12526   0.904   5.232  10.432 -0.2626 -0.3125 -0.1288
  119OSM    HNF12527   0.917   5.147  10.382 -1.8867 -0.7823  0.2377
  119OSM    C2S12528   1.018   5.277  10.515 -0.1794 -0.0934 -0.2067
  119OSM    H2S12529   1.029   5.386  10.497  0.3763 -0.0012  0.6620
  119OSM    C3S12530   1.157   5.210  10.477  0.0534 -0.1435 -0.5085
  119OSM    H3S12531   1.161   5.100  10.491  2.0481  0.0852  1.1192
  119OSM     O312532   1.268   5.270  10.549 -0.4408 -0.3380  0.2026
  119OSM    HO312533   1.219   5.321  10.614 -2.0119 -2.2135  0.5508
  119OSM    C4S12534   1.176   5.232  10.327  0.2365 -0.1939 -0.3588
  119OSM    H4S12535   1.120   5.160  10.265  1.1677 -3.3873  2.3328
  119OSM    C5S12536   1.227   5.330  10.256 -0.3740 -0.2443 -0.7406
  119OSM    H5S12537   1.280   5.418  10.295 -1.9077  0.5830 -0.4648
  119OSM    C6S12538   1.232   5.321  10.108 -0.3730 -0.3790 -0.0319
  119OSM    H6S12539   1.175   5.234  10.069  1.8148 -0.9882 -1.9871
  119OSM    H6T12540   1.336   5.293  10.080  0.0985  0.9354  0.3673
  119OSM    C7S12541   1.204   5.450  10.030 -0.3195 -0.6191  0.9557
  119OSM    H7S12542   1.274   5.533  10.057  0.4776 -0.2134 -2.2389
  119OSM    H7T12543   1.103   5.490  10.050  0.3417  1.9722 -0.6786
  119OSM    C8S12544   1.220   5.428   9.881 -0.5302 -0.7537  0.4350
  119OSM    H8S12545   1.133   5.374   9.838  0.0739 -1.7528  0.4516
  119OSM    H8T12546   1.310   5.371   9.849  0.7464  1.1950  0.4575
  119OSM    C9S12547   1.234   5.563   9.798 -0.1488 -0.5263  0.4524
  119OSM    H9S12548   1.158   5.635   9.834 -1.4053 -0.5338 -2.0756
  119OSM    H9T12549   1.206   5.551   9.691  1.8773 -1.9306  0.0552
  119OSM   C10S12550   1.375   5.625   9.796  0.1860 -0.6040 -0.4666
  119OSM   H10S12551   1.449   5.550   9.761 -1.5636 -1.7014 -1.9673
  119OSM   H10T12552   1.398   5.649   9.902  2.2547 -0.2601 -0.9897
  119OSM   C11S12553   1.393   5.755   9.713 -0.4711  0.3119 -0.0324
  119OSM   H11S12554   1.334   5.838   9.758  1.3871  1.7314 -0.1856
  119OSM   H11T12555   1.351   5.734   9.612 -0.8891  1.3142 -0.0691
  119OSM   C12S12556   1.534   5.800   9.707 -0.0109 -0.5218  0.3314
  119OSM   H12S12557   1.600   5.719   9.672  1.2569  0.9427 -0.7497
  119OSM   H12T12558   1.570   5.835   9.806 -1.0646 -0.1678  0.5951
  119OSM   C13S12559   1.546   5.924   9.617 -1.2345  0.2531 -0.0561
  119OSM   H13S12560   1.650   5.961   9.622  0.1193 -3.4242  0.3282
  119OSM   H13T12561   1.484   6.010   9.651 -0.2530  0.7360  0.5335
  119OSM   C14S12562   1.503   5.903   9.469 -0.2178 -0.3104  0.2231
  119OSM   H14S12563   1.540   5.983   9.401  0.8167 -1.9788 -1.2365
  119OSM   H14T12564   1.392   5.905   9.471 -0.1750  1.9656  1.1854
  119OSM   C15S12565   1.550   5.771   9.397 -0.0441 -0.1641  0.1746
  119OSM   H15S12566   1.524   5.773   9.289  0.3507 -0.2582  0.0760
  119OSM   H15T12567   1.506   5.684   9.449  0.6353 -1.1310 -0.8416
  119OSM   C16S12568   1.702   5.750   9.402 -0.0950 -0.3131  0.4916
  119OSM   H16S12569   1.739   5.739   9.506  1.8235 -2.1474 -0.3490
  119OSM   H16T12570   1.760   5.828   9.349 -0.8624  1.6207  2.3936
  119OSM   C17S12571   1.745   5.623   9.317  0.8543  0.4216 -0.0224
  119OSM   H17S12572   1.680   5.628   9.226 -0.1254 -1.6098  0.5346
  119OSM   H17T12573   1.699   5.535   9.366  1.2593  0.0010 -0.3970
  119OSM   C18S12574   1.892   5.608   9.298  0.0439 -0.6635  0.1661
  119OSM   H18S12575   1.929   5.691   9.234  1.1014 -0.8115  0.5707
  119OSM   H18T12576   1.924   5.514   9.247 -2.2659 -1.1590 -0.4216
  119OSM   H18U12577   1.945   5.615   9.395  0.0279  1.0172  0.0650
  119OSM    C1F12578   0.786   5.290  10.433 -0.4934 -0.2572 -0.2516
  119OSM     OF12579   0.762   5.385  10.505 -0.1802 -0.2937  0.3114
  119OSM    C2F12580   0.679   5.227  10.341 -0.5177  0.0295  0.6097
  119OSM    H2F12581   0.585   5.261  10.390 -0.6717  2.7941 -1.5111
  119OSM    H2G12582   0.681   5.116  10.346  2.6062  0.0568  0.5462
  119OSM    C3F12583   0.685   5.271  10.191  0.5302  0.8457  0.1959
  119OSM    H3F12584   0.681   5.381  10.175  1.2859  0.8415 -0.0554
  119OSM    H3G12585   0.583   5.244  10.156  1.6031 -1.5885 -1.2057
  119OSM    C4F12586   0.784   5.202  10.095  0.1298  0.0158 -0.0669
  119OSM    H4F12587   0.774   5.092  10.082  1.0369  0.0382 -0.9762
  119OSM    H4G12588   0.888   5.206  10.134  1.2436 -0.1003 -2.9224
  119OSM    C5F12589   0.786   5.260   9.953 -0.8683  0.2807  0.2253
  119OSM    H5F12590   0.809   5.368   9.965 -0.9010  0.8185 -3.7976
  119OSM    H5G12591   0.690   5.253   9.899 -0.4530 -2.0903 -0.2509
  119OSM    C6F12592   0.887   5.185   9.862 -0.3533 -0.1464  0.1603
  119OSM    H6F12593   0.843   5.084   9.848  0.7365 -0.8287  1.5889
  119OSM    H6G12594   0.982   5.167   9.915 -0.6249  2.1025  1.4815
  119OSM    C7F12595   0.898   5.253   9.722 -0.4307 -0.0002 -0.6532
  119OSM    H7F12596   0.936   5.356   9.743 -1.0809  0.4810 -1.8049
  119OSM    H7G12597   0.797   5.272   9.678  0.3652  2.5281 -1.4871
  119OSM    C8F12598   0.991   5.184   9.622  0.9117 -0.4422  0.3672
  119OSM    H8F12599   1.084   5.166   9.680  1.5874 -0.2303 -0.6322
  119OSM    H8G12600   1.014   5.255   9.540  0.5460  1.7203  2.0963
  119OSM    C9F12601   0.926   5.052   9.580  0.3710  0.5201 -0.4301
  119OSM    H9F12602   0.817   5.045   9.596  1.0404  0.0063  4.7934
  119OSM   C10F12603   0.980   4.956   9.502 -0.3735 -0.1120 -0.2365
  119OSM   H10F12604   0.919   4.865   9.493  0.8916 -0.7153 -3.5641
  119OSM   C11F12605   1.119   4.953   9.439 -0.5068 -0.0753  0.2085
  119OSM   H11F12606   1.189   4.880   9.485 -0.2363  1.5284  2.4302
  119OSM   H11G12607   1.176   5.048   9.430 -2.9384  1.5304  1.0699
  119OSM   C12F12608   1.104   4.891   9.299 -0.1141 -0.3817  0.8482
  119OSM   H12F12609   1.026   4.940   9.237  1.0831  1.1534  0.5084
  119OSM   H12G12610   1.067   4.786   9.294  1.4083 -0.8737 -0.7254
  119OSM   C13F12611   1.229   4.907   9.215 -0.6176 -0.0960  0.0319
  119OSM   H13F12612   1.320   4.890   9.276  0.7106  1.1672 -1.5512
  119OSM   H13G12613   1.229   5.008   9.168  0.6577  0.7620  1.8142
  119OSM   C14F12614   1.234   4.800   9.107 -0.7386 -0.6681 -0.0135
  119OSM   H14F12615   1.220   4.704   9.161 -1.0730  0.1153  1.3181
  119OSM   H14G12616   1.335   4.807   9.061 -1.1705 -2.1845 -1.2241
  119OSM   C15F12617   1.141   4.822   8.989  0.7921 -0.1808 -0.5864
  119OSM   H15F12618   1.037   4.828   9.028  1.3276 -0.4615  0.9198
  119OSM   H15G12619   1.149   4.726   8.934  0.5557 -1.1193  0.9861
  119OSM   C16F12620   1.156   4.950   8.907 -0.1261  0.2708 -0.0804
  119OSM   H16F12621   1.259   4.937   8.867  0.6180  1.0927  1.5126
  119OSM   H16G12622   1.146   5.040   8.971  0.5608 -0.8745  1.6868
  119OSM   C17F12623   1.061   4.960   8.796 -0.1814  0.8671  0.2369
  119OSM   H17F12624   0.959   4.955   8.840 -0.2867 -0.0175 -0.0833
  119OSM   H17G12625   1.067   4.870   8.731  0.9226  0.8288  0.3856
  119OSM   C18F12626   1.067   5.090   8.715  0.1542 -0.1776  0.1984
  119OSM   H18F12627   1.157   5.150   8.739 -0.0596  0.1782  0.1195
  119OSM   H18G12628   0.984   5.162   8.734  2.7028  2.7362  0.6421
  119OSM   H18H12629   1.066   5.066   8.606  1.1916 -2.1304  0.5980
  120OSM      N12630   0.144   1.613  10.759  0.1690  0.3094  0.1223
  120OSM    C1512631   0.203   1.509  10.857 -0.5345  0.5178 -0.3815
  120OSM   H15A12632   0.233   1.421  10.803 -0.8557  1.2728 -1.8060
  120OSM   H15B12633   0.121   1.473  10.918  0.3606  0.0940  0.5903
  120OSM   H15C12634   0.281   1.555  10.916 -1.5564 -0.4423  1.8020
  120OSM    C1412635   0.023   1.542  10.706  0.3372  0.4081  0.2343
  120OSM   H14A12636  -0.018   1.608  10.631  0.9053  2.5217  1.7464
  120OSM   H14B12637  -0.057   1.520  10.775 -1.9739  1.8247 -1.9070
  120OSM   H14C12638   0.047   1.459  10.641  0.7615  0.1981  0.6585
  120OSM    C1312639   0.111   1.728  10.844 -0.0054 -0.1169  0.5368
  120OSM   H13A12640   0.054   1.798  10.784 -1.0959 -2.0035 -0.6487
  120OSM   H13B12641   0.205   1.773  10.875 -0.4596  1.7015 -0.6269
  120OSM   H13C12642   0.045   1.700  10.924  0.1735 -0.7232  0.4728
  120OSM    C1212643   0.243   1.649  10.658  0.1795  0.8188  0.3610
  120OSM   H12A12644   0.285   1.564  10.606  0.9285  0.5439  1.3865
  120OSM   H12B12645   0.328   1.690  10.710 -0.7223 -0.8351  3.2419
  120OSM    C1112646   0.208   1.745  10.547 -0.7769 -0.2219 -0.2058
  120OSM   H11A12647   0.134   1.696  10.480 -0.9490 -1.0819  0.5979
  120OSM   H11B12648   0.302   1.755  10.489 -1.2940 -1.1703 -1.2095
  120OSM      P12649   0.120   1.988  10.516  0.3085  0.3999 -0.2742
  120OSM    O1312650  -0.023   2.018  10.537 -0.1666  0.3371 -0.1247
  120OSM    O1412651   0.220   2.094  10.538 -0.3577  0.4901  0.4914
  120OSM    O1112652   0.150   1.931  10.382  0.2764 -0.4074  0.2760
  120OSM    O1212653   0.164   1.867  10.610 -0.2021  0.0680  0.2076
  120OSM    C1S12654   0.072   1.980  10.266  0.6213 -0.9417 -0.5555
  120OSM    H1S12655   0.002   2.064  10.281 -0.4947 -1.6189 -1.8955
  120OSM    H1T12656   0.012   1.890  10.240  0.1586 -1.2498  1.4696
  120OSM     NF12657   0.070   2.075  10.041  0.2467 -0.1902 -0.2657
  120OSM    HNF12658   0.020   2.021   9.973  0.1085 -2.0218  1.2489
  120OSM    C2S12659   0.160   2.023  10.141 -0.9832  0.8105  0.4330
  120OSM    H2S12660   0.231   2.101  10.177  1.3679 -1.3136  0.5408
  120OSM    C3S12661   0.248   1.905  10.090 -0.5114  0.4551  0.4636
  120OSM    H3S12662   0.183   1.821  10.057  0.0044 -0.2673  1.2774
  120OSM     O312663   0.331   1.849  10.193 -0.5902  0.1079 -0.1164
  120OSM    HO312664   0.291   1.886  10.273  1.0666  3.1494 -0.5883
  120OSM    C4S12665   0.336   1.943   9.973 -0.6368 -0.2321 -0.0548
  120OSM    H4S12666   0.425   2.006   9.986 -0.2098 -0.3965 -2.0713
  120OSM    C5S12667   0.330   1.879   9.853  0.7214  0.4552 -0.2605
  120OSM    H5S12668   0.259   1.799   9.826  1.3177 -0.4724  0.8545
  120OSM    C6S12669   0.424   1.904   9.743  0.2011 -1.0119  0.7850
  120OSM    H6S12670   0.410   1.821   9.671 -0.4428  0.4237 -0.7795
  120OSM    H6T12671   0.526   1.899   9.787  0.0378 -0.2941  1.2464
  120OSM    C7S12672   0.423   2.040   9.659  0.6148  0.2434 -0.2955
  120OSM    H7S12673   0.459   2.128   9.716  2.9388 -1.8034  1.4938
  120OSM    H7T12674   0.320   2.049   9.618  0.9817  0.9566 -1.0794
  120OSM    C8S12675   0.503   2.023   9.535  0.1123 -0.3796 -0.1847
  120OSM    H8S12676   0.460   1.938   9.477  0.3678 -2.4183  2.5063
  120OSM    H8T12677   0.610   1.995   9.549  0.0301 -0.7923 -0.3577
  120OSM    C9S12678   0.504   2.151   9.445  0.9003  0.0490  0.2158
  120OSM    H9S12679   0.570   2.133   9.357  0.1122  0.3041 -0.4344
  120OSM    H9T12680   0.534   2.243   9.500 -0.5877  2.6813 -3.1571
  120OSM   C10S12681   0.366   2.173   9.373  1.1887  0.0798 -0.0144
  120OSM   H10S12682   0.287   2.176   9.450  0.9295 -1.6251 -0.1890
  120OSM   H10T12683   0.337   2.081   9.316  2.1483 -1.7423  2.3527
  120OSM   C11S12684   0.366   2.298   9.279  0.8933  0.3698  1.0572
  120OSM   H11S12685   0.428   2.281   9.188 -0.4728  0.3868  0.1167
  120OSM   H11T12686   0.417   2.381   9.333 -2.3597  2.4905  0.9906
  120OSM   C12S12687   0.223   2.334   9.224 -0.5836 -0.1539  0.2764
  120OSM   H12S12688   0.223   2.434   9.175 -1.8877 -0.6242 -0.7120
  120OSM   H12T12689   0.157   2.334   9.313 -0.0381  1.4317  0.7045
  120OSM   C13S12690   0.178   2.247   9.106  0.2580  0.0103  0.6409
  120OSM   H13S12691   0.226   2.149   9.125 -0.0111 -0.3755 -0.5925
  120OSM   H13T12692   0.231   2.277   9.013  0.6299 -0.1862  0.7905
  120OSM   C14S12693   0.028   2.245   9.090 -0.0994  0.0413 -0.0150
  120OSM   H14S12694  -0.008   2.349   9.078  0.8411  0.2500 -1.0700
  120OSM   H14T12695  -0.019   2.204   9.182  0.7858 -0.3248  0.2801
  120OSM   C15S12696  -0.018   2.159   8.975  0.0539  0.5791 -0.1487
  120OSM   H15S12697   0.033   2.060   8.981  0.6514  0.9107  0.3065
  120OSM   H15T12698   0.011   2.211   8.882 -0.5507  0.0889 -0.6115
  120OSM   C16S12699  -0.163   2.115   8.973  0.0040 -0.2110 -0.0814
  120OSM   H16S12700  -0.234   2.200   8.977 -0.4588 -0.6697  1.6895
  120OSM   H16T12701  -0.191   2.043   9.052  3.5946  0.3750  1.8410
  120OSM   C17S12702  -0.196   2.052   8.845 -0.1313  0.7129 -0.1587
  120OSM   H17S12703  -0.289   1.992   8.852  1.0208 -1.1601 -0.3395
  120OSM   H17T12704  -0.121   1.975   8.815 -1.8951 -1.5016  0.9684
  120OSM   C18S12705  -0.216   2.155   8.734  0.2908  0.4298 -0.0326
  120OSM   H18S12706  -0.259   2.097   8.650 -0.3799 -1.7618  1.7820
  120OSM   H18T12707  -0.122   2.206   8.701 -0.3988  1.4996 -0.3584
  120OSM   H18U12708  -0.291   2.233   8.758  0.3854  0.3356  0.5912
  120OSM    C1F12709   0.027   2.205  10.045  0.1337  0.5084 -1.0539
  120OSM     OF12710   0.072   2.288  10.129  0.8863 -0.0842 -0.6517
  120OSM    C2F12711  -0.079   2.242   9.951 -0.5103  0.5478  0.1651
  120OSM    H2F12712  -0.162   2.289  10.009  0.3918  1.3903  0.7772
  120OSM    H2G12713  -0.124   2.154   9.900  0.9196 -1.3483  2.1128
  120OSM    C3F12714  -0.017   2.345   9.851 -0.2630  0.5285  0.4176
  120OSM    H3F12715   0.023   2.428   9.912  2.4289 -0.9900  0.7665
  120OSM    H3G12716  -0.090   2.386   9.777  1.1422  0.7791 -0.8543
  120OSM    C4F12717   0.098   2.282   9.765  1.0828 -0.4537  0.5144
  120OSM    H4F12718   0.044   2.203   9.709  0.4782 -0.2923  0.8679
  120OSM    H4G12719   0.176   2.229   9.824  0.7164  1.4905  2.8203
  120OSM    C5F12720   0.161   2.367   9.657  0.0956 -0.6498  0.2678
  120OSM    H5F12721   0.080   2.405   9.591  0.7041  0.6309  0.2431
  120OSM    H5G12722   0.235   2.309   9.598  0.1744 -0.2139 -0.0660
  120OSM    C6F12723   0.233   2.491   9.715  0.7747  0.0101  0.8482
  120OSM    H6F12724   0.293   2.470   9.806  1.9704 -0.9584 -0.1548
  120OSM    H6G12725   0.155   2.568   9.736 -0.6476 -1.0502 -0.3925
  120OSM    C7F12726   0.343   2.555   9.616 -0.5931 -0.1490  0.1220
  120OSM    H7F12727   0.424   2.481   9.599 -0.1929  0.2271  0.3951
  120OSM    H7G12728   0.397   2.637   9.666  0.2101 -0.5974 -0.0063
  120OSM    C8F12729   0.276   2.604   9.489  0.4958 -0.7378  0.1660
  120OSM    H8F12730   0.188   2.661   9.527 -0.3839 -1.2641 -1.0174
  120OSM    H8G12731   0.241   2.512   9.437 -1.1278  1.0638 -2.0573
  120OSM    C9F12732   0.375   2.684   9.422  0.4755 -0.5307 -0.7055
  120OSM    H9F12733   0.481   2.660   9.438  0.5726  2.0912  3.4375
  120OSM   C10F12734   0.345   2.779   9.328  0.4000 -0.2602 -0.5827
  120OSM   H10F12735   0.424   2.831   9.272 -0.5848  0.2320 -1.5407
  120OSM   C11F12736   0.207   2.819   9.281  0.8402 -0.0922 -0.1698
  120OSM   H11F12737   0.192   2.929   9.272  0.7569 -0.1433 -0.6445
  120OSM   H11G12738   0.130   2.788   9.354 -0.0211  1.2671 -0.4860
  120OSM   C12F12739   0.164   2.748   9.148 -0.3925 -0.4297 -0.2797
  120OSM   H12F12740   0.059   2.771   9.118 -0.5423 -2.0274 -1.0616
  120OSM   H12G12741   0.162   2.637   9.162 -3.4689 -0.4092 -0.2809
  120OSM   C13F12742   0.259   2.790   9.034 -0.7127 -0.1341 -0.2837
  120OSM   H13F12743   0.353   2.737   9.059 -1.5576 -1.2285  0.6935
  120OSM   H13G12744   0.278   2.900   9.033 -0.0034 -0.2631 -1.2715
  120OSM   C14F12745   0.222   2.739   8.898  0.2152 -0.4332  0.5702
  120OSM   H14F12746   0.295   2.786   8.829  0.5580  0.4766  1.5489
  120OSM   H14G12747   0.120   2.775   8.873  0.1379  0.2878  1.8834
  120OSM   C15F12748   0.242   2.584   8.886  1.2742 -0.0559  0.0854
  120OSM   H15F12749   0.198   2.536   8.976  1.6365  0.7926  0.7225
  120OSM   H15G12750   0.347   2.550   8.897  1.1426 -0.9985 -1.4387
  120OSM   C16F12751   0.191   2.518   8.765 -0.0416  0.3869  1.0713
  120OSM   H16F12752   0.226   2.413   8.757  1.9012  0.8453  3.0733
  120OSM   H16G12753   0.234   2.562   8.672  2.2679 -1.1469  1.3799
  120OSM   C17F12754   0.035   2.531   8.750 -0.5312  0.0690 -0.2392
  120OSM   H17F12755   0.012   2.640   8.748 -0.2302  0.1174 -1.1388
  120OSM   H17G12756  -0.018   2.472   8.828 -0.9722  1.8765  0.8545
  120OSM   C18F12757  -0.004   2.477   8.612  0.0111  0.7060  0.1027
  120OSM   H18F12758   0.061   2.518   8.531  0.4339  1.6389  0.8971
  120OSM   H18G12759  -0.111   2.483   8.584 -0.5472 -1.2481  1.7345
  120OSM   H18H12760   0.008   2.367   8.616  0.4983  0.7070 -1.0180
  121OSM      N12761   5.702   5.392  10.792  0.4827 -1.0043 -0.3587
  121OSM    C1512762   5.580   5.457  10.861 -0.6443  0.2263  0.2593
  121OSM   H15A12763   5.496   5.389  10.853  0.4683 -0.9734 -1.8409
  121OSM   H15B12764   5.562   5.549  10.807  0.3435 -1.6436 -3.4593
  121OSM   H15C12765   5.605   5.480  10.963 -0.2097 -0.7966  0.3898
  121OSM    C1412766   5.700   5.250  10.841  0.9664  0.5574 -0.0598
  121OSM   H14A12767   5.775   5.192  10.788  1.7093  2.5450 -1.2150
  121OSM   H14B12768   5.612   5.189  10.826  0.7719  0.9175 -0.3823
  121OSM   H14C12769   5.717   5.244  10.947  0.4962  0.8612  0.0345
  121OSM    C1312770   5.695   5.401  10.647 -0.3760  0.3056 -0.7469
  121OSM   H13A12771   5.783   5.354  10.605  1.6681  3.7772 -0.5887
  121OSM   H13B12772   5.697   5.506  10.621  3.2204  1.2642  2.7734
  121OSM   H13C12773   5.611   5.353  10.599 -0.8152  0.4466 -0.1272
  121OSM    C1212774   5.819   5.471  10.842  0.1276 -0.0097 -0.0260
  121OSM   H12A12775   5.813   5.481  10.950  0.5065 -1.8461  0.1738
  121OSM   H12B12776   5.811   5.577  10.825 -2.0298  0.1216  1.5179
  121OSM    C1112777   5.952   5.421  10.798  0.2300  0.4256 -0.1734
  121OSM   H11A12778   6.017   5.503  10.836 -1.3154  3.1374 -3.1909
  121OSM   H11B12779   5.964   5.423  10.688  0.8085 -1.3436 -0.1497
  121OSM      P12780   6.092   5.269  10.947  0.1316  0.5851 -0.3721
  121OSM    O1312781   6.068   5.357  11.064 -0.0931  0.6956 -0.1325
  121OSM    O1412782   6.109   5.123  10.977 -0.2546 -0.1484  0.5927
  121OSM    O1112783   6.216   5.320  10.875  0.5704  0.1152  0.5064
  121OSM    O1212784   5.984   5.286  10.846 -0.4564 -0.9073  0.6086
  121OSM    C1S12785   6.284   5.236  10.771 -0.2773 -0.0588  0.0385
  121OSM    H1S12786   6.227   5.144  10.747 -1.0799  0.9057 -1.9121
  121OSM    H1T12787   6.381   5.208  10.817  0.4403 -0.3429 -1.5997
  121OSM     NF12788   6.360   5.229  10.540 -0.2757 -0.0957  0.4391
  121OSM    HNF12789   6.457   5.218  10.519 -0.3902 -1.0537  0.3668
  121OSM    C2S12790   6.303   5.318  10.643  0.4371  0.4254 -0.0032
  121OSM    H2S12791   6.212   5.359  10.596 -0.2762  1.5041  2.2713
  121OSM    C3S12792   6.389   5.445  10.676  0.0015  0.1084  0.6080
  121OSM    H3S12793   6.499   5.428  10.683  0.6916  3.3028 -1.0168
  121OSM     O312794   6.360   5.509  10.803  0.2649 -0.2261 -0.4055
  121OSM    HO312795   6.304   5.447  10.851  1.4998 -0.2174  1.1054
  121OSM    C4S12796   6.378   5.548  10.567 -0.5714 -0.3727 -0.4352
  121OSM    H4S12797   6.459   5.535  10.494 -1.9084  0.2499 -2.0483
  121OSM    C5S12798   6.270   5.628  10.558 -0.4407  0.3203  0.3384
  121OSM    H5S12799   6.185   5.606  10.625 -1.0555  0.2980 -0.4348
  121OSM    C6S12800   6.240   5.725  10.444  0.7029  0.1066 -0.8853
  121OSM    H6S12801   6.234   5.834  10.464  2.0239 -0.2556  1.7652
  121OSM    H6T12802   6.133   5.703  10.423  0.5458 -0.4965  0.4828
  121OSM    C7S12803   6.322   5.707  10.316 -0.4031  0.1994  0.0457
  121OSM    H7S12804   6.318   5.600  10.289  2.2024  0.3119 -0.9683
  121OSM    H7T12805   6.428   5.732  10.343  0.5847 -2.2536 -1.4231
  121OSM    C8S12806   6.264   5.783  10.194 -0.5543  0.0092 -0.3346
  121OSM    H8S12807   6.222   5.880  10.229  0.6542 -0.1813  1.7353
  121OSM    H8T12808   6.181   5.716  10.161  1.0616 -1.0287 -2.4335
  121OSM    C9S12809   6.362   5.793  10.076 -0.1439 -0.3560  0.5366
  121OSM    H9S12810   6.405   5.691  10.067  0.5275  0.1588 -3.1905
  121OSM    H9T12811   6.451   5.858  10.091  0.1246 -0.1107 -1.9269
  121OSM   C10S12812   6.310   5.815   9.935 -0.3275 -0.0007 -0.2592
  121OSM   H10S12813   6.262   5.915   9.939 -2.0205 -0.8414  0.9734
  121OSM   H10T12814   6.220   5.754   9.917 -2.1756  3.0319 -1.7840
  121OSM   C11S12815   6.415   5.796   9.830  0.2060 -0.2084  0.6380
  121OSM   H11S12816   6.469   5.699   9.836 -0.2935 -0.4212  1.9138
  121OSM   H11T12817   6.489   5.879   9.832  1.1738 -1.0578  0.3485
  121OSM   C12S12818   6.362   5.814   9.690  0.4535 -0.5995 -0.2646
  121OSM   H12S12819   6.329   5.917   9.664 -0.2535 -1.1730 -1.6742
  121OSM   H12T12820   6.274   5.747   9.676  0.0963  0.2216 -2.0647
  121OSM   C13S12821   6.468   5.771   9.583 -0.3145  0.3331  0.6761
  121OSM   H13S12822   6.500   5.665   9.584  0.9417  0.7085  0.6454
  121OSM   H13T12823   6.555   5.838   9.598  0.6846 -0.9351  0.5784
  121OSM   C14S12824   6.403   5.790   9.445 -0.1567  0.5824  0.4292
  121OSM   H14S12825   6.353   5.888   9.438  0.3875  0.8865  0.7241
  121OSM   H14T12826   6.316   5.722   9.437 -1.6455  2.7155 -2.4386
  121OSM   C15S12827   6.493   5.767   9.328  0.3320 -0.2998  0.0662
  121OSM   H15S12828   6.558   5.677   9.343  1.4527  0.5199  0.1866
  121OSM   H15T12829   6.566   5.849   9.313  0.9663 -0.6222  1.2922
  121OSM   C16S12830   6.410   5.746   9.201  0.1716  0.0564 -0.4339
  121OSM   H16S12831   6.319   5.694   9.238 -0.2045  1.1898  0.2421
  121OSM   H16T12832   6.471   5.675   9.141  1.4922  1.7048 -1.0907
  121OSM   C17S12833   6.378   5.871   9.130  0.6131  0.1341  0.8720
  121OSM   H17S12834   6.313   5.938   9.190 -0.6514 -0.2270 -0.0637
  121OSM   H17T12835   6.319   5.838   9.042  0.0179  0.8206  1.0135
  121OSM   C18S12836   6.499   5.945   9.081  0.5470 -0.1664  0.8277
  121OSM   H18S12837   6.593   5.887   9.094  1.2563  1.3114  2.5392
  121OSM   H18T12838   6.520   6.038   9.138  1.2767  1.5261 -2.1322
  121OSM   H18U12839   6.484   5.986   8.979 -0.9461  1.5077  1.6874
  121OSM    C1F12840   6.281   5.130  10.501  0.2398 -0.2345  0.0208
  121OSM     OF12841   6.162   5.144  10.508  0.4657 -0.2164  0.3066
  121OSM    C2F12842   6.351   5.005  10.447 -0.5333 -0.6409 -0.3736
  121OSM    H2F12843   6.406   4.954  10.529 -0.3985 -0.7170 -0.5147
  121OSM    H2G12844   6.429   5.037  10.376 -0.5552 -1.8936 -0.9679
  121OSM    C3F12845   6.246   4.911  10.392  1.0326 -0.6214  0.0981
  121OSM    H3F12846   6.164   4.964  10.338  1.4233  2.1949  2.1696
  121OSM    H3G12847   6.207   4.858  10.481  0.0449 -1.8986 -1.0747
  121OSM    C4F12848   6.301   4.816  10.294 -0.1768 -0.2222 -0.2958
  121OSM    H4F12849   6.235   4.727  10.292 -2.6705  1.5289  1.5678
  121OSM    H4G12850   6.401   4.789  10.335  0.5461  2.5077 -0.1743
  121OSM    C5F12851   6.328   4.863  10.151  0.8850 -0.8567  0.5583
  121OSM    H5F12852   6.406   4.942  10.144 -2.0672  2.3238  2.1770
  121OSM    H5G12853   6.235   4.905  10.106  1.1419 -0.2038  0.6334
  121OSM    C6F12854   6.380   4.763  10.045 -0.5035  0.4347 -0.4194
  121OSM    H6F12855   6.322   4.669  10.055  0.3587  0.0836  1.5044
  121OSM    H6G12856   6.480   4.728  10.078 -0.2595 -0.1589 -1.7565
  121OSM    C7F12857   6.399   4.834   9.910 -0.1611 -0.1931  0.3641
  121OSM    H7F12858   6.478   4.910   9.926  0.9251 -0.8482 -1.7223
  121OSM    H7G12859   6.311   4.901   9.898  0.6135  1.0654  1.4985
  121OSM    C8F12860   6.412   4.742   9.786  0.4551 -1.2330  0.0111
  121OSM    H8F12861   6.509   4.690   9.785  2.4719  2.3336  0.9999
  121OSM    H8G12862   6.411   4.809   9.697  2.0651 -2.4549 -0.9351
  121OSM    C9F12863   6.298   4.653   9.768  0.5961  0.2464  0.6506
  121OSM    H9F12864   6.256   4.611   9.861  0.9341  1.3825  1.3276
  121OSM   C10F12865   6.250   4.593   9.660  0.0917 -0.3667  0.0947
  121OSM   H10F12866   6.161   4.531   9.682  1.0523 -1.3380  1.3601
  121OSM   C11F12867   6.298   4.611   9.516 -0.5483 -0.2008 -0.0864
  121OSM   H11F12868   6.261   4.524   9.458  0.9354  1.5273 -3.7406
  121OSM   H11G12869   6.409   4.598   9.516 -0.5221  0.0255 -0.5270
  121OSM   C12F12870   6.253   4.740   9.445 -0.3525 -0.2262  0.3944
  121OSM   H12F12871   6.325   4.823   9.445 -2.0463  1.2930 -0.6856
  121OSM   H12G12872   6.158   4.781   9.486 -0.1574  1.6558 -0.9793
  121OSM   C13F12873   6.212   4.715   9.293  0.4708 -0.6420  0.1936
  121OSM   H13F12874   6.135   4.634   9.292 -0.3805  0.1668  0.0808
  121OSM   H13G12875   6.307   4.686   9.244  0.9569 -1.0713  1.3616
  121OSM   C14F12876   6.151   4.838   9.219 -0.5715 -0.5161 -0.6291
  121OSM   H14F12877   6.218   4.926   9.229 -2.2126  1.0184 -2.5657
  121OSM   H14G12878   6.049   4.855   9.259  0.1728  0.4576  0.8995
  121OSM   C15F12879   6.141   4.808   9.068 -0.7308  0.0596 -0.0374
  121OSM   H15F12880   6.086   4.713   9.050 -0.5114  0.3510 -2.2998
  121OSM   H15G12881   6.241   4.791   9.024 -0.4865  0.8014  0.2121
  121OSM   C16F12882   6.086   4.927   8.982 -0.0572 -0.2758 -0.3103
  121OSM   H16F12883   6.146   5.015   9.012  1.1488 -0.7293 -1.3298
  121OSM   H16G12884   5.980   4.945   9.013  0.1508  0.0705  0.2061
  121OSM   C17F12885   6.081   4.903   8.834 -0.3384  0.2258 -0.3833
  121OSM   H17F12886   6.183   4.870   8.806  0.0946  1.2294 -0.0008
  121OSM   H17G12887   6.057   5.003   8.792  2.2509  0.6056 -1.0290
  121OSM   C18F12888   5.974   4.809   8.789 -0.7919 -0.1274 -0.1866
  121OSM   H18F12889   5.878   4.865   8.787 -1.4396 -1.2416 -1.9814
  121OSM   H18G12890   5.970   4.718   8.851  1.2632  0.3453  0.6693
  121OSM   H18H12891   5.997   4.783   8.683  0.6682  1.1454 -0.2010
  122OSM      N12892   6.525   2.463  10.779 -0.1158  0.9096 -0.7310
  122OSM    C1512893   6.634   2.489  10.880  0.1304 -0.3812  0.1018
  122OSM   H15A12894   6.707   2.558  10.839 -0.5778  0.0130 -0.5033
  122OSM   H15B12895   6.684   2.397  10.909  0.8016  0.3227  1.1940
  122OSM   H15C12896   6.607   2.539  10.972  0.3974  0.8797 -0.4925
  122OSM    C1412897   6.575   2.383  10.662 -0.6020 -0.0078 -0.0663
  122OSM   H14A12898   6.642   2.434  10.594 -0.4992 -1.7349 -1.3194
  122OSM   H14B12899   6.498   2.347  10.595  1.6445 -2.6696 -1.3363
  122OSM   H14C12900   6.633   2.298  10.695  1.2748  0.8299 -1.1261
  122OSM    C1312901   6.428   2.366  10.850 -0.3248  0.2503 -0.6265
  122OSM   H13A12902   6.480   2.276  10.880  0.1955  0.6688 -0.2480
  122OSM   H13B12903   6.351   2.334  10.783 -0.4450 -1.0098  0.1069
  122OSM   H13C12904   6.379   2.412  10.934  1.7520  1.8094 -0.2044
  122OSM    C1212905   6.452   2.592  10.737 -0.4599 -0.1764 -0.0390
  122OSM   H12A12906   6.407   2.638  10.824 -1.8740 -2.3225  0.3828
  122OSM   H12B12907   6.370   2.553  10.679  0.2867 -2.7368  0.5717
  122OSM    C1112908   6.527   2.699  10.649  0.1462  0.3020  0.0912
  122OSM   H11A12909   6.456   2.762  10.592  2.7563  3.7200  0.4586
  122OSM   H11B12910   6.589   2.645  10.573  0.2180  0.9343 -0.3006
  122OSM      P12911   6.747   2.847  10.678  0.2893  0.1748 -0.2876
  122OSM    O1312912   6.751   2.990  10.731  0.8105 -0.3902 -0.2875
  122OSM    O1412913   6.866   2.767  10.709 -0.4164  0.1697 -0.1756
  122OSM    O1112914   6.724   2.846  10.524  0.1792 -0.0141 -0.0365
  122OSM    O1212915   6.606   2.783  10.730 -0.8319 -0.4782  0.0668
  122OSM    C1S12916   6.806   2.931  10.439 -0.1556 -0.5054  0.2190
  122OSM    H1S12917   6.903   2.877  10.427  1.0347  1.6337 -0.0895
  122OSM    H1T12918   6.840   3.027  10.482  1.2303 -0.9486  0.1649
  122OSM     NF12919   6.846   2.986  10.210 -0.2030  0.7495  0.4198
  122OSM    HNF12920   6.867   3.081  10.187 -0.5740  0.1518 -2.6814
  122OSM    C2S12921   6.734   2.959  10.303  0.5018 -0.2024 -0.1584
  122OSM    H2S12922   6.677   2.871  10.267 -0.1724 -0.6143  1.8779
  122OSM    C3S12923   6.635   3.076  10.336 -0.6446  0.5199 -0.1359
  122OSM    H3S12924   6.689   3.162  10.381 -0.5885  0.7177 -0.5802
  122OSM     O312925   6.536   3.030  10.426 -0.3133  0.3163  0.6485
  122OSM    HO312926   6.577   2.950  10.459 -0.4537  0.1517  0.4224
  122OSM    C4S12927   6.579   3.123  10.210 -0.0550  0.1709  0.4143
  122OSM    H4S12928   6.643   3.202  10.168  1.0448 -0.9319 -0.0288
  122OSM    C5S12929   6.470   3.076  10.142 -0.1147  0.2833 -0.8818
  122OSM    H5S12930   6.400   3.008  10.192  1.4887 -0.4319  0.4643
  122OSM    C6S12931   6.414   3.134  10.014 -0.2859  0.1911  0.7170
  122OSM    H6S12932   6.328   3.204  10.026 -0.6601  0.1427 -1.5172
  122OSM    H6T12933   6.379   3.052   9.948  0.8218  1.2757 -1.2513
  122OSM    C7S12934   6.501   3.221   9.925 -0.3731  0.2215 -0.5331
  122OSM    H7S12935   6.589   3.159   9.898 -0.0928 -0.3072  1.5267
  122OSM    H7T12936   6.538   3.301   9.993 -0.0386  0.7270 -1.3083
  122OSM    C8S12937   6.429   3.290   9.807  0.4248  0.1279  0.2438
  122OSM    H8S12938   6.321   3.306   9.829  0.5707 -0.8722  1.8021
  122OSM    H8T12939   6.436   3.219   9.721 -0.7251 -1.7193  1.6390
  122OSM    C9S12940   6.485   3.424   9.767  0.1024 -0.2622 -0.1079
  122OSM    H9S12941   6.594   3.431   9.784 -0.3231  3.3448  1.4852
  122OSM    H9T12942   6.437   3.491   9.841  0.7090 -1.2495  1.1977
  122OSM   C10S12943   6.449   3.459   9.619 -0.2764  0.6416  0.3010
  122OSM   H10S12944   6.343   3.494   9.618 -0.1336  1.0799  0.2120
  122OSM   H10T12945   6.441   3.359   9.570 -1.2257  1.0073 -0.3140
  122OSM   C11S12946   6.537   3.566   9.570 -0.5877  0.8337  0.0363
  122OSM   H11S12947   6.643   3.536   9.584 -0.7342 -0.6072 -1.8362
  122OSM   H11T12948   6.536   3.657   9.635 -0.6285  0.9451 -0.1233
  122OSM   C12S12949   6.502   3.607   9.426 -0.6680 -0.1672  0.5672
  122OSM   H12S12950   6.392   3.609   9.410 -0.5601  0.8038 -0.0585
  122OSM   H12T12951   6.529   3.525   9.356 -3.4366 -0.8527  0.2644
  122OSM   C13S12952   6.570   3.739   9.390  0.4956  0.1680  0.1525
  122OSM   H13S12953   6.673   3.732   9.433  0.2555 -0.6870  0.5854
  122OSM   H13T12954   6.524   3.824   9.444 -0.7858 -0.3094 -0.1797
  122OSM   C14S12955   6.568   3.765   9.239 -0.3504 -0.2837 -0.6647
  122OSM   H14S12956   6.466   3.799   9.211 -1.3428 -1.5762  1.3004
  122OSM   H14T12957   6.609   3.681   9.179  0.4360 -0.0497 -0.4597
  122OSM   C15S12958   6.666   3.885   9.219 -0.0054  0.8658  0.0942
  122OSM   H15S12959   6.765   3.837   9.208 -1.1153 -1.2720 -0.8591
  122OSM   H15T12960   6.662   3.945   9.312  1.8768 -0.4423  1.0297
  122OSM   C16S12961   6.625   3.988   9.109 -0.1041  0.0163  0.1890
  122OSM   H16S12962   6.529   4.032   9.143  0.3142  0.1521  1.2133
  122OSM   H16T12963   6.617   3.937   9.011  0.7411 -0.6347  0.4499
  122OSM   C17S12964   6.730   4.100   9.093  0.0509  0.0855  0.2279
  122OSM   H17S12965   6.826   4.056   9.059  1.5025  1.1247  2.8383
  122OSM   H17T12966   6.747   4.145   9.193 -0.1838 -1.2658  0.8790
  122OSM   C18S12967   6.679   4.203   9.001 -0.1560  0.7719  0.3104
  122OSM   H18S12968   6.643   4.153   8.909  1.4339  0.7948 -0.3488
  122OSM   H18T12969   6.757   4.274   8.964  0.0368  1.6813  2.3725
  122OSM   H18U12970   6.594   4.260   9.043  0.8207 -0.2517  3.8312
  122OSM    C1F12971   6.922   2.894  10.161 -0.2466  0.2042 -1.8297
  122OSM     OF12972   6.911   2.779  10.193  0.0029  0.7083 -0.3552
  122OSM    C2F12973   7.040   2.938  10.083  0.0998  0.3492  0.0376
  122OSM    H2F12974   7.137   2.911  10.130 -0.1659  0.7365  0.8184
  122OSM    H2G12975   7.033   3.047  10.067 -1.7517  0.1011 -1.0713
  122OSM    C3F12976   7.047   2.869   9.945  0.0787  0.0071  0.1362
  122OSM    H3F12977   7.049   2.759   9.951  0.9746 -0.0437 -0.8614
  122OSM    H3G12978   7.137   2.910   9.894  0.1424  0.4409  0.5947
  122OSM    C4F12979   6.929   2.893   9.858  0.0932  0.2602  0.4455
  122OSM    H4F12980   6.839   2.840   9.893  1.6582 -1.8003  1.4547
  122OSM    H4G12981   6.948   2.856   9.755 -0.4340  2.3718 -0.4522
  122OSM    C5F12982   6.896   3.042   9.837 -0.6742  0.4949  0.3382
  122OSM    H5F12983   6.992   3.096   9.824  0.6316 -1.3521  2.0990
  122OSM    H5G12984   6.846   3.085   9.926  0.1728  0.5632  0.7922
  122OSM    C6F12985   6.806   3.078   9.716  0.3610 -0.6980 -0.1112
  122OSM    H6F12986   6.803   3.189   9.716  1.3663 -0.6554  1.3877
  122OSM    H6G12987   6.705   3.035   9.734 -0.8624  1.5648 -1.3560
  122OSM    C7F12988   6.854   3.040   9.571 -0.3433  0.2871  0.0318
  122OSM    H7F12989   6.844   2.931   9.554  1.8486  0.1386 -0.4567
  122OSM    H7G12990   6.962   3.065   9.579 -0.9249  2.7168  1.0103
  122OSM    C8F12991   6.776   3.110   9.462 -0.6830  0.4085 -0.2023
  122OSM    H8F12992   6.845   3.109   9.375  0.5509 -0.5273  0.7769
  122OSM    H8G12993   6.763   3.217   9.490  3.8812  0.7183  1.1493
  122OSM    C9F12994   6.638   3.053   9.437  0.5855  0.2397  0.0922
  122OSM    H9F12995   6.587   3.003   9.521 -1.3820  2.4181  0.2385
  122OSM   C10F12996   6.590   3.043   9.311 -0.2038 -0.2640  0.3747
  122OSM   H10F12997   6.498   2.988   9.288 -0.6237  0.4075  0.4380
  122OSM   C11F12998   6.666   3.102   9.197  0.2542 -0.1836  0.2266
  122OSM   H11F12999   6.776   3.109   9.201  0.4049 -1.9298 -0.3887
  122OSM   H11G13000   6.627   3.205   9.181  0.0091 -0.4647 -1.0454
  122OSM   C12F13001   6.632   3.022   9.075 -0.3472  0.0862  0.2925
  122OSM   H12F13002   6.525   2.999   9.053  0.4541 -3.7404  0.0046
  122OSM   H12G13003   6.695   2.931   9.069 -0.7151 -0.2490  1.4930
  122OSM   C13F13004   6.671   3.101   8.945 -0.0957  0.1174 -0.7776
  122OSM   H13F13005   6.640   3.206   8.963 -0.8781 -0.3447  0.6136
  122OSM   H13G13006   6.616   3.049   8.864 -1.3428 -0.6436  0.5525
  122OSM   C14F13007   6.825   3.096   8.912 -0.2860 -0.2806  0.3251
  122OSM   H14F13008   6.873   3.002   8.947 -2.2510 -1.2191  0.5833
  122OSM   H14G13009   6.873   3.174   8.975 -3.5291  2.5899 -0.5966
  122OSM   C15F13010   6.873   3.143   8.767 -0.7106  0.0695 -0.0274
  122OSM   H15F13011   6.964   3.205   8.759 -0.8909 -0.1222 -5.3496
  122OSM   H15G13012   6.795   3.208   8.721 -1.0839 -1.8568 -2.2318
  122OSM   C16F13013   6.901   3.014   8.688 -0.5439  0.2189  0.3722
  122OSM   H16F13014   6.817   2.945   8.707 -0.1040  0.1274  2.0327
  122OSM   H16G13015   6.996   2.970   8.725  0.2274  2.6641  1.3744
  122OSM   C17F13016   6.914   3.046   8.540  0.0386  0.5997  0.6622
  122OSM   H17F13017   6.957   2.967   8.475  2.0706  1.2264  1.2104
  122OSM   H17G13018   6.982   3.133   8.526  0.8856 -0.0864  0.4764
  122OSM   C18F13019   6.776   3.079   8.483 -0.2622  0.7255 -0.7736
  122OSM   H18F13020   6.715   3.131   8.561  1.3202  0.2760  0.7921
  122OSM   H18G13021   6.731   2.982   8.451 -2.0190 -0.0564  3.6901
  122OSM   H18H13022   6.777   3.144   8.393 -0.0083 -0.4956 -1.6617
  123OSM      N13023   4.498   1.672   5.861 -0.5943  0.3684  0.5793
  123OSM    C1513024   4.604   1.600   5.931 -0.9291 -0.2852  0.4987
  123OSM   H15A13025   4.567   1.503   5.961  4.1291 -1.7040  2.7167
  123OSM   H15B13026   4.637   1.658   6.016 -0.3150  0.3211 -0.1450
  123OSM   H15C13027   4.693   1.572   5.876 -0.8705 -1.7869  1.3348
  123OSM    C1413028   4.549   1.793   5.822 -0.1671 -0.3601  0.3302
  123OSM   H14A13029   4.638   1.779   5.762  0.4354  2.4871  0.4955
  123OSM   H14B13030   4.559   1.861   5.905 -1.9933 -0.5797  0.7470
  123OSM   H14C13031   4.470   1.836   5.763  0.0281  1.5838  1.4628
  123OSM    C1313032   4.465   1.608   5.726 -0.4710 -0.1169  0.5080
  123OSM   H13A13033   4.418   1.511   5.737  0.8859 -0.8206  0.2582
  123OSM   H13B13034   4.559   1.608   5.673 -1.2341  2.5202 -0.8967
  123OSM   H13C13035   4.396   1.673   5.675 -0.4602 -0.2589  0.3129
  123OSM    C1213036   4.372   1.675   5.949  0.1455 -1.0095 -0.3473
  123OSM   H12A13037   4.383   1.729   6.042  3.8041  2.2683 -2.5078
  123OSM   H12B13038   4.352   1.570   5.964 -1.9380 -0.4712  0.8870
  123OSM    C1113039   4.236   1.721   5.889  0.5932  0.7025  0.3302
  123OSM   H11A13040   4.151   1.684   5.951  0.6336  1.8561  1.0873
  123OSM   H11B13041   4.239   1.658   5.798  0.1344  1.3095 -0.1058
  123OSM      P13042   4.257   1.958   5.987 -0.0608  0.1089 -0.0997
  123OSM    O1313043   4.398   2.005   5.989 -0.1239 -0.1543 -0.0031
  123OSM    O1413044   4.148   2.059   5.989  0.1525 -0.1461 -0.2709
  123OSM    O1113045   4.239   1.859   6.111  0.0751  0.2065 -0.2178
  123OSM    O1213046   4.234   1.862   5.858 -0.0065  0.1425 -0.0550
  123OSM    C1S13047   4.132   1.887   6.209  0.2360  0.0202 -0.2793
  123OSM    H1S13048   4.048   1.816   6.192  0.0442  0.3966 -0.9115
  123OSM    H1T13049   4.083   1.986   6.201 -0.7891 -0.5296 -0.9725
  123OSM     NF13050   4.071   1.907   6.444 -0.2181 -0.1434  0.1624
  123OSM    HNF13051   4.063   1.987   6.504 -1.3761 -1.1344  1.3604
  123OSM    C2S13052   4.183   1.882   6.360 -1.3882  0.0171  0.4864
  123OSM    H2S13053   4.227   1.782   6.382 -2.5355 -0.2693  1.4929
  123OSM    C3S13054   4.297   1.990   6.380  0.5229  0.5223  0.8202
  123OSM    H3S13055   4.267   2.095   6.361  0.3565  0.4928  0.9194
  123OSM     O313056   4.406   1.967   6.289  0.1806 -0.2129  0.1498
  123OSM    HO313057   4.370   1.928   6.210 -0.8813 -0.3943  0.7194
  123OSM    C4S13058   4.344   1.967   6.520 -0.1064 -0.1257  0.1561
  123OSM    H4S13059   4.274   2.022   6.585 -0.2914  1.3055 -1.2291
  123OSM    C5S13060   4.441   1.891   6.574  0.4196 -0.5848 -0.1429
  123OSM    H5S13061   4.492   1.818   6.510 -0.8971 -0.7233 -1.0595
  123OSM    C6S13062   4.480   1.867   6.721 -0.2218  0.5345 -0.3380
  123OSM    H6S13063   4.588   1.890   6.732 -0.0643 -0.7409  0.8710
  123OSM    H6T13064   4.476   1.756   6.725 -1.6777  0.5462 -1.1199
  123OSM    C7S13065   4.401   1.933   6.834  0.1114  0.3078  0.2697
  123OSM    H7S13066   4.301   1.887   6.822  0.7429 -1.3958  1.3869
  123OSM    H7T13067   4.402   2.044   6.828 -1.8397  0.3434  0.4530
  123OSM    C8S13068   4.436   1.894   6.977  0.0260 -0.1237  0.2818
  123OSM    H8S13069   4.535   1.936   7.004  0.2775 -0.3564 -0.2796
  123OSM    H8T13070   4.460   1.785   6.975  1.9386  0.2468  1.4232
  123OSM    C9S13071   4.325   1.920   7.078  1.2618 -0.1146 -0.2959
  123OSM    H9S13072   4.227   1.881   7.043 -0.1875 -0.3076  3.7313
  123OSM    H9T13073   4.316   2.029   7.100 -0.6696  0.0708 -1.9205
  123OSM   C10S13074   4.354   1.858   7.217  0.1383 -0.6099  0.0154
  123OSM   H10S13075   4.444   1.910   7.256 -0.0489 -0.3184  0.0568
  123OSM   H10T13076   4.364   1.747   7.210  0.8681 -0.6635  1.7200
  123OSM   C11S13077   4.237   1.864   7.327  0.3536  0.5486  0.4129
  123OSM   H11S13078   4.156   1.790   7.310  0.0027  0.8690  0.7242
  123OSM   H11T13079   4.188   1.963   7.336  0.4094  0.5269  0.9688
  123OSM   C12S13080   4.292   1.845   7.468  0.6403 -0.1672 -0.2385
  123OSM   H12S13081   4.234   1.900   7.545  0.7804 -0.3989  0.0326
  123OSM   H12T13082   4.384   1.907   7.468 -1.0766  2.4654  0.2545
  123OSM   C13S13083   4.310   1.699   7.505 -0.0337  0.5690 -0.1038
  123OSM   H13S13084   4.360   1.640   7.425  0.3717  2.9316 -1.6425
  123OSM   H13T13085   4.204   1.666   7.504 -0.4777  1.9905 -1.1214
  123OSM   C14S13086   4.383   1.689   7.630  0.0143  0.1813 -0.6004
  123OSM   H14S13087   4.358   1.757   7.714 -0.9251 -2.8313  1.6279
  123OSM   H14T13088   4.488   1.715   7.605  0.9485  0.2993  3.1437
  123OSM   C15S13089   4.388   1.545   7.689 -0.0774  0.0705 -0.2830
  123OSM   H15S13090   4.486   1.530   7.737 -0.2448  2.5451  0.9054
  123OSM   H15T13091   4.387   1.478   7.600 -0.1367  1.2723 -1.2049
  123OSM   C16S13092   4.273   1.516   7.786  0.0989  0.1324  0.5036
  123OSM   H16S13093   4.283   1.410   7.817 -0.5837 -0.9315 -2.7232
  123OSM   H16T13094   4.179   1.522   7.726  0.1173 -0.5787  0.3989
  123OSM   C17S13095   4.260   1.609   7.909 -0.5845  0.2314 -0.5960
  123OSM   H17S13096   4.243   1.717   7.886 -1.7423  0.5528  1.6410
  123OSM   H17T13097   4.360   1.620   7.956 -0.0678  0.1024 -1.6539
  123OSM   C18S13098   4.158   1.559   8.000 -0.0813  0.2385  0.2225
  123OSM   H18S13099   4.056   1.591   7.970 -0.5735 -0.5191  1.0629
  123OSM   H18T13100   4.167   1.602   8.102 -1.9569 -0.0952  0.5529
  123OSM   H18U13101   4.163   1.450   8.021 -1.1968  0.1098 -0.1421
  123OSM    C1F13102   3.992   1.801   6.472 -0.7709  0.0829 -0.2746
  123OSM     OF13103   3.999   1.693   6.409 -0.1156  0.1243 -0.3225
  123OSM    C2F13104   3.905   1.811   6.592 -0.4335 -0.6195  0.4661
  123OSM    H2F13105   3.802   1.821   6.549  0.2145 -0.7041 -1.1385
  123OSM    H2G13106   3.935   1.909   6.636  0.4550  0.1777 -1.8454
  123OSM    C3F13107   3.921   1.698   6.695 -0.0165  0.5526 -0.3784
  123OSM    H3F13108   4.023   1.699   6.738 -0.1190  0.2597 -0.1383
  123OSM    H3G13109   3.904   1.594   6.659 -2.0722  0.2638  1.3366
  123OSM    C4F13110   3.814   1.719   6.808 -0.3639 -0.0892  0.1369
  123OSM    H4F13111   3.716   1.724   6.756 -0.4575 -0.8729  0.2360
  123OSM    H4G13112   3.831   1.819   6.853  2.6854  0.2106 -1.5166
  123OSM    C5F13113   3.812   1.623   6.922 -0.1040 -0.1857  0.1979
  123OSM    H5F13114   3.908   1.571   6.946 -1.4591 -2.1841  1.5153
  123OSM    H5G13115   3.734   1.548   6.893 -0.1022 -0.1901  0.2037
  123OSM    C6F13116   3.764   1.689   7.053  0.1539 -0.3474  0.2686
  123OSM    H6F13117   3.666   1.727   7.018  0.0291 -2.5074 -1.8274
  123OSM    H6G13118   3.833   1.774   7.074 -0.6610  0.9168 -2.0112
  123OSM    C7F13119   3.764   1.594   7.173 -0.1309 -0.0476 -0.1996
  123OSM    H7F13120   3.852   1.526   7.175  0.9662  1.1917 -3.2974
  123OSM    H7G13121   3.680   1.523   7.157  1.3157 -1.7602 -0.3597
  123OSM    C8F13122   3.750   1.663   7.316  0.3923  0.0415 -0.4725
  123OSM    H8F13123   3.741   1.597   7.405 -0.2053  1.6148  0.6731
  123OSM    H8G13124   3.657   1.724   7.307 -0.5386 -0.9693  1.8140
  123OSM    C9F13125   3.878   1.740   7.339  0.3156  0.4299  0.4612
  123OSM    H9F13126   3.954   1.737   7.260 -0.0063 -2.3535  0.2157
  123OSM   C10F13127   3.906   1.822   7.438 -0.1707  0.2109 -0.5604
  123OSM   H10F13128   3.998   1.881   7.447  1.1680 -1.9520  0.3972
  123OSM   C11F13129   3.801   1.847   7.546  0.3269 -0.0982 -0.5509
  123OSM   H11F13130   3.703   1.804   7.517  0.1393 -0.1169  0.1140
  123OSM   H11G13131   3.772   1.953   7.555 -1.7569 -0.4793 -2.4218
  123OSM   C12F13132   3.847   1.793   7.674 -0.0080 -0.5540  0.4917
  123OSM   H12F13133   3.927   1.865   7.699 -2.0063  1.4726  1.2270
  123OSM   H12G13134   3.885   1.689   7.664 -3.9736 -2.0646  0.1014
  123OSM   C13F13135   3.741   1.788   7.792  0.1597 -0.4085 -0.6250
  123OSM   H13F13136   3.650   1.726   7.780  0.6250 -1.1207 -0.5320
  123OSM   H13G13137   3.702   1.892   7.793  1.3716  0.0790 -1.5523
  123OSM   C14F13138   3.810   1.740   7.920  0.6584  0.5084 -0.5972
  123OSM   H14F13139   3.909   1.791   7.925  0.3734  0.8763  1.9963
  123OSM   H14G13140   3.831   1.632   7.903  1.7240  0.4188  1.2032
  123OSM   C15F13141   3.734   1.759   8.055 -0.0982  0.3821  0.3625
  123OSM   H15F13142   3.632   1.719   8.039  0.8705 -1.6319 -1.1186
  123OSM   H15G13143   3.744   1.867   8.077  0.6866  0.3697  0.0726
  123OSM   C16F13144   3.802   1.673   8.171  0.7430  0.5623  0.5543
  123OSM   H16F13145   3.912   1.660   8.175  0.6593  0.1218  1.5819
  123OSM   H16G13146   3.765   1.568   8.164  0.2766  0.7890 -0.6660
  123OSM   C17F13147   3.759   1.728   8.301 -0.6575 -0.0956  0.3081
  123OSM   H17F13148   3.649   1.732   8.285 -0.4281 -0.0311 -1.3403
  123OSM   H17G13149   3.799   1.831   8.312  0.6542 -0.2454 -2.5878
  123OSM   C18F13150   3.795   1.636   8.425 -0.2637  0.7637 -0.0190
  123OSM   H18F13151   3.761   1.533   8.404  0.5499  0.5457 -0.2786
  123OSM   H18G13152   3.730   1.674   8.507 -1.8840  0.4300 -1.1208
  123OSM   H18H13153   3.903   1.652   8.447  0.0476 -2.6166  1.2172
  124OSM      N13154   0.109   6.717   5.995  0.0559  0.4559  0.5219
  124OSM    C1513155   0.144   6.571   5.976 -0.0495  0.4548  0.4321
  124OSM   H15A13156   0.070   6.508   6.023 -0.2531  0.9633  0.8003
  124OSM   H15B13157   0.240   6.558   6.024  0.1084 -0.7291 -0.2040
  124OSM   H15C13158   0.141   6.548   5.871  1.7561 -0.5229  0.5690
  124OSM    C1413159   0.177   6.814   5.904 -0.6572  0.0322 -0.2733
  124OSM   H14A13160   0.144   6.915   5.921  1.1690  0.7316 -0.7735
  124OSM   H14B13161   0.160   6.788   5.801  0.5376  0.9018 -0.6974
  124OSM   H14C13162   0.285   6.819   5.911 -0.4907  1.2668 -3.0448
  124OSM    C1313163  -0.033   6.728   5.960 -0.2061  0.8399  0.6525
  124OSM   H13A13164  -0.071   6.828   5.947  0.0314  0.8185 -0.1873
  124OSM   H13B13165  -0.087   6.681   6.042  0.8534 -0.1973  0.7725
  124OSM   H13C13166  -0.063   6.681   5.868  1.5935  1.8715 -0.4749
  124OSM    C1213167   0.133   6.754   6.138  0.7357 -0.2589  0.4120
  124OSM   H12A13168   0.082   6.846   6.161  1.9223  0.6973 -0.7419
  124OSM   H12B13169   0.237   6.774   6.162  0.3287 -0.0500  2.0682
  124OSM    C1113170   0.084   6.654   6.247 -0.1142  0.3734 -0.2978
  124OSM   H11A13171   0.123   6.686   6.346 -0.3173  1.9935 -0.7219
  124OSM   H11B13172   0.113   6.548   6.233 -0.6811  0.4677 -2.2537
  124OSM      P13173  -0.142   6.761   6.332 -0.3279  0.1542  0.7032
  124OSM    O1313174  -0.084   6.895   6.313  0.0639  0.0190 -0.3126
  124OSM    O1413175  -0.284   6.747   6.289  0.1480  0.3079  0.3165
  124OSM    O1113176  -0.143   6.706   6.480  0.2470 -0.4113  0.0269
  124OSM    O1213177  -0.058   6.656   6.248 -0.1949  0.4408 -0.0143
  124OSM    C1S13178  -0.024   6.736   6.558  0.6001 -0.2684 -0.0292
  124OSM    H1S13179   0.006   6.842   6.544  1.1326 -0.1844  1.6540
  124OSM    H1T13180   0.058   6.663   6.540 -0.2459 -0.9829 -1.0907
  124OSM     NF13181   0.059   6.785   6.792  0.3616 -0.4586  0.0510
  124OSM    HNF13182   0.134   6.727   6.821 -0.6500 -1.2331  1.1947
  124OSM    C2S13183  -0.056   6.721   6.715 -0.1867 -0.4340  0.0866
  124OSM    H2S13184  -0.146   6.782   6.737 -0.1923  0.3165 -1.8999
  124OSM    C3S13185  -0.090   6.575   6.750  0.1453 -0.0284  0.4478
  124OSM    H3S13186   0.000   6.511   6.756 -1.2376 -2.3045 -1.7190
  124OSM     O313187  -0.186   6.510   6.662  0.4443  0.2078 -0.2044
  124OSM    HO313188  -0.211   6.579   6.600 -0.6687  0.2181  0.2440
  124OSM    C4S13189  -0.148   6.574   6.893 -0.3870  0.3355 -0.4736
  124OSM    H4S13190  -0.084   6.524   6.967 -2.1926 -0.0736  0.8481
  124OSM    C5S13191  -0.276   6.583   6.932  0.3980  0.3463  0.2449
  124OSM    H5S13192  -0.353   6.559   6.857 -1.1379  0.3621  1.7927
  124OSM    C6S13193  -0.336   6.577   7.066 -0.3000  0.0091  0.3485
  124OSM    H6S13194  -0.385   6.481   7.092  2.1849 -1.5097 -0.3591
  124OSM    H6T13195  -0.413   6.657   7.063  0.8256  1.0739 -0.7960
  124OSM    C7S13196  -0.248   6.632   7.178 -0.1819 -0.7750 -0.2893
  124OSM    H7S13197  -0.191   6.722   7.144 -1.6082  0.4018  0.3548
  124OSM    H7T13198  -0.169   6.557   7.197  2.7848  2.1647 -0.6024
  124OSM    C8S13199  -0.319   6.661   7.315  0.1721  0.7613  0.6184
  124OSM    H8S13200  -0.391   6.579   7.334 -0.9780  1.1573 -1.8342
  124OSM    H8T13201  -0.381   6.753   7.322  0.1868  0.9687 -1.5341
  124OSM    C9S13202  -0.224   6.665   7.434  0.1576  0.1112  0.5557
  124OSM    H9S13203  -0.167   6.754   7.399  0.3421 -0.8137 -1.5551
  124OSM    H9T13204  -0.150   6.583   7.429 -0.5830 -0.5746  0.6594
  124OSM   C10S13205  -0.276   6.694   7.568 -0.2957 -0.6716  1.0621
  124OSM   H10S13206  -0.359   6.769   7.571  0.2630 -0.0594  5.9650
  124OSM   H10T13207  -0.208   6.747   7.638  1.6308 -3.5490  1.4092
  124OSM   C11S13208  -0.327   6.566   7.645 -0.3217 -0.3735 -0.0255
  124OSM   H11S13209  -0.260   6.477   7.640  1.0554  0.6130  0.4861
  124OSM   H11T13210  -0.414   6.525   7.590 -1.8312  0.3652  1.7690
  124OSM   C12S13211  -0.355   6.582   7.797 -0.7814 -0.1420  0.6621
  124OSM   H12S13212  -0.403   6.488   7.833  0.1628 -0.9077 -0.0533
  124OSM   H12T13213  -0.415   6.673   7.814 -1.2040 -0.0634 -1.1616
  124OSM   C13S13214  -0.226   6.599   7.876 -0.0187  1.2625 -0.9064
  124OSM   H13S13215  -0.167   6.688   7.847 -1.0736  1.7284 -1.7063
  124OSM   H13T13216  -0.163   6.510   7.853 -3.6407 -1.7639  0.1828
  124OSM   C14S13217  -0.247   6.583   8.033 -0.1833 -0.0656  0.2417
  124OSM   H14S13218  -0.278   6.477   8.048  0.1054  0.1289  2.3109
  124OSM   H14T13219  -0.331   6.648   8.065  0.2205  0.0005  1.1547
  124OSM   C15S13220  -0.121   6.608   8.110  0.2752 -0.4657 -0.2149
  124OSM   H15S13221  -0.091   6.714   8.092  0.5102 -0.5827 -0.5121
  124OSM   H15T13222  -0.046   6.538   8.068  0.3281  0.7761 -2.2544
  124OSM   C16S13223  -0.137   6.602   8.265  0.1808 -0.1907  0.4037
  124OSM   H16S13224  -0.036   6.615   8.310  1.4829  0.2452 -2.4993
  124OSM   H16T13225  -0.172   6.499   8.290  2.0010 -0.9196  0.0604
  124OSM   C17S13226  -0.234   6.700   8.316  0.1819 -0.2230 -0.1190
  124OSM   H17S13227  -0.254   6.664   8.419  1.2526 -0.6422 -0.0492
  124OSM   H17T13228  -0.334   6.704   8.269 -0.1651  1.6707  0.7114
  124OSM   C18S13229  -0.175   6.836   8.323 -0.1039 -0.0195  0.4100
  124OSM   H18S13230  -0.157   6.874   8.220  0.7810 -0.0183  0.5548
  124OSM   H18T13231  -0.087   6.851   8.390 -0.5537 -2.2564  1.5303
  124OSM   H18U13232  -0.255   6.900   8.366 -0.4436 -0.0654 -0.1475
  124OSM    C1F13233   0.084   6.913   6.798  0.6089  0.6065  0.2129
  124OSM     OF13234   0.025   6.991   6.726  0.3185  0.0951  0.0294
  124OSM    C2F13235   0.181   6.964   6.895  0.0200 -0.0897  0.0834
  124OSM    H2F13236   0.145   7.060   6.937 -0.9326 -0.4103  0.0085
  124OSM    H2G13237   0.278   6.982   6.844 -0.9557  0.8725 -1.4947
  124OSM    C3F13238   0.215   6.857   7.007  0.5631 -0.0913  0.4375
  124OSM    H3F13239   0.288   6.780   6.973  0.4834  0.7338 -1.6802
  124OSM    H3G13240   0.120   6.809   7.038  0.1238  1.5459  1.6990
  124OSM    C4F13241   0.268   6.915   7.136  0.7374 -0.3253 -0.2472
  124OSM    H4F13242   0.207   7.006   7.157 -0.0694 -0.3909 -2.2052
  124OSM    H4G13243   0.371   6.953   7.124 -0.3169  3.4566  1.9369
  124OSM    C5F13244   0.278   6.820   7.253 -0.2835  0.0878 -0.1960
  124OSM    H5F13245   0.370   6.758   7.244  0.3273  0.8827  0.5302
  124OSM    H5G13246   0.192   6.753   7.231  0.2100 -0.0605 -1.7384
  124OSM    C6F13247   0.263   6.885   7.389  0.2936  0.2263  0.1871
  124OSM    H6F13248   0.192   6.969   7.404  0.7521  0.6209  0.1787
  124OSM    H6G13249   0.365   6.916   7.422 -0.5013  2.8352  0.3249
  124OSM    C7F13250   0.214   6.785   7.506  0.7488 -0.5615 -0.4779
  124OSM    H7F13251   0.252   6.684   7.481  2.9802 -0.1003  0.9646
  124OSM    H7G13252   0.103   6.795   7.500  0.8707  0.8850 -0.3864
  124OSM    C8F13253   0.259   6.812   7.648 -0.2724 -0.2167 -0.1119
  124OSM    H8F13254   0.243   6.920   7.669 -1.5956  0.1214 -2.7276
  124OSM    H8G13255   0.364   6.776   7.660  0.1608  0.3137 -2.1513
  124OSM    C9F13256   0.180   6.716   7.733 -0.9404  0.2943  0.1007
  124OSM    H9F13257   0.095   6.671   7.681 -0.4784 -0.7304  0.2119
  124OSM   C10F13258   0.196   6.664   7.853 -0.4075 -0.0975  0.4116
  124OSM   H10F13259   0.125   6.588   7.892 -1.0838  0.8170  0.9925
  124OSM   C11F13260   0.308   6.709   7.948  0.0206  0.1626  0.0107
  124OSM   H11F13261   0.354   6.803   7.910 -2.6819  1.1226 -1.0236
  124OSM   H11G13262   0.385   6.630   7.951  0.7441  0.9137  1.9710
  124OSM   C12F13263   0.252   6.714   8.092 -0.2429 -0.0825  0.0272
  124OSM   H12F13264   0.339   6.713   8.161 -1.4602 -0.2922  1.5895
  124OSM   H12G13265   0.180   6.631   8.107  0.1976 -0.6689 -1.0847
  124OSM   C13F13266   0.168   6.833   8.131 -0.5180 -0.1378  0.0742
  124OSM   H13F13267   0.127   6.805   8.231  1.0294 -1.5588  0.3322
  124OSM   H13G13268   0.083   6.845   8.061 -0.9852 -1.2697  0.4277
  124OSM   C14F13269   0.255   6.966   8.144  0.2317 -0.0929 -0.6017
  124OSM   H14F13270   0.280   6.989   8.038  2.7787  1.6362  0.3230
  124OSM   H14G13271   0.354   6.940   8.187 -0.1021  0.1006  0.2959
  124OSM   C15F13272   0.195   7.076   8.227  0.4610  0.4818 -0.1796
  124OSM   H15F13273   0.258   7.166   8.243 -1.4959  2.1263 -1.5355
  124OSM   H15G13274   0.159   7.036   8.324  2.8889 -1.3025  0.0443
  124OSM   C16F13275   0.067   7.134   8.152  0.4152  0.2268  0.1771
  124OSM   H16F13276   0.019   7.222   8.198 -1.7488 -1.4794  1.2543
  124OSM   H16G13277  -0.005   7.050   8.149 -0.3415  0.8904 -0.4541
  124OSM   C17F13278   0.088   7.191   7.999  0.0318 -0.4467 -0.0499
  124OSM   H17F13279  -0.013   7.206   7.955 -0.7307  1.1071  2.1167
  124OSM   H17G13280   0.144   7.114   7.941  2.0130 -0.5254  1.8872
  124OSM   C18F13281   0.158   7.321   8.015  0.7922 -0.4572  0.4890
  124OSM   H18F13282   0.159   7.364   7.912  3.0102 -0.3813  0.5212
  124OSM   H18G13283   0.263   7.309   8.048  1.4316  1.0272 -0.9338
  124OSM   H18H13284   0.105   7.400   8.074  0.3497 -0.0365 -0.4489
  125OSM      N13285   6.127   1.078   6.198  0.4121 -0.3432  0.4759
  125OSM    C1513286   6.084   1.000   6.073 -0.1631  0.2068 -0.4665
  125OSM   H15A13287   6.122   1.042   5.981  1.2784  0.1559  0.0890
  125OSM   H15B13288   5.977   0.985   6.070 -0.0730 -0.1276 -2.7551
  125OSM   H15C13289   6.129   0.902   6.070  1.1793  0.8122 -0.7224
  125OSM    C1413290   6.134   1.226   6.176 -0.1395  0.8250  0.4013
  125OSM   H14A13291   6.218   1.241   6.110 -1.0590  1.2548 -0.6821
  125OSM   H14B13292   6.152   1.269   6.273  0.0535 -1.0859  1.2528
  125OSM   H14C13293   6.039   1.256   6.135  0.0435  1.1432  0.2181
  125OSM    C1313294   6.010   1.063   6.299 -0.5979 -0.2986 -0.4197
  125OSM   H13A13295   5.924   1.119   6.264  1.0602  1.6065 -1.5498
  125OSM   H13B13296   6.039   1.109   6.393 -0.1546 -0.2156 -0.5954
  125OSM   H13C13297   5.983   0.959   6.301  2.5048 -1.1621 -1.1996
  125OSM    C1213298   6.258   1.015   6.253  0.1624  0.2242 -0.6826
  125OSM   H12A13299   6.226   0.928   6.308 -0.9553  0.5726 -0.7662
  125OSM   H12B13300   6.285   1.075   6.339 -0.6601 -2.2736  1.3879
  125OSM    C1113301   6.386   0.991   6.169 -0.5714  0.2231 -0.9131
  125OSM   H11A13302   6.345   0.931   6.085  0.6703 -1.0024 -0.6520
  125OSM   H11B13303   6.451   0.924   6.229 -1.0761  0.3454 -0.2133
  125OSM      P13304   6.561   1.176   6.209  0.4451 -0.0981 -0.2004
  125OSM    O1313305   6.678   1.091   6.197  0.4809  0.4391 -0.6166
  125OSM    O1413306   6.569   1.319   6.175  0.5158  0.2769 -0.2033
  125OSM    O1113307   6.494   1.147   6.356  0.1280  0.4128  0.3256
  125OSM    O1213308   6.442   1.115   6.124 -0.2123  0.0808  0.2329
  125OSM    C1S13309   6.538   1.238   6.457  0.4191  0.9259 -0.0633
  125OSM    H1S13310   6.492   1.338   6.443  1.3839  1.4559  0.5112
  125OSM    H1T13311   6.647   1.257   6.461  0.6104  0.1413 -1.1202
  125OSM     NF13312   6.580   1.311   6.692 -0.5495  0.0742  0.5332
  125OSM    HNF13313   6.666   1.285   6.735 -0.4617  1.1673  1.0378
  125OSM    C2S13314   6.525   1.196   6.612  0.1613  0.1032  0.0219
  125OSM    H2S13315   6.425   1.160   6.643  0.4999 -0.6412  0.2574
  125OSM    C3S13316   6.605   1.064   6.635 -0.3254 -0.6452  0.5836
  125OSM    H3S13317   6.705   1.077   6.590 -1.2426  0.2431 -1.2692
  125OSM     O313318   6.552   0.952   6.560 -0.3425 -0.2958 -0.2926
  125OSM    HO313319   6.494   0.985   6.491 -0.8589  0.4962  0.5127
  125OSM    C4S13320   6.602   1.038   6.784 -0.2997 -0.3449 -0.5793
  125OSM    H4S13321   6.684   1.093   6.832  0.4177 -0.1959 -1.9384
  125OSM    C5S13322   6.523   0.957   6.858 -0.6430 -0.4474  0.4530
  125OSM    H5S13323   6.450   0.895   6.805 -0.1519 -0.6758  0.0323
  125OSM    C6S13324   6.529   0.945   7.005  0.5527  0.6965  0.0505
  125OSM    H6S13325   6.551   0.842   7.042 -1.1470 -0.1272 -1.1735
  125OSM    H6T13326   6.436   0.984   7.053  0.6387 -0.3376  1.0898
  125OSM    C7S13327   6.635   1.032   7.070 -0.1478 -0.2641  0.0285
  125OSM    H7S13328   6.635   1.132   7.022 -0.4395 -1.4981 -2.6308
  125OSM    H7T13329   6.730   0.977   7.056  0.3470  0.5108  0.3438
  125OSM    C8S13330   6.601   1.059   7.220 -0.1948 -0.7468  0.2631
  125OSM    H8S13331   6.501   1.106   7.233  0.6183  1.6919 -2.0496
  125OSM    H8T13332   6.675   1.132   7.257  0.6070 -0.3342 -2.0550
  125OSM    C9S13333   6.596   0.937   7.313  0.1948  0.1608 -0.3818
  125OSM    H9S13334   6.676   0.866   7.282  1.2674  1.7661 -1.4261
  125OSM    H9T13335   6.499   0.894   7.279  0.1374  0.5114 -0.6647
  125OSM   C10S13336   6.609   0.970   7.458 -0.4782 -0.2405 -0.7621
  125OSM   H10S13337   6.522   1.035   7.483  0.0075 -0.5213  1.7343
  125OSM   H10T13338   6.705   1.021   7.479 -0.6035 -0.1072 -0.5162
  125OSM   C11S13339   6.609   0.863   7.558 -0.1997  0.5979  0.3234
  125OSM   H11S13340   6.694   0.792   7.547  0.3486  1.2730  0.1950
  125OSM   H11T13341   6.521   0.799   7.535  0.7401 -0.1427 -1.3296
  125OSM   C12S13342   6.596   0.915   7.698  0.1166 -0.4525 -0.5474
  125OSM   H12S13343   6.492   0.954   7.707  0.2380 -0.2810  0.1812
  125OSM   H12T13344   6.669   0.998   7.703 -0.6475  0.2816 -1.5584
  125OSM   C13S13345   6.609   0.806   7.804  0.4567 -0.0059  0.1912
  125OSM   H13S13346   6.716   0.779   7.807  1.1436  2.5615 -0.2995
  125OSM   H13T13347   6.545   0.719   7.778  1.5046 -0.4507 -0.8924
  125OSM   C14S13348   6.570   0.863   7.945  0.0100  0.5373 -0.2464
  125OSM   H14S13349   6.470   0.907   7.921 -0.4461 -0.0501  0.5565
  125OSM   H14T13350   6.633   0.952   7.966 -3.1104  3.0526 -1.1938
  125OSM   C15S13351   6.565   0.759   8.059  0.2425 -0.2815  0.6414
  125OSM   H15S13352   6.540   0.811   8.154 -1.7536 -2.1970  1.2051
  125OSM   H15T13353   6.670   0.724   8.074  0.0016 -1.3268 -0.0991
  125OSM   C16S13354   6.461   0.649   8.028  0.0383 -0.3261  0.2540
  125OSM   H16S13355   6.510   0.589   7.948 -0.2806 -1.6440  1.0388
  125OSM   H16T13356   6.366   0.676   7.977  0.1101 -0.9299 -0.2139
  125OSM   C17S13357   6.425   0.563   8.146  0.3079 -0.0141  0.8617
  125OSM   H17S13358   6.513   0.526   8.203 -0.5177 -0.0113  2.1613
  125OSM   H17T13359   6.374   0.471   8.108  0.7774 -0.9288  2.3722
  125OSM   C18S13360   6.336   0.638   8.247 -0.4488 -0.2950  0.2181
  125OSM   H18S13361   6.305   0.569   8.329 -1.4118 -0.8887 -0.6328
  125OSM   H18T13362   6.245   0.682   8.200 -0.6904 -0.8658  0.1371
  125OSM   H18U13363   6.402   0.711   8.297 -1.3795  0.9074 -0.3010
  125OSM    C1F13364   6.514   1.429   6.692 -0.0574  0.3623 -0.1633
  125OSM     OF13365   6.389   1.437   6.662 -0.7178 -0.1500 -0.0419
  125OSM    C2F13366   6.581   1.554   6.731  0.9852 -1.1799  0.2438
  125OSM    H2F13367   6.539   1.641   6.677 -0.0731 -1.9760 -0.2466
  125OSM    H2G13368   6.688   1.554   6.702  0.2842 -0.4392 -2.5359
  125OSM    C3F13369   6.565   1.598   6.877  0.6509  0.2102 -0.6516
  125OSM    H3F13370   6.458   1.582   6.901  0.4407  0.3064 -1.4978
  125OSM    H3G13371   6.596   1.704   6.887  1.0096 -0.0444  1.1140
  125OSM    C4F13372   6.652   1.505   6.964  0.1884 -0.4258 -0.4719
  125OSM    H4F13373   6.755   1.504   6.922  0.2525  1.0400 -0.3766
  125OSM    H4G13374   6.617   1.400   6.963  1.1114 -0.7679  1.1677
  125OSM    C5F13375   6.662   1.563   7.106 -0.2575 -0.1816  0.0410
  125OSM    H5F13376   6.560   1.578   7.147  0.2855 -0.4562  1.5155
  125OSM    H5G13377   6.705   1.664   7.087  1.2752 -0.7722  0.2982
  125OSM    C6F13378   6.737   1.474   7.207 -0.1897 -0.3035  0.0159
  125OSM    H6F13379   6.842   1.467   7.173  0.3720  0.4385  1.5705
  125OSM    H6G13380   6.690   1.373   7.205 -0.4334 -0.1864 -1.6374
  125OSM    C7F13381   6.733   1.540   7.354  0.2353 -0.3742  0.0744
  125OSM    H7F13382   6.632   1.510   7.390  1.8847 -3.6987  2.2491
  125OSM    H7G13383   6.751   1.649   7.344  1.2803 -0.1066  3.9695
  125OSM    C8F13384   6.843   1.480   7.447  0.6422 -0.0656  0.2396
  125OSM    H8F13385   6.941   1.493   7.397 -0.9007  4.3334 -1.9555
  125OSM    H8G13386   6.817   1.374   7.467 -0.3174  0.0520 -0.3663
  125OSM    C9F13387   6.863   1.545   7.581  0.4363  0.1813 -0.1352
  125OSM    H9F13388   6.959   1.597   7.582  0.8760 -0.6003 -0.7617
  125OSM   C10F13389   6.784   1.547   7.693  0.1691 -0.0610  0.3066
  125OSM   H10F13390   6.799   1.612   7.781 -0.5411  1.1604 -0.4516
  125OSM   C11F13391   6.651   1.475   7.705  0.1938 -0.5243  0.0038
  125OSM   H11F13392   6.629   1.412   7.616 -2.0768  1.1997 -0.7198
  125OSM   H11G13393   6.561   1.541   7.707 -0.9979 -2.0886 -0.3769
  125OSM   C12F13394   6.631   1.420   7.853  0.3118 -0.2045 -0.1635
  125OSM   H12F13395   6.528   1.379   7.861  0.3789 -0.5217 -0.8913
  125OSM   H12G13396   6.637   1.504   7.926  0.3356 -0.4613  0.1277
  125OSM   C13F13397   6.731   1.309   7.882 -0.5981  0.1323 -0.1054
  125OSM   H13F13398   6.829   1.329   7.835 -0.5610  2.4572  0.9041
  125OSM   H13G13399   6.685   1.212   7.853 -3.8576  0.5177  3.3388
  125OSM   C14F13400   6.772   1.303   8.034  0.4719  0.0801 -0.9687
  125OSM   H14F13401   6.835   1.391   8.060 -1.0769  0.0648  3.1497
  125OSM   H14G13402   6.819   1.203   8.037  0.5530  0.1265 -0.6674
  125OSM   C15F13403   6.656   1.303   8.132  0.7057 -0.6186  0.2316
  125OSM   H15F13404   6.585   1.224   8.100  0.9882 -1.0134  0.5858
  125OSM   H15G13405   6.596   1.397   8.129  1.8510  0.1019 -0.1567
  125OSM   C16F13406   6.693   1.279   8.280 -0.3758  0.1347  0.0596
  125OSM   H16F13407   6.608   1.292   8.350 -0.4596  0.3939 -0.0888
  125OSM   H16G13408   6.762   1.363   8.307  0.3328  0.1642 -1.7739
  125OSM   C17F13409   6.774   1.148   8.308 -0.6715  0.0569  0.2760
  125OSM   H17F13410   6.823   1.150   8.408 -1.1576  0.1411  0.5111
  125OSM   H17G13411   6.852   1.130   8.230 -1.4737 -0.5640 -0.4015
  125OSM   C18F13412   6.688   1.025   8.305  0.4417  0.3753  0.7433
  125OSM   H18F13413   6.667   0.997   8.199  1.4085  1.9470  0.1232
  125OSM   H18G13414   6.592   1.045   8.356  1.0044  0.5858  1.7297
  125OSM   H18H13415   6.746   0.941   8.350  0.4964  0.9223  1.7007
  126OSM      N13416   4.066   6.716   6.554 -0.2228  0.4477  0.7824
  126OSM    C1513417   4.087   6.695   6.404 -0.3343  0.0330  0.1825
  126OSM   H15A13418   4.147   6.607   6.387  0.8594  1.0065 -0.6789
  126OSM   H15B13419   4.130   6.789   6.372 -0.4399 -0.2014 -0.6467
  126OSM   H15C13420   3.996   6.684   6.349 -0.8942 -1.5317  1.3732
  126OSM    C1413421   3.975   6.609   6.610  0.2256  0.0729  1.0782
  126OSM   H14A13422   3.995   6.511   6.570  0.3765  0.5153  0.0659
  126OSM   H14B13423   3.874   6.630   6.576  0.7441  0.7601 -0.0546
  126OSM   H14C13424   3.981   6.599   6.718 -1.1660  2.2777  1.3777
  126OSM    C1313425   4.201   6.708   6.610 -0.1907 -0.3593  0.0283
  126OSM   H13A13426   4.202   6.729   6.715 -1.4995  1.6315 -0.3335
  126OSM   H13B13427   4.271   6.768   6.554 -0.5563  1.2630  1.2992
  126OSM   H13C13428   4.238   6.607   6.597 -0.3658 -0.7574  2.4501
  126OSM    C1213429   4.014   6.854   6.589 -0.5298 -1.1253 -0.7177
  126OSM   H12A13430   4.033   6.867   6.695 -0.1608  1.0277 -1.0208
  126OSM   H12B13431   3.907   6.850   6.583 -0.7070 -0.6756  1.7018
  126OSM    C1113432   4.060   6.979   6.513 -1.0690 -0.5836  0.2706
  126OSM   H11A13433   4.027   7.069   6.568  1.9684  1.0552 -0.4838
  126OSM   H11B13434   4.013   6.971   6.412  0.1059  0.1469 -0.3468
  126OSM      P13435   4.308   7.067   6.567  0.4001 -0.6156 -0.1254
  126OSM    O1313436   4.443   7.012   6.546 -0.0127  0.2800  0.7553
  126OSM    O1413437   4.293   7.211   6.520 -0.1782 -0.0794  0.0012
  126OSM    O1113438   4.275   7.058   6.713  0.5625  0.6878 -0.2842
  126OSM    O1213439   4.198   6.986   6.493 -1.1493  0.0042  0.1605
  126OSM    C1S13440   4.318   7.159   6.803 -0.7653 -0.7350  0.1794
  126OSM    H1S13441   4.263   7.253   6.783 -1.0373 -0.6968  1.1112
  126OSM    H1T13442   4.425   7.181   6.780 -1.2094 -1.7505 -3.1821
  126OSM     NF13443   4.273   7.234   7.033 -0.4282  0.0038 -0.3321
  126OSM    HNF13444   4.341   7.245   7.105 -1.6112  0.1837  0.7683
  126OSM    C2S13445   4.291   7.111   6.950 -0.1520  0.8767  0.2992
  126OSM    H2S13446   4.198   7.052   6.954  0.0576  0.5686  0.7334
  126OSM    C3S13447   4.404   7.018   6.993 -0.4973  0.1884 -0.8478
  126OSM    H3S13448   4.497   7.075   7.010 -0.6177  0.3183 -0.6297
  126OSM     O313449   4.431   6.905   6.906  0.3034  0.1611  0.1348
  126OSM    HO313450   4.409   6.941   6.820  0.7554 -1.3061 -0.6069
  126OSM    C4S13451   4.366   6.969   7.126 -0.5429 -0.1848 -0.1542
  126OSM    H4S13452   4.273   6.910   7.127  0.2534 -1.4673  1.2944
  126OSM    C5S13453   4.430   7.004   7.241 -0.2482  0.2921  0.4876
  126OSM    H5S13454   4.496   7.092   7.251 -0.2108  0.2393  0.7075
  126OSM    C6S13455   4.395   6.953   7.380  1.0424 -0.1349  0.3335
  126OSM    H6S13456   4.474   6.893   7.429  1.0120 -0.0612  0.4729
  126OSM    H6T13457   4.313   6.878   7.373 -0.5565  1.5126  0.7326
  126OSM    C7S13458   4.357   7.057   7.492 -0.4420 -0.8049 -0.5144
  126OSM    H7S13459   4.263   7.110   7.466  0.4719  1.0005 -0.1874
  126OSM    H7T13460   4.436   7.134   7.504 -1.5412  0.8449 -3.2804
  126OSM    C8S13461   4.330   6.985   7.623 -0.2266  0.0729 -0.0564
  126OSM    H8S13462   4.421   6.932   7.659 -0.7930 -1.3712 -0.7129
  126OSM    H8T13463   4.245   6.914   7.607 -0.1078 -0.1418  0.2637
  126OSM    C9S13464   4.297   7.088   7.731 -0.5472  0.3365  0.6049
  126OSM    H9S13465   4.203   7.135   7.694  0.0140  1.0232  0.0488
  126OSM    H9T13466   4.372   7.169   7.738 -0.6588  0.3268  1.9862
  126OSM   C10S13467   4.292   7.024   7.863 -0.1825  0.4085 -0.0001
  126OSM   H10S13468   4.389   6.994   7.908 -0.4309 -1.7575 -0.8589
  126OSM   H10T13469   4.233   6.931   7.847  0.6475  0.1821 -1.8204
  126OSM   C11S13470   4.235   7.119   7.973 -0.7096  0.0265  0.0151
  126OSM   H11S13471   4.126   7.131   7.990 -0.3258  0.2868  2.4013
  126OSM   H11T13472   4.271   7.221   7.949  1.1506 -0.3935  0.8866
  126OSM   C12S13473   4.282   7.079   8.110  0.3382 -0.0383 -0.6348
  126OSM   H12S13474   4.393   7.089   8.107  0.5191 -0.5862  2.4456
  126OSM   H12T13475   4.249   6.978   8.144 -3.4518  0.7345 -1.8648
  126OSM   C13S13476   4.224   7.180   8.216  0.0935  0.3091 -0.0974
  126OSM   H13S13477   4.118   7.197   8.188 -0.2775  0.9237  1.5565
  126OSM   H13T13478   4.279   7.276   8.206 -1.6104  1.3961  0.6855
  126OSM   C14S13479   4.238   7.135   8.368 -0.0603 -0.6482 -0.8222
  126OSM   H14S13480   4.255   7.225   8.431  1.4986  0.7330 -3.1516
  126OSM   H14T13481   4.337   7.083   8.372 -0.1242 -0.7629 -0.7182
  126OSM   C15S13482   4.128   7.047   8.421  0.3120  0.3068 -0.2233
  126OSM   H15S13483   4.038   7.112   8.410 -0.5249 -1.0825 -1.6389
  126OSM   H15T13484   4.145   7.028   8.529 -0.4583  0.1239 -0.1252
  126OSM   C16S13485   4.090   6.909   8.353 -0.5262  0.5257 -0.4621
  126OSM   H16S13486   4.171   6.840   8.384 -2.1855 -0.5044  1.6720
  126OSM   H16T13487   4.083   6.927   8.244  2.2076 -1.5029 -1.0261
  126OSM   C17S13488   3.963   6.852   8.400  0.3940 -0.2695  0.1159
  126OSM   H17S13489   3.956   6.760   8.338  3.1041  1.3138 -2.6982
  126OSM   H17T13490   3.871   6.911   8.380 -0.7161 -1.1598  2.4421
  126OSM   C18S13491   3.955   6.809   8.544  0.2354 -0.6603 -0.2661
  126OSM   H18S13492   3.866   6.746   8.566  0.5474 -1.2657 -0.7289
  126OSM   H18T13493   3.950   6.902   8.605 -0.6469  1.0624 -2.8666
  126OSM   H18U13494   4.044   6.750   8.573  1.3717  1.6586  1.1213
  126OSM    C1F13495   4.174   7.318   7.024 -0.3429  0.4089 -0.1916
  126OSM     OF13496   4.072   7.289   6.967 -0.1085 -0.1307 -0.5409
  126OSM    C2F13497   4.194   7.446   7.108 -0.2110  1.1579  0.5190
  126OSM    H2F13498   4.270   7.505   7.052  0.6013 -1.1940 -0.9325
  126OSM    H2G13499   4.225   7.416   7.211  0.5968 -1.1003 -0.3286
  126OSM    C3F13500   4.074   7.537   7.125  0.6289 -0.1777  1.0385
  126OSM    H3F13501   3.983   7.481   7.153 -1.9770  2.8698 -0.9305
  126OSM    H3G13502   4.060   7.573   7.020 -0.4135 -2.7776  0.2495
  126OSM    C4F13503   4.091   7.653   7.225 -0.1189 -0.3563 -0.0306
  126OSM    H4F13504   4.006   7.724   7.215  0.6884  0.9348  1.8665
  126OSM    H4G13505   4.187   7.707   7.209  0.0104  0.6426  3.5854
  126OSM    C5F13506   4.094   7.612   7.375  1.1295 -0.5266 -0.3855
  126OSM    H5F13507   4.179   7.545   7.400  0.4406 -1.2606  0.0346
  126OSM    H5G13508   4.010   7.539   7.379  0.3506  0.3904  0.2705
  126OSM    C6F13509   4.089   7.713   7.487 -0.1429 -0.5623  0.5782
  126OSM    H6F13510   4.064   7.657   7.580 -1.2365 -1.4760 -0.2544
  126OSM    H6G13511   4.009   7.789   7.470 -0.5155  0.0589  4.6249
  126OSM    C7F13512   4.224   7.780   7.496 -0.6397 -0.2932  0.1468
  126OSM    H7F13513   4.251   7.817   7.395 -2.9489 -0.6021 -0.6244
  126OSM    H7G13514   4.289   7.698   7.533 -0.8609 -0.8568 -0.6990
  126OSM    C8F13515   4.214   7.887   7.607 -0.2564  0.1087 -0.5365
  126OSM    H8F13516   4.191   7.841   7.706  3.2449 -1.9532 -0.5932
  126OSM    H8G13517   4.133   7.959   7.582 -0.2181  0.8992  1.5106
  126OSM    C9F13518   4.347   7.959   7.629  0.4844  0.4010  0.0968
  126OSM    H9F13519   4.388   8.007   7.539  0.6063  0.4825  0.1954
  126OSM   C10F13520   4.414   7.972   7.746  0.3571 -0.1150  0.9824
  126OSM   H10F13521   4.495   8.046   7.759 -1.3131  1.8588  0.4198
  126OSM   C11F13522   4.364   7.930   7.881  0.1947  0.2020  1.2026
  126OSM   H11F13523   4.424   7.839   7.903  2.1822  1.0835 -0.3297
  126OSM   H11G13524   4.261   7.889   7.878 -0.1444  1.0746  0.2834
  126OSM   C12F13525   4.389   8.018   8.003  0.3147 -0.2503  0.2614
  126OSM   H12F13526   4.353   8.121   7.985 -0.7658 -0.6996 -0.1746
  126OSM   H12G13527   4.500   8.027   8.010  0.4452 -2.0152  0.7163
  126OSM   C13F13528   4.335   7.961   8.133  0.1330  0.5303 -0.3505
  126OSM   H13F13529   4.386   7.869   8.170  0.9860  0.5984 -1.3397
  126OSM   H13G13530   4.226   7.949   8.121  0.2636  1.0038 -2.0369
  126OSM   C14F13531   4.352   8.067   8.250 -0.1131  0.0230 -0.4413
  126OSM   H14F13532   4.296   8.156   8.213 -0.7469  0.5991  1.8324
  126OSM   H14G13533   4.459   8.097   8.251  0.3081 -1.4509 -0.8848
  126OSM   C15F13534   4.309   8.023   8.392  0.0871  0.6659  0.0763
  126OSM   H15F13535   4.318   8.113   8.457  0.1900  1.8310 -1.5039
  126OSM   H15G13536   4.370   7.938   8.428  0.4288  1.4654  1.4033
  126OSM   C16F13537   4.165   7.985   8.393  0.7741 -0.2575  0.3062
  126OSM   H16F13538   4.153   7.902   8.319 -0.3615  0.2952 -0.1402
  126OSM   H16G13539   4.100   8.068   8.359  1.1299 -0.0223  0.1908
  126OSM   C17F13540   4.123   7.928   8.527  0.3761 -0.3954  0.3583
  126OSM   H17F13541   4.217   7.884   8.568  1.1767 -0.0801 -1.0929
  126OSM   H17G13542   4.048   7.848   8.511  0.0424  0.3377 -1.9099
  126OSM   C18F13543   4.078   8.037   8.624 -0.0487  0.0496  0.3510
  126OSM   H18F13544   3.978   8.078   8.602  0.8867  3.5413  2.2897
  126OSM   H18G13545   4.139   8.130   8.633  1.1908 -0.8541  1.5108
  126OSM   H18H13546   4.051   7.986   8.719 -0.3827 -1.1604 -0.3784
  127OSM      N13547   5.882   5.731   6.079  0.2445 -0.5063 -0.0838
  127OSM    C1513548   5.903   5.873   6.132 -0.3857  0.5559  0.0439
  127OSM   H15A13549   6.003   5.880   6.173 -0.7005 -0.5995  1.0479
  127OSM   H15B13550   5.830   5.881   6.212 -0.6636 -2.1725  0.1126
  127OSM   H15C13551   5.894   5.949   6.055 -0.6466  0.4319 -0.0486
  127OSM    C1413552   5.747   5.733   6.015  0.2032  0.3172  0.2227
  127OSM   H14A13553   5.718   5.825   5.964 -0.2372 -0.7938 -1.5842
  127OSM   H14B13554   5.676   5.709   6.092 -0.5760  0.6509 -0.3740
  127OSM   H14C13555   5.737   5.650   5.946  4.3231  0.9525 -1.3039
  127OSM    C1313556   5.981   5.709   5.969 -1.0648  0.4081  0.9530
  127OSM   H13A13557   6.080   5.730   6.007  0.3843 -2.6465 -0.9809
  127OSM   H13B13558   5.969   5.780   5.888 -0.9922 -0.4682  0.1654
  127OSM   H13C13559   5.982   5.609   5.928 -0.1555  0.2425  1.3723
  127OSM    C1213560   5.907   5.638   6.187 -0.7078 -0.4788  0.2795
  127OSM   H12A13561   6.009   5.637   6.223 -0.8281 -0.6799  0.6328
  127OSM   H12B13562   5.907   5.536   6.151  2.1670 -0.4459  0.1004
  127OSM    C1113563   5.813   5.643   6.315 -0.2591  0.1626 -0.7418
  127OSM   H11A13564   5.832   5.743   6.360 -0.5206 -1.6989  3.7630
  127OSM   H11B13565   5.849   5.567   6.388  2.0376  2.1722  0.3137
  127OSM      P13566   5.601   5.512   6.253  0.0736 -0.0699  0.1910
  127OSM    O1313567   5.494   5.542   6.154 -0.7768  0.5186 -0.1168
  127OSM    O1413568   5.701   5.408   6.216  0.0520 -0.1547 -0.1685
  127OSM    O1113569   5.532   5.456   6.383 -0.6085  0.2915 -0.6344
  127OSM    O1213570   5.674   5.642   6.289  0.2693 -0.1588  0.3740
  127OSM    C1S13571   5.572   5.514   6.511 -0.8927 -0.2860 -0.4098
  127OSM    H1S13572   5.511   5.607   6.521 -1.9638 -0.9078 -1.0124
  127OSM    H1T13573   5.680   5.527   6.529 -0.7006 -1.2844 -0.8051
  127OSM     NF13574   5.551   5.515   6.756  0.0462  0.0940 -0.4715
  127OSM    HNF13575   5.636   5.488   6.800 -1.1504 -0.1817  1.7505
  127OSM    C2S13576   5.525   5.437   6.635  0.4995  0.2438 -0.3566
  127OSM    H2S13577   5.414   5.427   6.630  0.6910 -1.3882 -1.5642
  127OSM    C3S13578   5.584   5.291   6.621 -0.1817  0.5537 -0.8402
  127OSM    H3S13579   5.694   5.306   6.618 -0.4411  2.6401 -0.2579
  127OSM     O313580   5.570   5.230   6.495 -0.2390  0.1191 -0.7547
  127OSM    HO313581   5.573   5.306   6.437  0.6382 -0.6807 -1.7886
  127OSM    C4S13582   5.549   5.210   6.735  0.1462  0.9426  0.0295
  127OSM    H4S13583   5.619   5.234   6.816  1.5692 -0.6532 -0.7076
  127OSM    C5S13584   5.465   5.104   6.751 -0.1105  0.7528  0.2094
  127OSM    H5S13585   5.410   5.064   6.664  1.9944  2.6572 -2.0645
  127OSM    C6S13586   5.436   5.030   6.875  0.2786 -0.0144  0.1697
  127OSM    H6S13587   5.484   4.929   6.870 -1.4171 -0.7722 -0.9848
  127OSM    H6T13588   5.326   5.016   6.886 -0.1070  3.1583  0.8207
  127OSM    C7S13589   5.484   5.096   7.003  0.4150  0.3805 -0.1735
  127OSM    H7S13590   5.433   5.191   7.028  2.4060  1.0958  1.2756
  127OSM    H7T13591   5.591   5.122   6.991 -0.0223  1.1428 -2.7624
  127OSM    C8S13592   5.475   4.981   7.106  0.7948 -1.0697  0.0447
  127OSM    H8S13593   5.544   4.894   7.097  1.0147 -1.0380  1.2586
  127OSM    H8T13594   5.370   4.945   7.103 -0.0874  1.3890  0.4140
  127OSM    C9S13595   5.513   5.036   7.242  0.0455 -0.0723 -0.1818
  127OSM    H9S13596   5.439   5.114   7.269  0.7127 -0.1414  1.9929
  127OSM    H9T13597   5.616   5.075   7.259  0.1587 -1.7895  3.7733
  127OSM   C10S13598   5.494   4.927   7.359 -0.4813 -0.4666 -0.6737
  127OSM   H10S13599   5.554   4.837   7.336  1.5830  0.8192 -0.4920
  127OSM   H10T13600   5.385   4.909   7.348 -0.6379  0.0015  0.1190
  127OSM   C11S13601   5.532   4.990   7.490 -0.5635  0.1054 -0.2145
  127OSM   H11S13602   5.469   5.081   7.498 -2.6157 -1.0265 -2.6970
  127OSM   H11T13603   5.638   5.022   7.495 -0.0128 -1.8521  1.9275
  127OSM   C12S13604   5.503   4.889   7.597 -0.4660  0.0141 -0.1413
  127OSM   H12S13605   5.571   4.801   7.585  0.7535  0.9813 -0.3664
  127OSM   H12T13606   5.401   4.845   7.591  0.3803 -2.0537  0.2059
  127OSM   C13S13607   5.512   4.937   7.746 -0.1790  0.0803  0.3727
  127OSM   H13S13608   5.485   4.840   7.795 -0.3197  0.2120  0.5606
  127OSM   H13T13609   5.423   5.001   7.767 -0.4018 -0.0546 -0.1619
  127OSM   C14S13610   5.643   5.011   7.791  0.6669 -0.4358  0.8240
  127OSM   H14S13611   5.650   5.112   7.744  2.1183 -0.6284  0.6025
  127OSM   H14T13612   5.727   4.953   7.747 -0.3965  0.8178 -3.0513
  127OSM   C15S13613   5.660   5.034   7.938  0.0781  0.0720 -0.1010
  127OSM   H15S13614   5.754   5.089   7.959 -0.7267  0.7346  1.8491
  127OSM   H15T13615   5.658   4.943   8.002 -0.0115 -1.1943 -1.8624
  127OSM   C16S13616   5.547   5.133   7.992 -0.1837  0.0797 -0.3266
  127OSM   H16S13617   5.445   5.117   7.952 -0.1080 -0.1309 -0.4374
  127OSM   H16T13618   5.562   5.239   7.964 -0.4159  0.6208  1.5577
  127OSM   C17S13619   5.532   5.119   8.140 -0.5105  0.9510 -0.5141
  127OSM   H17S13620   5.625   5.128   8.198  0.2747  0.8900 -1.7463
  127OSM   H17T13621   5.499   5.014   8.156 -0.7698  1.4678  2.5488
  127OSM   C18S13622   5.428   5.208   8.216  0.1705 -0.0752 -0.4636
  127OSM   H18S13623   5.421   5.188   8.325 -3.4294  1.3916 -0.3523
  127OSM   H18T13624   5.324   5.194   8.179 -0.1000 -0.8222  0.5619
  127OSM   H18U13625   5.459   5.315   8.209  2.3019 -0.6224  0.0421
  127OSM    C1F13626   5.493   5.632   6.790  0.1378  0.5567  0.2580
  127OSM     OF13627   5.394   5.684   6.738  0.0522  0.4856  0.4566
  127OSM    C2F13628   5.571   5.720   6.890  0.1518 -0.6810  0.2176
  127OSM    H2F13629   5.606   5.813   6.841 -1.2205 -0.3093 -0.0521
  127OSM    H2G13630   5.658   5.657   6.920 -0.3779 -2.3743 -1.6943
  127OSM    C3F13631   5.479   5.768   7.010 -0.6185 -0.0456  0.0622
  127OSM    H3F13632   5.457   5.676   7.068 -1.2389 -0.3009 -0.5717
  127OSM    H3G13633   5.384   5.813   6.976 -0.7404 -1.6445 -1.8327
  127OSM    C4F13634   5.563   5.862   7.101  0.0466  1.3627 -0.4183
  127OSM    H4F13635   5.588   5.959   7.052  0.0231  1.4506 -0.2529
  127OSM    H4G13636   5.660   5.820   7.134 -0.6438 -1.6322 -2.0479
  127OSM    C5F13637   5.500   5.906   7.234 -0.5088  0.5011  0.3205
  127OSM    H5F13638   5.404   5.951   7.201 -0.2519  0.2574 -0.7850
  127OSM    H5G13639   5.571   5.981   7.276 -0.0008  0.7153 -0.9110
  127OSM    C6F13640   5.467   5.788   7.326 -0.3050  0.3943 -0.0407
  127OSM    H6F13641   5.560   5.728   7.330 -0.7200 -0.1705  1.1165
  127OSM    H6G13642   5.384   5.730   7.281 -0.7400  1.1028 -0.1593
  127OSM    C7F13643   5.436   5.826   7.467 -0.6959 -0.1692 -0.5416
  127OSM    H7F13644   5.371   5.746   7.509 -1.3334 -0.0997 -1.3748
  127OSM    H7G13645   5.374   5.918   7.461 -1.4733 -0.7273 -1.2355
  127OSM    C8F13646   5.549   5.849   7.564 -0.2325 -0.5224  0.4460
  127OSM    H8F13647   5.508   5.913   7.645  1.0902 -0.7471  1.3083
  127OSM    H8G13648   5.628   5.902   7.505 -1.8489 -0.5065 -1.7670
  127OSM    C9F13649   5.604   5.722   7.615  0.2477 -0.1156 -0.1029
  127OSM    H9F13650   5.620   5.645   7.538 -1.9128 -1.2765  0.5973
  127OSM   C10F13651   5.643   5.686   7.737 -0.6358  0.2156  0.3321
  127OSM   H10F13652   5.677   5.583   7.754  1.1596  0.3120 -2.3415
  127OSM   C11F13653   5.639   5.782   7.855  0.4418 -0.3287 -0.1828
  127OSM   H11F13654   5.665   5.882   7.815  0.0611  0.8377  2.3524
  127OSM   H11G13655   5.711   5.747   7.932 -0.2533 -1.9324 -0.2469
  127OSM   C12F13656   5.499   5.798   7.926 -0.4819  0.4736 -0.4091
  127OSM   H12F13657   5.468   5.698   7.963 -0.8438  0.9266  0.5277
  127OSM   H12G13658   5.420   5.844   7.863  1.1619  2.3956 -1.1287
  127OSM   C13F13659   5.529   5.892   8.041 -0.2392  0.0580  0.1251
  127OSM   H13F13660   5.528   5.991   7.992 -1.6084  0.4958  1.0214
  127OSM   H13G13661   5.633   5.870   8.076  0.9691  4.5442 -0.3457
  127OSM   C14F13662   5.436   5.883   8.160  0.4776  0.2712  0.2286
  127OSM   H14F13663   5.425   5.775   8.185 -0.6174  0.5035  0.7577
  127OSM   H14G13664   5.338   5.925   8.130  1.4865  3.4901  1.1686
  127OSM   C15F13665   5.487   5.960   8.282  0.5213  0.1850  0.4261
  127OSM   H15F13666   5.499   6.062   8.242 -1.7905  0.6847  0.9378
  127OSM   H15G13667   5.589   5.925   8.310  0.5201 -1.1491 -1.1129
  127OSM   C16F13668   5.396   5.966   8.398 -0.1551  1.1028  0.5349
  127OSM   H16F13669   5.374   5.859   8.423 -2.0938  1.1991 -0.6300
  127OSM   H16G13670   5.297   6.010   8.374  0.0707  0.7054 -1.1672
  127OSM   C17F13671   5.456   6.047   8.519  0.6714  0.3816  0.1929
  127OSM   H17F13672   5.517   6.131   8.479  0.6246  1.6705  2.7173
  127OSM   H17G13673   5.537   5.991   8.570  0.1659  0.3860  1.0059
  127OSM   C18F13674   5.351   6.112   8.613  0.1107 -0.5214 -0.0010
  127OSM   H18F13675   5.320   6.031   8.682  0.5172 -0.6920 -0.0093
  127OSM   H18G13676   5.259   6.152   8.565  0.4976 -1.0711 -1.2269
  127OSM   H18H13677   5.394   6.187   8.683  1.7251 -0.1161 -1.3845
  128OSM      N13678   1.563   2.235   6.223 -0.5367 -0.3125 -0.1183
  128OSM    C1513679   1.457   2.336   6.223 -0.1081 -0.0329 -0.5833
  128OSM   H15A13680   1.365   2.282   6.213  0.1118 -1.0059  2.2742
  128OSM   H15B13681   1.451   2.395   6.132 -2.4793  1.1022  0.2760
  128OSM   H15C13682   1.458   2.410   6.301  2.1572  1.0181 -1.5406
  128OSM    C1413683   1.555   2.157   6.096  0.3709 -0.5131 -0.4774
  128OSM   H14A13684   1.454   2.124   6.076  1.1035 -2.7126 -0.6725
  128OSM   H14B13685   1.625   2.075   6.095 -0.9870 -1.7264  0.9584
  128OSM   H14C13686   1.574   2.216   6.007 -1.6274  4.4720  2.2029
  128OSM    C1313687   1.701   2.291   6.223  0.1561 -0.2234 -0.2125
  128OSM   H13A13688   1.726   2.368   6.294  0.0863 -0.4682  0.0801
  128OSM   H13B13689   1.722   2.340   6.129  1.4397  1.3779  0.8722
  128OSM   H13C13690   1.784   2.221   6.230 -1.5113 -2.1052  1.3905
  128OSM    C1213691   1.554   2.140   6.335 -0.1157 -0.3239  0.5218
  128OSM   H12A13692   1.599   2.179   6.424  1.6002  1.1718 -0.9588
  128OSM   H12B13693   1.619   2.058   6.306 -1.8406 -1.2618 -0.8245
  128OSM    C1113694   1.420   2.075   6.371  0.5443 -0.1267 -0.6195
  128OSM   H11A13695   1.357   2.160   6.406 -0.8454 -1.6048  0.5578
  128OSM   H11B13696   1.444   2.000   6.449 -0.6811 -0.1326 -0.2379
  128OSM      P13697   1.220   1.979   6.241 -0.2418  0.0400  0.3453
  128OSM    O1313698   1.176   2.050   6.116 -0.0580  0.1477 -0.2307
  128OSM    O1413699   1.213   1.830   6.251  0.1556 -0.2655 -0.2621
  128OSM    O1113700   1.141   2.041   6.361  0.8597 -0.5639 -0.2515
  128OSM    O1213701   1.365   2.006   6.262  0.1051 -0.1361 -0.2638
  128OSM    C1S13702   1.120   1.972   6.484  0.2507  0.4722  0.4528
  128OSM    H1S13703   1.190   1.888   6.503 -3.2916 -2.7619 -0.2648
  128OSM    H1T13704   1.020   1.925   6.486  0.0905  0.8415  2.3703
  128OSM     NF13705   1.100   1.988   6.724  0.3525 -0.4618 -0.0492
  128OSM    HNF13706   1.007   1.997   6.758  0.1660 -1.1777 -0.3625
  128OSM    C2S13707   1.116   2.068   6.609 -0.4334  0.6370  0.0995
  128OSM    H2S13708   1.218   2.113   6.608  0.5758 -1.5798  1.1917
  128OSM    C3S13709   1.015   2.173   6.601  0.9043  0.2338  0.1189
  128OSM    H3S13710   0.914   2.132   6.624  0.6878  0.0567 -1.1060
  128OSM     O313711   1.002   2.236   6.470  0.4410  0.0461 -0.3427
  128OSM    HO313712   1.051   2.188   6.403 -0.5651 -1.4651 -0.0264
  128OSM    C4S13713   1.040   2.266   6.718  0.4172 -0.1680  0.4626
  128OSM    H4S13714   1.003   2.231   6.816 -0.6408  0.4186  0.2872
  128OSM    C5S13715   1.090   2.388   6.721  0.3023 -0.1126  0.0967
  128OSM    H5S13716   1.121   2.431   6.624  2.1064 -0.3227  0.5630
  128OSM    C6S13717   1.113   2.476   6.837  1.0722 -0.3411 -0.2026
  128OSM    H6S13718   1.053   2.565   6.809  1.3950  0.7601  2.4505
  128OSM    H6T13719   1.220   2.503   6.836  1.0642 -0.3199 -0.7862
  128OSM    C7S13720   1.062   2.441   6.982 -0.2667  0.9550  0.2020
  128OSM    H7S13721   1.115   2.345   6.998  1.0956  1.7952  0.7193
  128OSM    H7T13722   0.953   2.421   6.974  0.0826 -0.9609  0.0387
  128OSM    C8S13723   1.090   2.540   7.095 -0.1466  0.2867 -0.7317
  128OSM    H8S13724   1.049   2.635   7.056  0.9625  1.9690  2.0360
  128OSM    H8T13725   1.200   2.545   7.107 -0.3526  3.3972  0.0808
  128OSM    C9S13726   1.038   2.490   7.224  0.6640  0.4869  0.1812
  128OSM    H9S13727   1.102   2.409   7.265 -0.9382 -0.7528  0.3295
  128OSM    H9T13728   0.939   2.451   7.189  1.0039  0.9927 -1.3393
  128OSM   C10S13729   1.025   2.603   7.323 -0.3082 -0.6044  0.3170
  128OSM   H10S13730   0.955   2.681   7.286 -0.6231 -1.6579 -1.3504
  128OSM   H10T13731   1.124   2.652   7.340  1.4564 -3.3331 -1.7393
  128OSM   C11S13732   0.961   2.553   7.456  0.0855  0.2069  0.1649
  128OSM   H11S13733   1.025   2.473   7.499 -0.4782 -0.7972 -0.8481
  128OSM   H11T13734   0.867   2.497   7.437  1.1009 -1.6738  0.5540
  128OSM   C12S13735   0.947   2.656   7.568  0.1745 -1.0249 -0.3970
  128OSM   H12S13736   0.891   2.744   7.530 -0.3134 -0.5084  1.4715
  128OSM   H12T13737   1.048   2.687   7.601  0.0685 -0.9071 -0.1805
  128OSM   C13S13738   0.877   2.594   7.688 -0.7513 -0.0484 -0.4814
  128OSM   H13S13739   0.941   2.515   7.732 -2.2381  0.1006  2.0286
  128OSM   H13T13740   0.783   2.545   7.655 -1.5540 -0.4953  2.3682
  128OSM   C14S13741   0.845   2.689   7.802  0.1828 -0.2129  0.4738
  128OSM   H14S13742   0.777   2.767   7.762  0.2425 -0.4380 -0.0806
  128OSM   H14T13743   0.935   2.734   7.850  1.5834 -2.1398 -0.2800
  128OSM   C15S13744   0.760   2.619   7.903  0.3082 -0.2428 -0.6726
  128OSM   H15S13745   0.799   2.516   7.916  0.3772  0.0914  1.9011
  128OSM   H15T13746   0.654   2.606   7.871  0.6942  0.0413 -2.0900
  128OSM   C16S13747   0.756   2.702   8.026 -0.0412 -0.1882  0.7977
  128OSM   H16S13748   0.727   2.804   7.992  0.3803 -0.5818 -0.7507
  128OSM   H16T13749   0.861   2.704   8.063  0.8668 -4.6021 -1.2724
  128OSM   C17S13750   0.676   2.642   8.143 -1.1082 -0.0175  0.5867
  128OSM   H17S13751   0.722   2.545   8.171  0.1237  0.4519  0.2050
  128OSM   H17T13752   0.577   2.617   8.098 -0.1617  1.0536 -2.2525
  128OSM   C18S13753   0.653   2.732   8.264  0.4043  0.3479  0.3633
  128OSM   H18S13754   0.746   2.758   8.318 -0.1570  0.4804  1.2687
  128OSM   H18T13755   0.587   2.678   8.335  0.0007  0.8098  0.3445
  128OSM   H18U13756   0.616   2.834   8.239  0.3702  0.5518  1.2543
  128OSM    C1F13757   1.186   1.903   6.764  0.2545 -0.3453  0.3483
  128OSM     OF13758   1.308   1.922   6.751  0.2353  0.1267  0.1648
  128OSM    C2F13759   1.125   1.793   6.855 -1.1238  0.3981 -0.0740
  128OSM    H2F13760   1.069   1.719   6.794 -0.2283 -0.8441  0.6002
  128OSM    H2G13761   1.049   1.835   6.924 -1.4582  0.3247 -0.3990
  128OSM    C3F13762   1.230   1.719   6.938  0.4423 -0.8672 -0.6197
  128OSM    H3F13763   1.288   1.793   6.997  0.1967 -2.3762  1.5725
  128OSM    H3G13764   1.295   1.674   6.860  0.3498 -1.9362 -0.0802
  128OSM    C4F13765   1.180   1.597   7.026  0.5431  0.9367  0.2577
  128OSM    H4F13766   1.271   1.557   7.075  0.0559  0.4128  0.7426
  128OSM    H4G13767   1.129   1.524   6.960  0.7542  1.2494 -0.2568
  128OSM    C5F13768   1.071   1.631   7.131 -0.9096  0.3679  0.2922
  128OSM    H5F13769   0.972   1.624   7.081 -0.7107  2.2179 -0.4024
  128OSM    H5G13770   1.076   1.737   7.164  0.6884 -0.1440  1.7911
  128OSM    C6F13771   1.083   1.533   7.250  0.2547 -0.3072  0.4554
  128OSM    H6F13772   1.176   1.541   7.311 -0.7706 -1.5358  2.2199
  128OSM    H6G13773   1.074   1.430   7.211  1.1870  0.6737 -2.4599
  128OSM    C7F13774   0.970   1.554   7.341  0.6433  0.5421 -0.1758
  128OSM    H7F13775   0.986   1.477   7.420  1.2690 -0.6586 -1.4412
  128OSM    H7G13776   0.876   1.516   7.295  0.2787 -0.9537  1.7492
  128OSM    C8F13777   0.957   1.694   7.403 -1.1551 -0.4146  0.5641
  128OSM    H8F13778   0.887   1.693   7.489 -0.2763  1.9717  1.3694
  128OSM    H8G13779   0.908   1.763   7.331  0.0192  1.1498  1.2269
  128OSM    C9F13780   1.088   1.754   7.453  0.4982  0.4473 -0.2025
  128OSM    H9F13781   1.144   1.810   7.376  3.4555 -0.7142  1.0261
  128OSM   C10F13782   1.136   1.758   7.579  0.9763  0.0449 -0.0261
  128OSM   H10F13783   1.234   1.808   7.590  0.6019  1.1675 -1.6796
  128OSM   C11F13784   1.062   1.688   7.700 -0.7226 -0.3643 -0.1523
  128OSM   H11F13785   1.132   1.633   7.766  1.2637 -0.2088 -2.1021
  128OSM   H11G13786   1.003   1.601   7.664 -1.4004 -1.0939  2.5705
  128OSM   C12F13787   0.961   1.768   7.773 -0.7401  0.4984 -0.0581
  128OSM   H12F13788   0.887   1.816   7.705 -0.1079  2.2028  0.4238
  128OSM   H12G13789   1.010   1.855   7.822 -0.4619 -1.0446  2.5000
  128OSM   C13F13790   0.898   1.678   7.887 -0.4670  0.1890  0.6499
  128OSM   H13F13791   0.894   1.577   7.840  0.9337  1.2610 -1.8851
  128OSM   H13G13792   0.791   1.711   7.891 -0.5213  0.3160 -1.3323
  128OSM   C14F13793   0.979   1.662   8.013 -0.3342 -0.3684  0.0203
  128OSM   H14F13794   0.999   1.760   8.061  0.4529  0.2687 -1.5700
  128OSM   H14G13795   1.081   1.628   7.985  0.6514  1.7408  0.9251
  128OSM   C15F13796   0.906   1.568   8.117 -1.0226  0.0781 -0.2040
  128OSM   H15F13797   0.873   1.471   8.076  2.5372 -0.1630 -2.6473
  128OSM   H15G13798   0.817   1.627   8.148 -1.1212  0.7562 -1.7206
  128OSM   C16F13799   0.990   1.550   8.242 -0.4134  0.4538  0.1678
  128OSM   H16F13800   1.020   1.654   8.269 -3.0280  1.6188 -1.2225
  128OSM   H16G13801   1.081   1.492   8.215 -0.3939  1.1172 -1.2473
  128OSM   C17F13802   0.900   1.490   8.350  0.2035 -1.2400  1.0560
  128OSM   H17F13803   0.806   1.547   8.364  0.0815 -1.7367  2.2696
  128OSM   H17G13804   0.948   1.505   8.449  2.7940 -0.3859 -0.2772
  128OSM   C18F13805   0.874   1.335   8.339  0.1255 -0.6970  0.0638
  128OSM   H18F13806   0.961   1.282   8.295  0.0340 -0.9879  0.2264
  128OSM   H18G13807   0.785   1.309   8.278  1.5437 -0.6647 -2.0804
  128OSM   H18H13808   0.871   1.298   8.444 -0.2237  1.2819  0.7794
  129OSM      N13809   4.886   5.120   6.202  0.3456  0.3470 -0.4949
  129OSM    C1513810   4.932   5.016   6.292 -0.1132  0.6048 -1.1404
  129OSM   H15A13811   4.876   4.994   6.381  1.7155 -0.8294 -0.2980
  129OSM   H15B13812   5.025   5.050   6.334 -0.7712 -0.0760  0.9005
  129OSM   H15C13813   4.953   4.922   6.242 -1.5901 -0.4442  0.1382
  129OSM    C1413814   5.001   5.158   6.112 -0.5022 -0.2388 -0.6203
  129OSM   H14A13815   5.019   5.087   6.032 -0.2793  0.8406 -1.5444
  129OSM   H14B13816   5.090   5.145   6.171 -1.2135  0.5127  0.6403
  129OSM   H14C13817   4.996   5.266   6.102 -1.3839 -0.2790 -0.6846
  129OSM    C1313818   4.768   5.075   6.125 -0.1056  0.6220 -0.4599
  129OSM   H13A13819   4.728   5.152   6.059 -2.0876  0.7049  0.7989
  129OSM   H13B13820   4.688   5.039   6.187  1.1925 -0.2964  0.6898
  129OSM   H13C13821   4.780   4.990   6.060 -0.4994 -1.1911  1.7643
  129OSM    C1213822   4.846   5.238   6.294 -0.2345  0.0021  0.0874
  129OSM   H12A13823   4.930   5.255   6.359  2.5089  2.4485 -3.8652
  129OSM   H12B13824   4.761   5.213   6.355  0.1610 -2.9691 -0.4618
  129OSM    C1113825   4.811   5.376   6.226 -0.9391  0.3242  0.1207
  129OSM   H11A13826   4.762   5.453   6.289  0.7514  2.2919 -0.8652
  129OSM   H11B13827   4.735   5.343   6.152 -1.4970  0.4997  0.6137
  129OSM      P13828   5.009   5.552   6.213 -0.4414 -0.2761 -0.3053
  129OSM    O1313829   5.149   5.526   6.161  0.0390  0.4740 -0.1228
  129OSM    O1413830   4.959   5.677   6.160 -0.4975 -1.0993  0.1635
  129OSM    O1113831   4.995   5.552   6.369  0.5174 -0.2218  0.2785
  129OSM    O1213832   4.917   5.440   6.154  0.5985 -0.3213 -0.4482
  129OSM    C1S13833   5.060   5.644   6.455  0.2853  0.7620  0.4896
  129OSM    H1S13834   5.004   5.740   6.449 -1.9028 -0.1178  5.0064
  129OSM    H1T13835   5.166   5.659   6.425  0.4089 -1.3187 -0.1779
  129OSM     NF13836   5.128   5.697   6.685  0.0315  0.0396  0.1563
  129OSM    HNF13837   5.226   5.688   6.701 -0.3349 -0.6752  2.1845
  129OSM    C2S13838   5.054   5.604   6.606 -0.6345 -0.0413 -0.6541
  129OSM    H2S13839   4.950   5.607   6.644  0.8710  2.2224  3.5836
  129OSM    C3S13840   5.094   5.454   6.620 -0.5999  0.3617 -0.6064
  129OSM    H3S13841   5.198   5.444   6.580  1.0422 -2.4192  3.9319
  129OSM     O313842   5.016   5.354   6.552 -0.3723 -0.3513 -0.2619
  129OSM    HO313843   4.960   5.404   6.491  1.8293  1.2149 -1.0571
  129OSM    C4S13844   5.100   5.430   6.766 -0.4502 -0.0179 -0.6279
  129OSM    H4S13845   5.005   5.455   6.816 -0.1803 -1.1957  0.5110
  129OSM    C5S13846   5.206   5.403   6.841 -0.2131 -0.4749  0.1699
  129OSM    H5S13847   5.304   5.394   6.791 -1.5553 -1.9270 -2.3161
  129OSM    C6S13848   5.199   5.373   6.988 -0.6716  0.7051  0.2550
  129OSM    H6S13849   5.196   5.262   7.001  1.1420  0.7575  1.3719
  129OSM    H6T13850   5.102   5.406   7.029 -0.4926 -0.5342  1.7413
  129OSM    C7S13851   5.319   5.431   7.069  0.9673 -0.2379  0.2073
  129OSM    H7S13852   5.309   5.540   7.047  0.5683 -0.2852  0.1536
  129OSM    H7T13853   5.421   5.404   7.034  0.5078  0.7201 -1.9513
  129OSM    C8S13854   5.315   5.377   7.211  0.2268 -0.1385 -0.3378
  129OSM    H8S13855   5.314   5.266   7.215 -0.5176 -0.0981  1.0044
  129OSM    H8T13856   5.229   5.415   7.270  2.0905 -1.2130  3.2075
  129OSM    C9S13857   5.442   5.412   7.288  0.3857  0.2575  0.0420
  129OSM    H9S13858   5.456   5.522   7.292 -0.8036  0.3726  1.2903
  129OSM    H9T13859   5.536   5.370   7.246  0.6709  1.3847 -0.4763
  129OSM   C10S13860   5.433   5.364   7.436  0.0476 -0.8558 -0.1563
  129OSM   H10S13861   5.529   5.395   7.481 -1.6373  2.4585  1.2779
  129OSM   H10T13862   5.423   5.253   7.434  1.3805 -1.0665  2.6750
  129OSM   C11S13863   5.322   5.415   7.523  0.4068  0.3580  0.0431
  129OSM   H11S13864   5.226   5.364   7.502  0.7841  0.4391 -2.0562
  129OSM   H11T13865   5.312   5.525   7.506  2.8668  0.6802  0.5402
  129OSM   C12S13866   5.352   5.391   7.673 -0.0784 -0.7496  0.3732
  129OSM   H12S13867   5.458   5.408   7.698 -0.3321  1.3292  0.0776
  129OSM   H12T13868   5.319   5.287   7.696 -1.0961 -0.3649  0.6757
  129OSM   C13S13869   5.284   5.492   7.766 -0.5406 -0.2024 -0.1345
  129OSM   H13S13870   5.177   5.497   7.735 -1.0968 -2.0988  1.3941
  129OSM   H13T13871   5.332   5.591   7.748  0.0746 -0.7963 -1.9327
  129OSM   C14S13872   5.294   5.458   7.923 -1.0910 -0.1415 -0.0982
  129OSM   H14S13873   5.402   5.460   7.948 -0.9479  0.3562 -0.7412
  129OSM   H14T13874   5.263   5.353   7.940 -2.7762  0.1647 -1.1640
  129OSM   C15S13875   5.218   5.565   8.000  0.2469 -0.0471  0.3370
  129OSM   H15S13876   5.112   5.541   7.975  1.1760 -1.8118 -2.0222
  129OSM   H15T13877   5.256   5.659   7.954  2.2597 -1.7379 -1.5274
  129OSM   C16S13878   5.232   5.558   8.146 -0.1204  0.3499 -1.1610
  129OSM   H16S13879   5.333   5.572   8.191 -0.9132  0.9274  0.4893
  129OSM   H16T13880   5.204   5.459   8.189  1.8452  0.5506  0.7213
  129OSM   C17S13881   5.126   5.641   8.219  0.3886  1.1745 -0.2758
  129OSM   H17S13882   5.024   5.615   8.182  0.3519  0.9474 -0.0117
  129OSM   H17T13883   5.140   5.745   8.184  0.5576  0.9619 -0.8450
  129OSM   C18S13884   5.116   5.631   8.370  0.0288 -0.4219 -0.0725
  129OSM   H18S13885   5.035   5.702   8.399  0.6894 -0.3316  1.5957
  129OSM   H18T13886   5.213   5.661   8.414  0.5295 -0.6473 -1.0299
  129OSM   H18U13887   5.094   5.528   8.408  0.7209  0.3101  2.4255
  129OSM    C1F13888   5.067   5.813   6.730 -0.2662  0.4133 -0.3200
  129OSM     OF13889   4.971   5.860   6.667 -0.0288 -0.4142 -0.0554
  129OSM    C2F13890   5.137   5.892   6.836  0.9159  0.2021  0.1610
  129OSM    H2F13891   5.202   5.962   6.779  0.6434  2.1363  2.1506
  129OSM    H2G13892   5.205   5.822   6.889  0.4822  0.8149  1.5787
  129OSM    C3F13893   5.032   5.954   6.932 -0.4225  0.0943 -0.4043
  129OSM    H3F13894   4.973   5.872   6.977  0.2111  0.4290  1.0885
  129OSM    H3G13895   4.970   6.038   6.893  2.5942  3.3246  1.3743
  129OSM    C4F13896   5.114   6.029   7.042 -0.3854 -0.6693 -0.2646
  129OSM    H4F13897   5.167   6.114   6.995 -0.1352 -1.2495 -1.0551
  129OSM    H4G13898   5.186   5.957   7.087  0.8404  0.1611 -0.8730
  129OSM    C5F13899   5.022   6.066   7.159  0.0756  0.1892  0.1836
  129OSM    H5F13900   4.991   5.973   7.210  0.8871  0.0330  0.3963
  129OSM    H5G13901   4.929   6.116   7.125  1.4146 -0.4148 -4.6940
  129OSM    C6F13902   5.092   6.176   7.242 -0.8038 -0.7588 -0.0627
  129OSM    H6F13903   5.088   6.269   7.181  3.5058  1.2697  2.5249
  129OSM    H6G13904   5.198   6.144   7.237 -1.1722 -1.7530 -2.6260
  129OSM    C7F13905   5.036   6.198   7.377  0.7441 -0.2613 -0.7345
  129OSM    H7F13906   5.009   6.117   7.449 -1.2594  0.7097 -0.3686
  129OSM    H7G13907   4.942   6.256   7.368  0.3756 -0.6785  0.3029
  129OSM    C8F13908   5.107   6.306   7.462  0.3430 -0.5825 -0.6700
  129OSM    H8F13909   5.216   6.285   7.464  0.3910 -0.3375 -0.6542
  129OSM    H8G13910   5.071   6.315   7.566 -0.6103 -0.4945 -0.9978
  129OSM    C9F13911   5.103   6.446   7.401  0.2649 -0.1199  0.0850
  129OSM    H9F13912   5.149   6.462   7.303  0.0958  0.3272  0.0777
  129OSM   C10F13913   5.058   6.563   7.460 -0.7490 -0.7694 -0.2282
  129OSM   H10F13914   5.078   6.644   7.388  1.4976 -3.0602 -2.3002
  129OSM   C11F13915   5.005   6.598   7.593  0.2669  0.3187  0.1410
  129OSM   H11F13916   4.980   6.508   7.654  0.2702  0.8086  0.8591
  129OSM   H11G13917   4.910   6.652   7.578  0.9050  1.0697 -1.3529
  129OSM   C12F13918   5.098   6.681   7.684 -0.3346  1.0439  0.0182
  129OSM   H12F13919   5.030   6.691   7.771  1.3211 -0.9851  1.6114
  129OSM   H12G13920   5.114   6.783   7.642  0.8592  0.2143 -1.6131
  129OSM   C13F13921   5.223   6.609   7.735  0.3845 -0.1538 -0.1067
  129OSM   H13F13922   5.299   6.615   7.654 -1.9279 -0.1594 -2.3399
  129OSM   H13G13923   5.209   6.503   7.765  3.6409 -0.9997 -1.3102
  129OSM   C14F13924   5.281   6.691   7.859 -0.4206  0.2549  0.1013
  129OSM   H14F13925   5.295   6.795   7.822  1.4743 -0.4795 -1.3682
  129OSM   H14G13926   5.384   6.653   7.879 -1.0151 -0.6288  1.4729
  129OSM   C15F13927   5.189   6.681   7.989  0.4069 -0.1968  0.9634
  129OSM   H15F13928   5.165   6.574   8.005 -0.9263 -0.2212 -0.9414
  129OSM   H15G13929   5.099   6.746   7.982  1.2150  0.9036  0.6894
  129OSM   C16F13930   5.268   6.744   8.111 -0.9415  1.1026  0.1971
  129OSM   H16F13931   5.295   6.844   8.072 -0.1819  0.2543 -1.5317
  129OSM   H16G13932   5.364   6.690   8.126 -0.0260  1.7556 -2.9837
  129OSM   C17F13933   5.181   6.766   8.238 -0.4462 -0.0409  0.6570
  129OSM   H17F13934   5.179   6.671   8.295  1.6449  1.2203  2.8917
  129OSM   H17G13935   5.080   6.800   8.206 -0.5094  0.6211  1.5393
  129OSM   C18F13936   5.252   6.875   8.329 -0.0686 -0.3387  0.3060
  129OSM   H18F13937   5.285   6.964   8.271  2.9855 -0.7910  1.2655
  129OSM   H18G13938   5.347   6.831   8.365 -0.3566 -1.8103 -0.6984
  129OSM   H18H13939   5.185   6.897   8.414 -0.9987  2.2884 -1.0443
  130OSM      N13940   1.256   1.556   6.003 -0.3977 -0.3443  0.0839
  130OSM    C1513941   1.114   1.548   5.972  0.7731  0.0182 -0.0163
  130OSM   H15A13942   1.089   1.598   5.879 -0.1339 -1.3825 -0.5614
  130OSM   H15B13943   1.056   1.590   6.053  1.1077 -1.6063  1.0996
  130OSM   H15C13944   1.081   1.446   5.957 -0.4134  0.5499 -1.0832
  130OSM    C1413945   1.296   1.705   5.969 -0.4908  0.2555  0.2484
  130OSM   H14A13946   1.244   1.724   5.876 -0.6234  1.9458  0.6451
  130OSM   H14B13947   1.402   1.722   5.956 -1.0113  2.4335 -1.4587
  130OSM   H14C13948   1.258   1.767   6.049  1.0289  1.0696  0.3531
  130OSM    C1313949   1.272   1.522   6.145 -0.8256  0.5335 -0.3285
  130OSM   H13A13950   1.366   1.561   6.183 -0.9330  1.4867 -1.0303
  130OSM   H13B13951   1.271   1.418   6.173  0.6072  0.2831 -1.1485
  130OSM   H13C13952   1.188   1.563   6.199 -1.9431 -2.8540  0.6107
  130OSM    C1213953   1.335   1.470   5.902  0.2657 -0.3490  0.2460
  130OSM   H12A13954   1.332   1.527   5.810  0.1354  2.3097  1.8314
  130OSM   H12B13955   1.291   1.373   5.883  1.6574 -0.9469  0.0782
  130OSM    C1113956   1.481   1.443   5.939  0.0847 -0.4795 -0.0685
  130OSM   H11A13957   1.535   1.533   5.976  3.4293 -2.1815 -0.5915
  130OSM   H11B13958   1.526   1.401   5.846  0.9794 -1.0730  0.6377
  130OSM      P13959   1.640   1.281   6.081 -0.1267  0.4382  0.0797
  130OSM    O1313960   1.615   1.153   6.152 -0.1903 -0.1625  0.2453
  130OSM    O1413961   1.729   1.278   5.964 -0.4582 -0.0372  0.7656
  130OSM    O1113962   1.704   1.383   6.182 -0.5162 -0.0832 -0.0732
  130OSM    O1213963   1.498   1.351   6.043  0.2627  0.3511 -0.0457
  130OSM    C1S13964   1.636   1.456   6.282 -0.0555 -0.1538  0.5654
  130OSM    H1S13965   1.526   1.445   6.271 -0.2323  0.2929  1.7852
  130OSM    H1T13966   1.667   1.562   6.277  2.0752 -0.8325 -1.8965
  130OSM     NF13967   1.594   1.472   6.522  0.1344  0.5471 -0.5339
  130OSM    HNF13968   1.627   1.558   6.561  0.5451 -0.1185  0.5753
  130OSM    C2S13969   1.677   1.403   6.427  0.4278 -0.1540 -0.8999
  130OSM    H2S13970   1.663   1.294   6.439 -2.0026  0.2397  0.2194
  130OSM    C3S13971   1.836   1.423   6.447  0.2667  0.4103 -0.1189
  130OSM    H3S13972   1.859   1.531   6.449  2.3513 -0.0480  2.1766
  130OSM     O313973   1.914   1.368   6.340  0.4166 -0.1823 -0.6862
  130OSM    HO313974   1.855   1.341   6.269  0.2965 -0.1537 -0.5959
  130OSM    C4S13975   1.872   1.371   6.582 -0.3568  0.1113 -0.2907
  130OSM    H4S13976   1.885   1.262   6.576 -0.0567  0.0738  0.9672
  130OSM    C5S13977   1.912   1.434   6.691  0.7940 -0.8443  0.1547
  130OSM    H5S13978   1.908   1.544   6.689  1.9096 -0.8108 -0.5315
  130OSM    C6S13979   1.965   1.372   6.813  0.6859  0.4658  0.0873
  130OSM    H6S13980   2.054   1.431   6.845  0.6170 -0.6402  2.4196
  130OSM    H6T13981   1.993   1.267   6.790 -1.7455 -0.0394 -0.6839
  130OSM    C7S13982   1.865   1.383   6.928  0.3178  0.0474 -0.4335
  130OSM    H7S13983   1.774   1.329   6.895  0.9209 -0.2546 -1.6342
  130OSM    H7T13984   1.838   1.490   6.941  1.0824  0.3534 -1.3192
  130OSM    C8S13985   1.916   1.321   7.058 -0.7642 -0.2225  0.0040
  130OSM    H8S13986   2.026   1.325   7.072 -0.5896  1.9663 -1.8174
  130OSM    H8T13987   1.887   1.214   7.070  1.7721 -1.1851 -2.0520
  130OSM    C9S13988   1.856   1.377   7.185 -0.3599  0.7138  0.2635
  130OSM    H9S13989   1.748   1.394   7.164 -0.5322  1.1112  1.3730
  130OSM    H9T13990   1.899   1.476   7.215  0.2489  0.3573  0.5746
  130OSM   C10S13991   1.861   1.273   7.297 -0.2921  0.1918  0.2945
  130OSM   H10S13992   1.963   1.238   7.324 -1.2133 -1.0379  2.2903
  130OSM   H10T13993   1.790   1.188   7.292 -0.3857  0.1531  1.9890
  130OSM   C11S13994   1.830   1.349   7.430 -0.5403 -0.2048 -0.4203
  130OSM   H11S13995   1.723   1.376   7.421 -1.3103 -2.3976  1.3639
  130OSM   H11T13996   1.886   1.443   7.447 -2.5826  1.1505 -1.0129
  130OSM   C12S13997   1.852   1.265   7.552 -0.4033  0.2215 -0.9432
  130OSM   H12S13998   1.962   1.247   7.559 -0.7109 -1.6201 -0.4743
  130OSM   H12T13999   1.808   1.163   7.546  0.7815 -0.3119 -0.8287
  130OSM   C13S14000   1.799   1.330   7.678  0.5120  0.0303 -0.3936
  130OSM   H13S14001   1.691   1.358   7.671  0.6385  0.0927 -2.2316
  130OSM   H13T14002   1.856   1.424   7.694  3.2859 -1.5483 -0.7334
  130OSM   C14S14003   1.808   1.250   7.809 -0.0529 -0.1160 -0.0162
  130OSM   H14S14004   1.908   1.205   7.827  0.4337  1.4442  1.3206
  130OSM   H14T14005   1.732   1.169   7.814  0.2560 -0.3176  2.4948
  130OSM   C15S14006   1.789   1.344   7.937 -0.0951 -0.1235 -0.4388
  130OSM   H15S14007   1.689   1.386   7.916 -1.2408 -2.5228 -0.0101
  130OSM   H15T14008   1.861   1.428   7.938  1.0967 -1.1327  0.2864
  130OSM   C16S14009   1.790   1.258   8.065 -0.5697 -0.2820 -0.2820
  130OSM   H16S14010   1.869   1.180   8.063  0.0215  0.2385  1.3745
  130OSM   H16T14011   1.696   1.200   8.071 -0.8219  0.3467  2.4472
  130OSM   C17S14012   1.824   1.342   8.186 -0.0242  0.2617  0.1083
  130OSM   H17S14013   1.765   1.435   8.180 -0.5670 -0.1341 -0.6556
  130OSM   H17T14014   1.925   1.384   8.164 -0.3988  0.2630 -1.6746
  130OSM   C18S14015   1.824   1.284   8.332  0.5428  0.3623  0.0492
  130OSM   H18S14016   1.882   1.190   8.346 -1.5480 -0.7748  1.3406
  130OSM   H18T14017   1.719   1.267   8.364 -0.4777  0.3035 -3.1635
  130OSM   H18U14018   1.876   1.361   8.394  3.8164 -1.3884 -0.4281
  130OSM    C1F14019   1.474   1.437   6.544  0.4971 -0.2076 -0.1168
  130OSM     OF14020   1.439   1.330   6.499 -0.4420  0.3630 -0.3548
  130OSM    C2F14021   1.384   1.528   6.625 -0.3286  0.1327 -0.3661
  130OSM    H2F14022   1.439   1.625   6.636 -1.3416  0.5686  0.9840
  130OSM    H2G14023   1.363   1.486   6.725  2.5440  0.0224  0.2221
  130OSM    C3F14024   1.247   1.556   6.556  0.2036 -0.2780  0.1907
  130OSM    H3F14025   1.265   1.583   6.449  2.2204  0.0413  0.6028
  130OSM    H3G14026   1.199   1.643   6.606  4.4342  3.2215 -1.5627
  130OSM    C4F14027   1.150   1.433   6.554 -0.0191  0.3756  0.0667
  130OSM    H4F14028   1.190   1.347   6.497  1.4641  0.7954  0.4387
  130OSM    H4G14029   1.058   1.475   6.508 -0.8186 -1.8095 -0.3702
  130OSM    C5F14030   1.096   1.394   6.697  0.1159  0.7980 -0.3183
  130OSM    H5F14031   1.066   1.483   6.756  0.9253  0.2043  0.9924
  130OSM    H5G14032   1.186   1.364   6.755  1.3730  0.0519 -2.5877
  130OSM    C6F14033   0.995   1.283   6.692  0.2857  0.0039  0.5048
  130OSM    H6F14034   0.996   1.215   6.604  0.2056  1.8925 -1.0089
  130OSM    H6G14035   0.900   1.340   6.682  0.7724  0.4636 -2.0457
  130OSM    C7F14036   0.995   1.206   6.821 -0.1671  1.3273  0.4242
  130OSM    H7F14037   0.928   1.250   6.899 -1.6757  0.1496 -0.1833
  130OSM    H7G14038   1.098   1.193   6.861 -1.1190 -0.4524  2.4281
  130OSM    C8F14039   0.945   1.059   6.800 -0.3225 -0.6235 -0.4505
  130OSM    H8F14040   1.009   1.018   6.718  1.8495 -0.1695  0.9848
  130OSM    H8G14041   0.843   1.059   6.756 -0.0732 -0.1946 -1.0366
  130OSM    C9F14042   0.959   0.971   6.922  0.1196  0.7930 -0.0557
  130OSM    H9F14043   1.043   0.900   6.914  0.6335  1.2754  1.0532
  130OSM   C10F14044   0.877   0.974   7.033 -0.7068 -0.4015 -0.2099
  130OSM   H10F14045   0.887   0.891   7.105 -0.0634  1.8301  2.3835
  130OSM   C11F14046   0.763   1.074   7.039 -0.0757  0.0228  0.0057
  130OSM   H11F14047   0.664   1.030   7.065 -0.7579  1.1480 -0.6397
  130OSM   H11G14048   0.744   1.126   6.943 -0.4243 -0.7640 -0.3574
  130OSM   C12F14049   0.805   1.184   7.141  0.1961 -0.2386  0.1299
  130OSM   H12F14050   0.713   1.245   7.154  0.7141  0.5121  0.3092
  130OSM   H12G14051   0.891   1.248   7.113  1.0657 -0.7590  1.5450
  130OSM   C13F14052   0.841   1.136   7.283  0.1300 -0.7231  0.1789
  130OSM   H13F14053   0.945   1.101   7.302  0.3853  1.4919  3.2136
  130OSM   H13G14054   0.773   1.050   7.300 -0.7192  0.2988  2.0548
  130OSM   C14F14055   0.818   1.226   7.404  0.0770  0.7134 -0.1773
  130OSM   H14F14056   0.712   1.255   7.416  0.6036  1.4012  3.2107
  130OSM   H14G14057   0.888   1.312   7.399  2.0406 -0.6676  2.2042
  130OSM   C15F14058   0.850   1.164   7.538 -0.5526  0.1302 -0.1882
  130OSM   H15F14059   0.922   1.082   7.517 -2.0819 -0.5894 -2.9164
  130OSM   H15G14060   0.760   1.108   7.573  0.2573 -1.7834 -1.1161
  130OSM   C16F14061   0.907   1.261   7.637 -0.5959  0.0124  0.1786
  130OSM   H16F14062   0.850   1.355   7.652  0.2420  0.3624  1.1848
  130OSM   H16G14063   0.996   1.316   7.600  0.5288 -1.4571  0.6574
  130OSM   C17F14064   0.948   1.203   7.770 -0.2952  0.4826 -0.1255
  130OSM   H17F14065   1.009   1.111   7.752 -0.2450  0.9804 -2.7016
  130OSM   H17G14066   0.864   1.154   7.824  0.3406  1.0736  1.4495
  130OSM   C18F14067   1.012   1.290   7.880  0.5204  0.0437  0.0603
  130OSM   H18F14068   1.066   1.230   7.956 -0.2866 -0.5075  0.2151
  130OSM   H18G14069   0.919   1.331   7.925  0.5375  0.3402 -0.1756
  130OSM   H18H14070   1.084   1.365   7.843 -0.9643  1.1435 -0.6696
  131OSM      N14071   5.505   4.476   5.984 -0.3563  0.7377 -0.2511
  131OSM    C1514072   5.437   4.553   6.092 -0.0053  0.0833 -0.4558
  131OSM   H15A14073   5.385   4.643   6.064  0.9927  0.5941 -0.6759
  131OSM   H15B14074   5.504   4.577   6.174 -0.0829  0.2235 -0.4328
  131OSM   H15C14075   5.363   4.491   6.141  1.5429 -2.3252 -1.0673
  131OSM    C1414076   5.389   4.414   5.907 -0.5179  0.1443  0.0567
  131OSM   H14A14077   5.418   4.356   5.821 -3.5800 -1.2615 -0.1025
  131OSM   H14B14078   5.329   4.494   5.868  2.0550  2.3367  0.4984
  131OSM   H14C14079   5.321   4.356   5.968  0.1668  0.4697  1.1530
  131OSM    C1314080   5.579   4.576   5.899 -0.2389  0.3049 -0.0701
  131OSM   H13A14081   5.646   4.628   5.966  0.8282 -0.5767 -0.4420
  131OSM   H13B14082   5.513   4.650   5.856 -1.4934  0.0465  1.3621
  131OSM   H13C14083   5.635   4.535   5.817  0.1695  2.4276 -0.8878
  131OSM    C1214084   5.592   4.372   6.043 -0.0262  0.0197 -0.3354
  131OSM   H12A14085   5.643   4.324   5.962 -0.1915 -1.0553  0.1860
  131OSM   H12B14086   5.531   4.296   6.089 -0.5819 -0.0786 -1.2276
  131OSM    C1114087   5.700   4.413   6.144  0.1300 -0.8473  0.1448
  131OSM   H11A14088   5.723   4.318   6.198 -0.7926 -1.0286  0.2281
  131OSM   H11B14089   5.658   4.476   6.226 -0.3526 -0.1460 -0.6324
  131OSM      P14090   5.927   4.382   6.015  0.2693  0.5205 -0.1335
  131OSM    O1314091   5.866   4.246   5.999  0.0378 -0.0371 -0.5998
  131OSM    O1414092   5.996   4.450   5.903 -0.3798  0.0361 -0.0053
  131OSM    O1114093   6.040   4.363   6.130  0.2688  0.4570  0.4367
  131OSM    O1214094   5.816   4.474   6.088 -0.2175  0.0444 -0.3505
  131OSM    C1S14095   6.031   4.433   6.250  0.2990 -0.3670 -0.7073
  131OSM    H1S14096   5.941   4.401   6.306 -1.1630  2.2417 -1.4668
  131OSM    H1T14097   6.023   4.540   6.223 -0.2100 -0.1662  0.2222
  131OSM     NF14098   6.141   4.497   6.462 -0.2406 -0.4658 -0.1437
  131OSM    HNF14099   6.191   4.583   6.471 -1.3340  0.0950  0.6746
  131OSM    C2S14100   6.155   4.414   6.338  0.1354  0.0097 -0.3980
  131OSM    H2S14101   6.165   4.307   6.363  0.6991  0.4709  1.4275
  131OSM    C3S14102   6.287   4.449   6.260  0.5428 -0.3356 -1.0317
  131OSM    H3S14103   6.295   4.558   6.244 -1.2606  0.2542  1.8221
  131OSM     O314104   6.288   4.395   6.129  0.4575 -0.5549 -0.2852
  131OSM    HO314105   6.197   4.398   6.098 -0.5652  0.0143  2.6047
  131OSM    C4S14106   6.402   4.388   6.324 -0.8060 -0.3839  0.2061
  131OSM    H4S14107   6.406   4.280   6.305 -1.4921 -0.0373 -2.0765
  131OSM    C5S14108   6.502   4.452   6.388  0.3704  0.3904 -0.1678
  131OSM    H5S14109   6.509   4.562   6.395  5.2499  0.2108 -0.4650
  131OSM    C6S14110   6.625   4.382   6.445 -0.7082 -0.1802 -0.4832
  131OSM    H6S14111   6.662   4.449   6.525 -0.1207 -3.0686  1.7545
  131OSM    H6T14112   6.697   4.385   6.360 -0.0734 -0.6317  0.0342
  131OSM    C7S14113   6.607   4.239   6.500 -0.3534 -1.1132  0.3004
  131OSM    H7S14114   6.709   4.201   6.522 -1.0222 -3.2909 -0.2132
  131OSM    H7T14115   6.565   4.176   6.418 -2.0391 -0.7552  0.8661
  131OSM    C8S14116   6.520   4.233   6.619 -0.1993  0.6089 -0.4309
  131OSM    H8S14117   6.417   4.234   6.577 -0.4994 -0.9530  0.2350
  131OSM    H8T14118   6.528   4.328   6.675  1.4709  0.2867 -0.1142
  131OSM    C9S14119   6.542   4.114   6.713  0.0786  0.1508 -0.3002
  131OSM    H9S14120   6.643   4.134   6.754 -0.5552  1.9404  0.4636
  131OSM    H9T14121   6.550   4.023   6.650  0.4135  0.4336 -0.6671
  131OSM   C10S14122   6.449   4.084   6.828 -0.3578  0.0333  0.3491
  131OSM   H10S14123   6.345   4.073   6.790 -0.4605 -1.8198  1.0958
  131OSM   H10T14124   6.460   4.168   6.899 -2.0060 -0.5126  1.2798
  131OSM   C11S14125   6.495   3.955   6.899  0.1425 -0.1951 -0.3386
  131OSM   H11S14126   6.520   3.864   6.840  1.4124 -1.2271  1.6989
  131OSM   H11T14127   6.416   3.934   6.975 -2.0448 -1.4137 -2.8738
  131OSM   C12S14128   6.612   3.975   7.005  0.0206  0.2542 -0.6495
  131OSM   H12S14129   6.578   4.066   7.059 -2.8581 -0.1950 -1.6343
  131OSM   H12T14130   6.706   3.988   6.947  0.0625  0.5581 -0.5173
  131OSM   C13S14131   6.613   3.871   7.119  0.0623 -0.7132 -0.1722
  131OSM   H13S14132   6.636   3.770   7.080 -2.3105 -0.3667 -2.6806
  131OSM   H13T14133   6.512   3.856   7.163  0.0645 -0.7287 -0.1727
  131OSM   C14S14134   6.713   3.925   7.223  0.0764 -0.1815 -0.2218
  131OSM   H14S14135   6.705   4.035   7.239 -2.0956  0.0164 -2.4676
  131OSM   H14T14136   6.815   3.910   7.183  1.4606  3.1520  1.8207
  131OSM   C15S14137   6.700   3.869   7.364  0.6475  0.5620 -0.9821
  131OSM   H15S14138   6.678   3.760   7.354 -2.0177  0.8689  0.8952
  131OSM   H15T14139   6.611   3.907   7.418  0.6666 -1.4547  0.5324
  131OSM   C16S14140   6.822   3.906   7.444 -0.0829  0.7916  0.2879
  131OSM   H16S14141   6.817   4.017   7.444 -1.3642  0.7427 -1.1105
  131OSM   H16T14142   6.914   3.872   7.391 -0.2086 -0.0692  0.6073
  131OSM   C17S14143   6.818   3.842   7.581  0.1950 -0.2662 -0.3816
  131OSM   H17S14144   6.718   3.863   7.623  0.3345 -0.8244  0.2442
  131OSM   H17T14145   6.898   3.896   7.635  0.0262 -1.7556  1.4142
  131OSM   C18S14146   6.843   3.690   7.580  0.1853 -0.5218  0.2737
  131OSM   H18S14147   6.930   3.669   7.514  1.5782  0.9291  1.6096
  131OSM   H18T14148   6.751   3.638   7.545 -0.3821  1.0036 -0.5977
  131OSM   H18U14149   6.868   3.663   7.684 -2.5763 -0.1439  1.0792
  131OSM    C1F14150   6.052   4.453   6.551  0.6611  0.0525 -0.2018
  131OSM     OF14151   6.002   4.340   6.545 -0.1049 -0.0154  0.1113
  131OSM    C2F14152   6.019   4.550   6.665  0.0240 -0.5685 -0.1372
  131OSM    H2F14153   5.940   4.617   6.626  2.1950  0.6071 -2.6687
  131OSM    H2G14154   6.113   4.607   6.680  0.3984 -0.2420 -3.4041
  131OSM    C3F14155   5.985   4.482   6.802  0.4144 -0.3128  0.1219
  131OSM    H3F14156   5.885   4.436   6.786  1.3961 -2.6940  0.6828
  131OSM    H3G14157   5.969   4.562   6.878 -0.1138 -0.0383 -0.2708
  131OSM    C4F14158   6.087   4.385   6.862 -0.6344 -1.1456  0.6894
  131OSM    H4F14159   6.172   4.446   6.899 -0.7850 -0.9576  0.7192
  131OSM    H4G14160   6.114   4.320   6.775 -0.9221  0.5196 -0.6628
  131OSM    C5F14161   6.054   4.297   6.986 -0.0545 -0.0662 -0.2794
  131OSM    H5F14162   5.981   4.228   6.937  0.4020 -0.6456 -0.1441
  131OSM    H5G14163   6.017   4.367   7.063  0.8496  1.4651 -1.1987
  131OSM    C6F14164   6.178   4.221   7.038  0.1500  0.7411 -0.0603
  131OSM    H6F14165   6.260   4.293   7.056  0.2294  1.2613 -2.3203
  131OSM    H6G14166   6.220   4.152   6.961 -0.3985 -0.0960  0.3889
  131OSM    C7F14167   6.146   4.160   7.173  0.1471  0.0123  0.6604
  131OSM    H7F14168   6.062   4.089   7.157 -1.9427  2.3464  0.8905
  131OSM    H7G14169   6.107   4.246   7.231  1.3601  1.3335 -0.4476
  131OSM    C8F14170   6.260   4.097   7.254 -0.3877  0.4153 -0.4325
  131OSM    H8F14171   6.305   4.016   7.193  0.7947  0.0971  0.8347
  131OSM    H8G14172   6.224   4.054   7.349 -1.1961  0.1584 -0.8463
  131OSM    C9F14173   6.369   4.188   7.296  1.4231  0.2389  1.3527
  131OSM    H9F14174   6.461   4.204   7.238  2.5692  1.0794  3.3422
  131OSM   C10F14175   6.351   4.271   7.394 -0.3212  0.3950 -0.5788
  131OSM   H10F14176   6.433   4.342   7.413 -0.7954  0.5859  0.8523
  131OSM   C11F14177   6.229   4.299   7.481 -0.0120 -0.0416 -0.4395
  131OSM   H11F14178   6.164   4.211   7.500 -0.6739  0.5502  0.1097
  131OSM   H11G14179   6.160   4.372   7.434 -0.7799 -0.4493  0.0326
  131OSM   C12F14180   6.279   4.339   7.619  0.1759 -0.0546 -0.5593
  131OSM   H12F14181   6.347   4.425   7.600  0.0351  0.1024 -0.3567
  131OSM   H12G14182   6.337   4.258   7.669  2.7605  1.0936 -1.6224
  131OSM   C13F14183   6.163   4.376   7.710 -0.1800 -0.1019  0.0845
  131OSM   H13F14184   6.097   4.290   7.736  0.6866 -0.4832  1.0271
  131OSM   H13G14185   6.103   4.442   7.643 -0.7830 -0.2249  0.4903
  131OSM   C14F14186   6.202   4.444   7.841 -0.4408 -0.2993 -0.7641
  131OSM   H14F14187   6.105   4.480   7.881  0.8174  3.2092 -0.6630
  131OSM   H14G14188   6.263   4.532   7.810 -0.4875 -0.4436 -1.2646
  131OSM   C15F14189   6.283   4.354   7.928  0.6840  0.5382  0.1842
  131OSM   H15F14190   6.308   4.412   8.019  2.9878  1.6629 -1.1123
  131OSM   H15G14191   6.379   4.321   7.882  1.2070  0.0806  1.6006
  131OSM   C16F14192   6.208   4.231   7.984 -0.2883 -0.1149  0.4721
  131OSM   H16F14193   6.288   4.178   8.039  0.4924  0.9701  0.4192
  131OSM   H16G14194   6.181   4.155   7.908 -0.6035  1.4313 -1.0093
  131OSM   C17F14195   6.093   4.269   8.073 -0.6732 -0.4643 -0.3036
  131OSM   H17F14196   6.015   4.326   8.018 -0.1055  1.2257  0.5828
  131OSM   H17G14197   6.124   4.325   8.164 -1.5757 -0.0970 -0.2124
  131OSM   C18F14198   6.012   4.153   8.139 -0.0250 -0.9340  1.1859
  131OSM   H18F14199   5.948   4.209   8.210  2.4788  1.8615  1.3699
  131OSM   H18G14200   6.065   4.075   8.198 -0.1968  0.0058  2.6128
  131OSM   H18H14201   5.962   4.096   8.058  1.0385  0.4572 -0.4867
  132OSM      N14202   0.339   5.305   6.359  0.0189 -0.2953  0.4290
  132OSM    C1514203   0.192   5.322   6.353  0.3005  0.3757 -0.2146
  132OSM   H15A14204   0.155   5.399   6.287  1.9239  0.4040 -1.1041
  132OSM   H15B14205   0.155   5.341   6.453  0.0316 -1.5888  0.0908
  132OSM   H15C14206   0.142   5.230   6.325  1.4742 -0.6406  0.9233
  132OSM    C1414207   0.398   5.415   6.437  0.1744 -0.8273 -0.6337
  132OSM   H14A14208   0.503   5.396   6.452  0.9441  3.0779 -0.4961
  132OSM   H14B14209   0.354   5.438   6.532 -1.7431 -0.0695 -1.6758
  132OSM   H14C14210   0.400   5.500   6.370  0.4327  0.6620  1.2255
  132OSM    C1314211   0.383   5.175   6.429  0.6085 -0.5716  0.1793
  132OSM   H13A14212   0.369   5.175   6.536 -1.1591  0.9705 -0.0326
  132OSM   H13B14213   0.490   5.157   6.419  1.2351  2.6882  0.4885
  132OSM   H13C14214   0.339   5.089   6.381  2.4437 -1.3851 -0.1046
  132OSM    C1214215   0.407   5.301   6.225 -0.1454 -0.0698  0.9416
  132OSM   H12A14216   0.387   5.393   6.173  1.0316 -0.6773 -0.6466
  132OSM   H12B14217   0.358   5.225   6.167 -2.3450  0.3882  2.1613
  132OSM    C1114218   0.555   5.275   6.217 -0.5223  0.1548 -0.2157
  132OSM   H11A14219   0.588   5.297   6.113  0.0958  0.6122  0.0711
  132OSM   H11B14220   0.563   5.167   6.240  0.2986  0.1094 -0.6849
  132OSM      P14221   0.790   5.342   6.296  0.0166  0.0873 -0.5400
  132OSM    O1314222   0.820   5.206   6.242 -0.1797 -0.6068  0.3419
  132OSM    O1414223   0.841   5.457   6.212  0.3140  0.2558  0.8226
  132OSM    O1114224   0.847   5.367   6.442  0.2147 -0.3654  0.2194
  132OSM    O1214225   0.634   5.352   6.311  0.2998  0.1139  0.1216
  132OSM    C1S14226   0.777   5.317   6.559  0.0483 -0.4019 -0.2353
  132OSM    H1S14227   0.823   5.221   6.590 -0.4243 -0.6248 -0.2287
  132OSM    H1T14228   0.670   5.294   6.542 -0.2368  1.1406 -0.6134
  132OSM     NF14229   0.738   5.365   6.796 -0.6348 -0.4526 -0.7337
  132OSM    HNF14230   0.641   5.352   6.816 -0.8177 -3.7677 -3.3766
  132OSM    C2S14231   0.777   5.425   6.674  0.3266  0.1587 -0.6148
  132OSM    H2S14232   0.884   5.454   6.687 -0.1390  0.9266  1.6768
  132OSM    C3S14233   0.700   5.553   6.641  0.1644  0.4588 -0.0766
  132OSM    H3S14234   0.591   5.534   6.649 -0.0013  1.1926 -0.6481
  132OSM     O314235   0.690   5.597   6.505 -0.0476  0.5332  0.6460
  132OSM    HO314236   0.738   5.528   6.457  0.9985  1.0935  0.8693
  132OSM    C4S14237   0.746   5.664   6.728  0.6892  0.5791 -0.7266
  132OSM    H4S14238   0.680   5.690   6.812  1.0841  0.6204 -0.4306
  132OSM    C5S14239   0.856   5.741   6.706 -0.1107 -0.1143 -0.1819
  132OSM    H5S14240   0.939   5.711   6.640  0.5525 -1.4688  1.2420
  132OSM    C6S14241   0.890   5.860   6.798 -0.9541 -0.4649 -0.4430
  132OSM    H6S14242   0.847   5.950   6.751 -1.5786 -0.9423 -0.8028
  132OSM    H6T14243   0.999   5.874   6.811 -1.2485  2.3214 -0.8088
  132OSM    C7S14244   0.825   5.852   6.940  0.0894  0.5878  0.7053
  132OSM    H7S14245   0.835   5.746   6.974  0.4394  0.3275 -0.1736
  132OSM    H7T14246   0.715   5.866   6.938 -0.1305 -0.7282 -4.4460
  132OSM    C8S14247   0.882   5.939   7.049  0.1181 -0.0578 -0.6651
  132OSM    H8S14248   0.887   6.040   7.004 -0.1729 -0.2842 -1.2109
  132OSM    H8T14249   0.985   5.910   7.082 -0.6106 -1.2542  0.6031
  132OSM    C9S14250   0.799   5.929   7.181 -0.0848 -0.3465  0.6985
  132OSM    H9S14251   0.777   5.828   7.220  0.7187 -1.2127 -1.0362
  132OSM    H9T14252   0.697   5.966   7.159 -0.0588 -0.2820  0.6847
  132OSM   C10S14253   0.859   6.006   7.299  0.1435  0.7036 -0.3604
  132OSM   H10S14254   0.896   6.105   7.264 -2.2752  1.1970 -1.5899
  132OSM   H10T14255   0.952   5.957   7.336 -1.7089 -4.9226 -2.5682
  132OSM   C11S14256   0.766   6.018   7.425 -0.3279  0.1553 -0.4478
  132OSM   H11S14257   0.727   5.916   7.446 -2.5641  1.1078  0.2381
  132OSM   H11T14258   0.688   6.092   7.393  0.9658  1.6474 -0.2022
  132OSM   C12S14259   0.835   6.073   7.547 -0.0276  0.3903 -0.6193
  132OSM   H12S14260   0.863   6.176   7.515  0.2221 -0.0974 -1.9624
  132OSM   H12T14261   0.918   6.012   7.587 -0.3149 -0.0477 -0.6893
  132OSM   C13S14262   0.744   6.106   7.662 -0.0474 -0.2672  0.5964
  132OSM   H13S14263   0.650   6.156   7.628 -0.2746 -1.8303 -1.1539
  132OSM   H13T14264   0.797   6.170   7.736 -1.9128  2.4499 -0.3211
  132OSM   C14S14265   0.717   5.971   7.735  0.3207 -0.3872  0.4552
  132OSM   H14S14266   0.808   5.908   7.750 -0.4886 -1.6919 -0.0213
  132OSM   H14T14267   0.646   5.904   7.682 -0.2929 -1.1545  2.2002
  132OSM   C15S14268   0.647   6.006   7.870 -0.3876  0.7636 -0.8733
  132OSM   H15S14269   0.604   5.909   7.904 -0.0359  0.6916 -0.6360
  132OSM   H15T14270   0.563   6.077   7.856 -1.6702 -0.6266 -0.3993
  132OSM   C16S14271   0.743   6.054   7.985  0.4063  0.3312  0.8861
  132OSM   H16S14272   0.782   6.157   7.968 -0.6304  0.6278  0.2845
  132OSM   H16T14273   0.831   5.987   7.993  0.3473 -0.0137 -1.0800
  132OSM   C17S14274   0.671   6.069   8.120  0.2148 -0.0284  0.1774
  132OSM   H17S14275   0.728   6.041   8.212  0.4826 -0.8011 -0.2167
  132OSM   H17T14276   0.600   5.984   8.117 -0.2989  0.3729  0.8150
  132OSM   C18S14277   0.594   6.198   8.142  0.0109  0.6521  0.3251
  132OSM   H18S14278   0.666   6.282   8.132 -0.5357  0.9143 -1.4943
  132OSM   H18T14279   0.530   6.201   8.233 -0.7381  1.0455 -0.2184
  132OSM   H18U14280   0.523   6.212   8.059  1.0026 -1.2665 -0.8810
  132OSM    C1F14281   0.824   5.295   6.865 -0.4230 -0.6077 -0.3380
  132OSM     OF14282   0.936   5.285   6.835 -0.0427  0.1235  0.3117
  132OSM    C2F14283   0.760   5.210   6.974 -0.2064 -0.4045 -0.6821
  132OSM    H2F14284   0.682   5.144   6.930 -1.5842  1.9855 -1.9167
  132OSM    H2G14285   0.709   5.277   7.047  3.1292  1.0140  0.4820
  132OSM    C3F14286   0.860   5.117   7.048 -0.5842 -0.2768  0.9379
  132OSM    H3F14287   0.956   5.171   7.063 -0.7742 -0.0084  1.1977
  132OSM    H3G14288   0.888   5.029   6.987  0.6217 -1.4679  3.1209
  132OSM    C4F14289   0.804   5.061   7.184 -0.2742  0.4038 -0.2776
  132OSM    H4F14290   0.696   5.044   7.160 -0.0614  0.7250 -1.5254
  132OSM    H4G14291   0.810   5.146   7.256  1.4866  0.0735 -0.0170
  132OSM    C5F14292   0.872   4.933   7.237 -0.2534  0.0501  0.4708
  132OSM    H5F14293   0.971   4.925   7.188 -0.5363 -0.9669  0.0397
  132OSM    H5G14294   0.817   4.844   7.200 -1.7551  1.0937  0.1379
  132OSM    C6F14295   0.905   4.938   7.393 -0.1663 -0.7042  0.4155
  132OSM    H6F14296   0.956   5.036   7.404  0.0949 -0.6743 -0.9463
  132OSM    H6G14297   0.968   4.856   7.431  0.5475 -0.7832 -0.9227
  132OSM    C7F14298   0.778   4.961   7.468  0.8367 -0.2385  0.5773
  132OSM    H7F14299   0.715   4.870   7.467 -0.5714  0.6749  2.1729
  132OSM    H7G14300   0.729   5.048   7.419 -0.8310 -1.3537  0.2015
  132OSM    C8F14301   0.813   5.008   7.611  0.7060 -0.1268  0.8652
  132OSM    H8F14302   0.717   5.049   7.650 -0.9054 -3.3891  0.4969
  132OSM    H8G14303   0.877   5.099   7.617 -1.0934  1.4398 -2.0393
  132OSM    C9F14304   0.882   4.909   7.704 -1.0002  0.5585 -0.6401
  132OSM    H9F14305   0.988   4.894   7.682 -0.5845 -0.4481  1.9232
  132OSM   C10F14306   0.825   4.826   7.789  0.5448 -0.0219  0.5072
  132OSM   H10F14307   0.882   4.751   7.845 -0.3039 -0.0791  1.3036
  132OSM   C11F14308   0.680   4.824   7.816 -0.6407 -0.0480  0.2680
  132OSM   H11F14309   0.642   4.722   7.839  0.7852 -0.6512 -0.0520
  132OSM   H11G14310   0.624   4.872   7.733  0.5305 -1.4062 -1.3217
  132OSM   C12F14311   0.659   4.917   7.942 -0.1363  0.3162  0.3569
  132OSM   H12F14312   0.548   4.919   7.940 -0.1719 -1.1872  0.5742
  132OSM   H12G14313   0.698   5.018   7.915  1.3926 -0.6825 -1.2497
  132OSM   C13F14314   0.713   4.847   8.064  0.0425 -0.4832  0.4922
  132OSM   H13F14315   0.824   4.849   8.065  0.0352  0.8882 -0.3616
  132OSM   H13G14316   0.680   4.741   8.052  1.0720 -0.8126  0.5735
  132OSM   C14F14317   0.663   4.900   8.204 -0.3787  0.4238 -0.1751
  132OSM   H14F14318   0.555   4.880   8.217 -0.6465  1.6809 -0.3954
  132OSM   H14G14319   0.682   5.009   8.209 -2.0712  0.6962  0.4070
  132OSM   C15F14320   0.741   4.836   8.321  0.2413  0.0523  0.3569
  132OSM   H15F14321   0.847   4.813   8.298  0.5878  0.3052  1.6631
  132OSM   H15G14322   0.703   4.733   8.339  1.7857 -0.3411  1.3779
  132OSM   C16F14323   0.737   4.927   8.443  0.5410  0.0107 -0.2621
  132OSM   H16F14324   0.632   4.949   8.471  0.1551 -0.6827 -1.1039
  132OSM   H16G14325   0.784   5.024   8.419 -1.3662  0.8710 -0.6177
  132OSM   C17F14326   0.794   4.870   8.570 -0.8418  0.0961  0.0172
  132OSM   H17F14327   0.772   4.945   8.648 -0.5369  0.0737  0.1256
  132OSM   H17G14328   0.903   4.860   8.549 -0.9760  0.1169 -0.6987
  132OSM   C18F14329   0.730   4.735   8.592 -0.3590 -0.0967  0.1318
  132OSM   H18F14330   0.619   4.737   8.579 -0.2506 -0.0031 -0.7854
  132OSM   H18G14331   0.733   4.709   8.700 -1.7194  1.9000  0.6784
  132OSM   H18H14332   0.769   4.643   8.545 -0.5872 -0.1763  0.0964
  133OSM      N14333   1.346   5.462   5.897 -0.6566 -0.2096  0.7257
  133OSM    C1514334   1.360   5.316   5.878 -0.6704 -0.4523 -0.2032
  133OSM   H15A14335   1.457   5.286   5.916 -0.6443 -0.8435 -0.5717
  133OSM   H15B14336   1.362   5.288   5.774  1.1828 -0.2083 -0.2451
  133OSM   H15C14337   1.286   5.258   5.932  0.2075 -2.8875 -1.5582
  133OSM    C1414338   1.471   5.520   5.830 -0.1811 -0.3046 -0.2805
  133OSM   H14A14339   1.466   5.627   5.837  0.4029 -0.3267  0.5331
  133OSM   H14B14340   1.479   5.501   5.724 -1.7992  0.6181 -0.5803
  133OSM   H14C14341   1.560   5.485   5.880 -0.4668 -0.1841  0.3101
  133OSM    C1314342   1.229   5.507   5.822 -0.4363  0.2035 -0.4710
  133OSM   H13A14343   1.227   5.615   5.826  2.1918  0.2431  1.0780
  133OSM   H13B14344   1.147   5.454   5.868 -0.2211  2.5338  2.7460
  133OSM   H13C14345   1.232   5.485   5.716 -2.1131 -2.7633  0.0481
  133OSM    C1214346   1.327   5.504   6.044 -0.2497  0.2174 -0.0459
  133OSM   H12A14347   1.321   5.611   6.041  1.1512  0.3341  0.9962
  133OSM   H12B14348   1.424   5.483   6.086 -1.3503 -0.2218  2.4037
  133OSM    C1114349   1.226   5.427   6.134  0.1174  0.4705 -0.4907
  133OSM   H11A14350   1.127   5.446   6.087  0.4453  0.1984 -1.2951
  133OSM   H11B14351   1.218   5.470   6.236  0.5367  1.0061 -0.6749
  133OSM      P14352   1.375   5.228   6.219 -0.0915  0.3863  0.0138
  133OSM    O1314353   1.387   5.085   6.196  0.3005  0.6264  0.0667
  133OSM    O1414354   1.497   5.308   6.177 -0.3327  0.0191  0.0470
  133OSM    O1114355   1.341   5.256   6.369 -0.5011  0.0715  0.3208
  133OSM    O1214356   1.245   5.279   6.134 -0.2182 -0.0068 -0.5487
  133OSM    C1S14357   1.218   5.212   6.429  0.4829  0.6573  0.0460
  133OSM    H1S14358   1.214   5.101   6.433 -2.0291  0.6138 -2.2037
  133OSM    H1T14359   1.129   5.245   6.372  0.9904 -0.6635 -1.5436
  133OSM     NF14360   1.111   5.189   6.645  0.4774 -0.2898 -0.1480
  133OSM    HNF14361   1.016   5.204   6.669 -0.5270 -2.2043 -2.7451
  133OSM    C2S14362   1.199   5.273   6.572 -0.1230 -0.4804 -0.4217
  133OSM    H2S14363   1.296   5.287   6.624  0.5016  0.7596 -1.8599
  133OSM    C3S14364   1.158   5.420   6.554 -0.2995  0.6958 -0.5043
  133OSM    H3S14365   1.056   5.431   6.510 -0.1540  1.8948 -0.5457
  133OSM     O314366   1.238   5.496   6.464 -0.2812 -0.6976 -0.3537
  133OSM    HO314367   1.294   5.432   6.419  1.0762  0.7812 -0.8339
  133OSM    C4S14368   1.145   5.489   6.686  0.7680 -0.3291 -0.0914
  133OSM    H4S14369   1.060   5.458   6.749 -0.0688 -4.9991 -3.3636
  133OSM    C5S14370   1.234   5.559   6.752  0.3456 -0.1090 -0.0101
  133OSM    H5S14371   1.331   5.579   6.704  0.5812 -0.3216  0.3690
  133OSM    C6S14372   1.234   5.615   6.890 -0.3539 -0.1089 -0.0224
  133OSM    H6S14373   1.219   5.724   6.878 -2.1580 -0.2934  0.3838
  133OSM    H6T14374   1.326   5.595   6.949 -1.2293  0.5731  1.6009
  133OSM    C7S14375   1.124   5.542   6.980 -0.0216  0.1722  0.6750
  133OSM    H7S14376   1.135   5.432   6.982  1.3084  0.2744 -0.4557
  133OSM    H7T14377   1.023   5.568   6.943  0.2728 -0.2221 -0.4109
  133OSM    C8S14378   1.127   5.572   7.125  0.4483 -0.2310 -0.0262
  133OSM    H8S14379   1.135   5.682   7.136 -1.5924 -0.1499  0.9833
  133OSM    H8T14380   1.220   5.526   7.164  0.0115 -0.2166  1.0407
  133OSM    C9S14381   1.017   5.515   7.214  0.0979  1.0156 -0.5542
  133OSM    H9S14382   1.026   5.404   7.220 -0.8676  0.9407 -0.3335
  133OSM    H9T14383   0.915   5.538   7.177  0.1600  0.2732 -1.1850
  133OSM   C10S14384   1.034   5.557   7.359  0.3368 -0.3119 -0.3329
  133OSM   H10S14385   0.995   5.660   7.371 -0.5652 -0.5516 -1.1463
  133OSM   H10T14386   1.142   5.555   7.383  0.1437  0.6406  0.6268
  133OSM   C11S14387   0.959   5.465   7.459 -0.5713 -0.2105  0.1391
  133OSM   H11S14388   0.995   5.359   7.458 -0.4368 -0.1726 -1.8443
  133OSM   H11T14389   0.856   5.457   7.418  0.0598  0.7805 -1.6968
  133OSM   C12S14390   0.961   5.509   7.605  0.3096  0.0230  0.3220
  133OSM   H12S14391   0.903   5.603   7.616  0.6629  0.2237  0.4721
  133OSM   H12T14392   1.065   5.523   7.643 -0.2046  1.5961  1.1918
  133OSM   C13S14393   0.898   5.404   7.687 -0.1221  0.3042  0.6601
  133OSM   H13S14394   0.954   5.309   7.668  0.7098  0.3958  2.5294
  133OSM   H13T14395   0.796   5.379   7.652  0.9174 -1.2359 -1.4764
  133OSM   C14S14396   0.912   5.421   7.845  0.9445 -1.0199 -0.2972
  133OSM   H14S14397   0.860   5.516   7.869  0.5266 -1.6798  1.4537
  133OSM   H14T14398   1.018   5.436   7.875  0.9419 -1.0077 -0.2951
  133OSM   C15S14399   0.867   5.293   7.921  0.7652 -0.0585 -0.0576
  133OSM   H15S14400   0.956   5.228   7.937 -1.0508 -2.2244  1.4695
  133OSM   H15T14401   0.800   5.248   7.844 -0.3804  1.0688  0.2588
  133OSM   C16S14402   0.784   5.315   8.050 -0.0424  0.1779  0.5254
  133OSM   H16S14403   0.706   5.238   8.037 -1.0357  1.2183  0.2241
  133OSM   H16T14404   0.750   5.421   8.044  3.4628  1.3081 -0.2774
  133OSM   C17S14405   0.870   5.300   8.172 -0.2844 -0.7221 -0.5368
  133OSM   H17S14406   0.961   5.363   8.158 -0.7497  0.2080  0.5012
  133OSM   H17T14407   0.900   5.194   8.186 -0.6490 -0.3772  3.6104
  133OSM   C18S14408   0.798   5.349   8.297  0.1684 -0.2685 -0.3983
  133OSM   H18S14409   0.739   5.439   8.273  0.9846  0.4573  0.2802
  133OSM   H18T14410   0.865   5.368   8.384 -0.2502  1.1424 -0.3738
  133OSM   H18U14411   0.724   5.272   8.329  0.5238 -0.4468  0.0079
  133OSM    C1F14412   1.161   5.070   6.682 -0.3762 -0.7474 -0.2095
  133OSM     OF14413   1.275   5.044   6.649  0.2922 -0.2907  0.2080
  133OSM    C2F14414   1.079   4.986   6.763  0.0369 -0.3040 -0.3122
  133OSM    H2F14415   1.017   4.928   6.692 -2.3460  0.7594  0.8246
  133OSM    H2G14416   1.006   5.042   6.826 -0.1019 -2.5697  1.6023
  133OSM    C3F14417   1.166   4.887   6.842 -0.3479  0.5610  0.0969
  133OSM    H3F14418   1.212   4.947   6.924  2.5346  0.1792 -1.1609
  133OSM    H3G14419   1.248   4.844   6.780  2.8020  5.0330  0.8960
  133OSM    C4F14420   1.082   4.773   6.905  0.2771  0.4189 -0.5423
  133OSM    H4F14421   1.070   4.700   6.822  1.6664  0.4634 -0.7984
  133OSM    H4G14422   0.982   4.805   6.942  0.0833 -0.4867 -0.2739
  133OSM    C5F14423   1.154   4.692   7.017 -0.0381 -0.2179  0.5919
  133OSM    H5F14424   1.173   4.760   7.102 -1.2031  1.1922 -0.2669
  133OSM    H5G14425   1.245   4.646   6.973 -0.7385 -1.2323  0.1858
  133OSM    C6F14426   1.067   4.571   7.063 -0.0666 -0.0903  0.7787
  133OSM    H6F14427   1.138   4.518   7.130  1.7880  0.9193 -0.3295
  133OSM    H6G14428   1.044   4.510   6.972 -0.3854 -0.2686  0.9764
  133OSM    C7F14429   0.945   4.612   7.144  0.9326  0.1907 -0.0388
  133OSM    H7F14430   0.868   4.658   7.078 -0.0560  1.6055  2.0355
  133OSM    H7G14431   0.967   4.670   7.236 -1.9274  0.6158  0.4187
  133OSM    C8F14432   0.888   4.476   7.205  0.2642  0.4959  0.8761
  133OSM    H8F14433   0.973   4.424   7.254  0.7908  0.4009 -0.1217
  133OSM    H8G14434   0.856   4.403   7.128  1.9809  2.3673 -1.7282
  133OSM    C9F14435   0.771   4.498   7.298  0.5709 -0.4784 -0.1442
  133OSM    H9F14436   0.673   4.513   7.250  0.3373  0.5021  0.6326
  133OSM   C10F14437   0.772   4.502   7.432  0.4070 -0.7475 -0.9276
  133OSM   H10F14438   0.680   4.541   7.479  0.8006 -0.4357 -0.4213
  133OSM   C11F14439   0.892   4.482   7.523  0.8447 -0.2327 -0.0221
  133OSM   H11F14440   0.919   4.572   7.582  1.3125 -1.2955  1.4123
  133OSM   H11G14441   0.988   4.452   7.477  0.7065  2.8909 -2.5179
  133OSM   C12F14442   0.866   4.365   7.625  0.8711 -0.5112 -0.1362
  133OSM   H12F14443   0.966   4.340   7.665  0.1295 -2.0814  0.8019
  133OSM   H12G14444   0.824   4.269   7.586 -0.8937 -1.3355  3.5559
  133OSM   C13F14445   0.775   4.417   7.741  0.4523 -0.3037 -0.0793
  133OSM   H13F14446   0.671   4.391   7.713  1.1991 -0.7078 -2.5833
  133OSM   H13G14447   0.769   4.528   7.738 -0.5158 -0.3563 -0.2423
  133OSM   C14F14448   0.799   4.360   7.878 -0.1102 -0.4559 -0.3076
  133OSM   H14F14449   0.909   4.353   7.891 -0.2205 -0.0259  0.8930
  133OSM   H14G14450   0.761   4.256   7.882 -0.6288 -0.2446  0.4808
  133OSM   C15F14451   0.730   4.417   8.004  0.9955  0.7522 -0.1867
  133OSM   H15F14452   0.714   4.526   7.997  2.1225  1.2104  3.1802
  133OSM   H15G14453   0.788   4.409   8.098  0.0606  2.1965  0.5327
  133OSM   C16F14454   0.597   4.346   8.034  0.5222 -0.2690  0.5354
  133OSM   H16F14455   0.597   4.236   8.052 -0.5512  0.0971  2.9667
  133OSM   H16G14456   0.522   4.349   7.952  0.1122  2.9414  0.9628
  133OSM   C17F14457   0.523   4.405   8.155 -0.1704  0.4791  0.3932
  133OSM   H17F14458   0.514   4.516   8.152  1.4090  0.5931 -1.0249
  133OSM   H17G14459   0.571   4.380   8.252 -0.1049 -1.4153 -0.0981
  133OSM   C18F14460   0.374   4.364   8.158 -0.1991 -0.6317 -0.3973
  133OSM   H18F14461   0.357   4.258   8.188  0.0120 -0.5224  0.1129
  133OSM   H18G14462   0.335   4.366   8.054  2.7881 -1.6485 -1.5892
  133OSM   H18H14463   0.304   4.428   8.215 -0.9368 -1.7077 -0.0608
  134OSM      N14464   2.096   2.457   6.440 -0.4616 -0.5377  0.0805
  134OSM    C1514465   1.967   2.459   6.523 -1.4147 -0.2830  0.6018
  134OSM   H15A14466   1.936   2.362   6.560 -1.8371  0.4096  2.1117
  134OSM   H15B14467   1.879   2.491   6.469 -2.5202 -1.2239  1.8217
  134OSM   H15C14468   1.990   2.514   6.613  2.5590 -0.2788 -0.3329
  134OSM    C1414469   2.073   2.401   6.299 -0.5149 -0.2237  0.0948
  134OSM   H14A14470   2.011   2.468   6.242  0.9025  0.5670 -0.5360
  134OSM   H14B14471   2.028   2.304   6.289 -0.4119 -0.0602 -2.2414
  134OSM   H14C14472   2.166   2.405   6.245 -0.7655 -0.1715 -0.3370
  134OSM    C1314473   2.141   2.598   6.429 -0.2218  0.4224 -0.4570
  134OSM   H13A14474   2.152   2.642   6.528 -0.2307 -3.6336  1.4331
  134OSM   H13B14475   2.073   2.659   6.372 -0.2247 -1.3250 -2.3729
  134OSM   H13C14476   2.239   2.611   6.384 -0.3601  0.0703 -0.8569
  134OSM    C1214477   2.211   2.377   6.501  0.0263 -0.5488 -0.3312
  134OSM   H12A14478   2.250   2.420   6.591  1.7978  0.1369 -1.4084
  134OSM   H12B14479   2.293   2.373   6.431  0.0266 -0.0658 -0.3580
  134OSM    C1114480   2.181   2.241   6.556  0.3303 -0.4632  0.5029
  134OSM   H11A14481   2.117   2.177   6.492  1.5815 -1.8929  0.6544
  134OSM   H11B14482   2.130   2.257   6.653  2.7271  0.6622  1.6298
  134OSM      P14483   2.357   2.076   6.480 -0.5625  0.2383  0.2744
  134OSM    O1314484   2.333   2.122   6.343 -0.3736 -0.2187  0.6076
  134OSM    O1414485   2.491   2.012   6.512 -0.0076  0.9489  0.2712
  134OSM    O1114486   2.256   1.959   6.509 -0.5044  0.6862 -0.0311
  134OSM    O1214487   2.302   2.174   6.590 -0.6909 -0.2709  0.1143
  134OSM    C1S14488   2.234   1.913   6.644 -0.0971  0.5800  0.2575
  134OSM    H1S14489   2.149   1.968   6.690 -1.0776 -0.0767 -0.7745
  134OSM    H1T14490   2.319   1.922   6.716 -0.8565 -0.0572  1.2437
  134OSM     NF14491   2.202   1.724   6.798  0.6236 -0.0062  0.0831
  134OSM    HNF14492   2.289   1.713   6.845  2.0426 -4.5893 -3.3562
  134OSM    C2S14493   2.202   1.757   6.654  0.3386  0.0411 -0.0803
  134OSM    H2S14494   2.097   1.752   6.616  0.1258  0.4882  0.4408
  134OSM    C3S14495   2.303   1.674   6.572  0.0919  0.4834 -0.2893
  134OSM    H3S14496   2.399   1.680   6.629  0.8302  0.0977 -1.4809
  134OSM     O314497   2.313   1.724   6.439 -0.5719  0.1354 -0.4284
  134OSM    HO314498   2.273   1.811   6.446 -0.9629  0.0597 -1.6130
  134OSM    C4S14499   2.264   1.528   6.570 -0.0941 -0.9656  0.5271
  134OSM    H4S14500   2.165   1.512   6.524 -0.1024  0.5553 -0.0141
  134OSM    C5S14501   2.338   1.421   6.609  0.5750  0.0162 -0.5951
  134OSM    H5S14502   2.445   1.438   6.629  1.4393 -2.0680 -3.1472
  134OSM    C6S14503   2.296   1.273   6.599  0.0017  0.2048  0.1264
  134OSM    H6S14504   2.359   1.218   6.527 -0.5146 -0.5857  0.2634
  134OSM    H6T14505   2.192   1.258   6.562 -0.6412 -0.8548  2.2694
  134OSM    C7S14506   2.310   1.196   6.738 -0.4461 -0.4383 -0.3410
  134OSM    H7S14507   2.272   1.267   6.814 -1.2259 -0.5674 -0.6083
  134OSM    H7T14508   2.413   1.162   6.764  0.2060  1.3667 -0.5224
  134OSM    C8S14509   2.220   1.070   6.773  0.1897 -0.6657  0.3322
  134OSM    H8S14510   2.269   0.982   6.726  1.4918  0.8099 -1.0910
  134OSM    H8T14511   2.126   1.081   6.715  0.3969  2.8228  0.5458
  134OSM    C9S14512   2.202   1.056   6.924 -0.5153 -0.5454 -0.4102
  134OSM    H9S14513   2.172   1.148   6.978  0.2958 -0.7630  0.4197
  134OSM    H9T14514   2.304   1.037   6.965 -0.3221  1.5193  0.0912
  134OSM   C10S14515   2.125   0.921   6.955 -0.0570 -0.3786  0.0897
  134OSM   H10S14516   2.161   0.843   6.884  1.8682  2.4702 -2.1894
  134OSM   H10T14517   2.018   0.950   6.950  0.0762 -0.0948 -1.5416
  134OSM   C11S14518   2.159   0.866   7.095 -0.4758 -0.4985  0.3476
  134OSM   H11S14519   2.270   0.857   7.100 -0.2614  1.1308 -1.1100
  134OSM   H11T14520   2.117   0.764   7.109 -3.0762  0.8692  2.9765
  134OSM   C12S14521   2.109   0.954   7.214 -0.3268 -0.1369  0.6130
  134OSM   H12S14522   1.998   0.953   7.213 -0.3808  0.1440 -3.7341
  134OSM   H12T14523   2.146   1.059   7.208  1.0161 -0.6903 -1.1928
  134OSM   C13S14524   2.160   0.909   7.350 -0.1092 -0.3226  0.0847
  134OSM   H13S14525   2.270   0.916   7.363 -0.0129  1.8427 -1.5196
  134OSM   H13T14526   2.118   0.810   7.377  0.0281 -0.3025  0.3710
  134OSM   C14S14527   2.111   1.011   7.454  0.0070 -0.5341  0.7926
  134OSM   H14S14528   2.002   1.028   7.453  0.0065 -0.5174  1.0564
  134OSM   H14T14529   2.144   1.114   7.430  3.4493 -1.8197 -0.4290
  134OSM   C15S14530   2.155   0.966   7.593 -0.1702 -0.6021  0.9915
  134OSM   H15S14531   2.264   0.946   7.589  0.2531  1.1326  2.8286
  134OSM   H15T14532   2.105   0.870   7.621 -0.9825 -0.8524 -1.2386
  134OSM   C16S14533   2.109   1.065   7.704  0.0067  0.0550  0.1385
  134OSM   H16S14534   1.999   1.046   7.708  0.0540 -0.5301 -0.9913
  134OSM   H16T14535   2.119   1.173   7.680  0.9083  0.4062  2.0550
  134OSM   C17S14536   2.181   1.047   7.840 -0.1609 -0.3920 -0.9620
  134OSM   H17S14537   2.148   1.125   7.911  2.1136 -2.4166  2.4838
  134OSM   H17T14538   2.292   1.053   7.834  0.1440 -1.0077  3.1272
  134OSM   C18S14539   2.146   0.911   7.893  0.0089  0.3217 -0.0969
  134OSM   H18S14540   2.182   0.828   7.828  0.7628  0.1552  0.5367
  134OSM   H18T14541   2.037   0.891   7.890  0.0950 -0.0617 -0.8117
  134OSM   H18U14542   2.178   0.891   7.997  0.7177 -1.9582 -0.7343
  134OSM    C1F14543   2.101   1.768   6.878  0.5289  0.1986 -0.0577
  134OSM     OF14544   2.000   1.808   6.831  0.0351  0.1377 -0.2145
  134OSM    C2F14545   2.120   1.750   7.021  0.0655 -0.6550 -0.8634
  134OSM    H2F14546   2.225   1.747   7.057 -0.3036  3.1787  0.8053
  134OSM    H2G14547   2.066   1.660   7.057 -0.2238  0.5973  2.0154
  134OSM    C3F14548   2.068   1.871   7.098 -0.6312  0.3531 -0.1131
  134OSM    H3F14549   1.960   1.893   7.086 -0.5058 -0.4441 -2.9909
  134OSM    H3G14550   2.118   1.960   7.055 -0.3972 -0.7974 -2.3018
  134OSM    C4F14551   2.117   1.878   7.247  0.3231  0.4808  0.2036
  134OSM    H4F14552   2.073   1.970   7.292 -1.3686 -0.0314 -0.3599
  134OSM    H4G14553   2.225   1.894   7.266 -0.2152  1.6641  2.5643
  134OSM    C5F14554   2.082   1.755   7.335 -0.2936  0.1390  0.4568
  134OSM    H5F14555   2.131   1.670   7.283  1.3501  2.3324 -1.7005
  134OSM    H5G14556   1.972   1.739   7.337 -0.1290 -0.8550  2.2833
  134OSM    C6F14557   2.127   1.768   7.478  0.4194 -0.2652 -0.3487
  134OSM    H6F14558   2.234   1.797   7.473  1.2951 -3.0704  0.6749
  134OSM    H6G14559   2.135   1.666   7.522 -0.9209  0.1945  1.0158
  134OSM    C7F14560   2.040   1.848   7.575 -0.1254 -0.2505 -0.1936
  134OSM    H7F14561   1.933   1.851   7.544 -0.1137 -1.1879 -0.3409
  134OSM    H7G14562   2.093   1.945   7.577 -0.5321 -0.0279 -0.1465
  134OSM    C8F14563   2.024   1.788   7.717 -0.2200 -0.5476 -0.1623
  134OSM    H8F14564   2.121   1.768   7.767  1.1244  1.6072 -1.8020
  134OSM    H8G14565   1.986   1.688   7.690  0.1294 -0.3952 -1.2427
  134OSM    C9F14566   1.936   1.876   7.814 -0.2032 -0.5880 -0.2369
  134OSM    H9F14567   1.845   1.912   7.764  0.7374 -0.5124 -1.9000
  134OSM   C10F14568   1.964   1.908   7.946  0.4716 -0.3038  0.5847
  134OSM   H10F14569   1.890   1.975   7.992 -0.5256  0.5256 -2.1237
  134OSM   C11F14570   2.081   1.870   8.032 -0.0813 -0.9671 -0.2708
  134OSM   H11F14571   2.105   1.965   8.084 -1.0763 -0.4663 -0.7134
  134OSM   H11G14572   2.163   1.824   7.973 -0.5799 -1.3086 -0.7037
  134OSM   C12F14573   2.037   1.762   8.130 -0.4573 -0.3955  0.6396
  134OSM   H12F14574   1.994   1.666   8.093  0.7366 -2.5042  4.4324
  134OSM   H12G14575   1.951   1.810   8.182 -2.0382 -0.2686 -1.9772
  134OSM   C13F14576   2.135   1.732   8.237  0.0108  0.2270  0.5808
  134OSM   H13F14577   2.176   1.825   8.282 -0.8216  1.3128 -0.8633
  134OSM   H13G14578   2.213   1.660   8.202  0.1320  0.0060  1.3082
  134OSM   C14F14579   2.067   1.682   8.367 -0.3082  0.0515 -0.2760
  134OSM   H14F14580   2.009   1.591   8.341  0.1533 -0.7621  1.4459
  134OSM   H14G14581   1.995   1.758   8.406 -1.3450 -0.6160 -0.8868
  134OSM   C15F14582   2.179   1.650   8.461 -0.2359  0.7459  0.4333
  134OSM   H15F14583   2.242   1.576   8.407 -1.1635  0.2041  0.0613
  134OSM   H15G14584   2.122   1.600   8.543 -2.4743  3.2467  0.4845
  134OSM   C16F14585   2.266   1.766   8.508 -0.0033  0.3591  0.4473
  134OSM   H16F14586   2.201   1.850   8.542  0.0709  0.6836 -0.2209
  134OSM   H16G14587   2.330   1.797   8.423 -1.5800  0.3023 -0.7688
  134OSM   C17F14588   2.372   1.725   8.619  0.0374 -0.5157  0.2093
  134OSM   H17F14589   2.403   1.623   8.588 -0.6400 -0.1298 -1.8217
  134OSM   H17G14590   2.318   1.719   8.716  0.1655 -0.1483  0.3023
  134OSM   C18F14591   2.493   1.812   8.634  0.1539 -0.2152 -0.5335
  134OSM   H18F14592   2.549   1.829   8.540 -1.8075  1.8845 -1.3540
  134OSM   H18G14593   2.555   1.777   8.719  0.4342 -0.6951 -0.9327
  134OSM   H18H14594   2.463   1.914   8.668 -2.2667 -1.1223  0.1784
  135OSM      N14595   2.000   1.618   6.076 -0.3738 -0.2666  0.2851
  135OSM    C1514596   2.000   1.737   5.987  0.1608 -0.6919  0.5075
  135OSM   H15A14597   2.091   1.734   5.930  0.1626 -1.0037  0.5266
  135OSM   H15B14598   2.002   1.824   6.051 -2.2471  0.0643 -0.3910
  135OSM   H15C14599   1.914   1.731   5.923  0.0207 -2.4733  0.8194
  135OSM    C1414600   1.968   1.493   5.998  0.3426 -0.4466  0.1720
  135OSM   H14A14601   2.050   1.476   5.930  0.9162 -0.2270  0.8016
  135OSM   H14B14602   1.878   1.494   5.937 -0.4026 -1.4379  1.2287
  135OSM   H14C14603   1.946   1.410   6.063 -0.7743 -1.1567 -1.0723
  135OSM    C1314604   2.136   1.593   6.127  0.4281 -0.4027 -1.3893
  135OSM   H13A14605   2.162   1.687   6.173  0.3831 -1.5144  0.9675
  135OSM   H13B14606   2.216   1.576   6.057  0.2363  1.8554 -2.2074
  135OSM   H13C14607   2.145   1.514   6.200  0.0622  0.4223 -0.4388
  135OSM    C1214608   1.899   1.644   6.184 -0.3107  0.3665  0.1936
  135OSM   H12A14609   1.866   1.546   6.216  1.2676 -1.7630 -4.1716
  135OSM   H12B14610   1.815   1.687   6.131 -0.8565 -0.5111  0.3270
  135OSM    C1114611   1.943   1.735   6.294  0.2466 -0.3836 -0.0980
  135OSM   H11A14612   2.029   1.692   6.350  0.4603 -0.5486 -0.5540
  135OSM   H11B14613   1.856   1.734   6.363  0.4995 -0.6591  0.2170
  135OSM      P14614   1.877   1.975   6.238 -0.4506 -0.3520  0.0732
  135OSM    O1314615   1.945   2.108   6.245  0.7152  0.0328 -0.2936
  135OSM    O1414616   1.791   1.959   6.117  0.5270 -0.1673  0.3231
  135OSM    O1114617   1.788   1.974   6.366  0.1691 -0.0557 -0.2063
  135OSM    O1214618   1.981   1.865   6.245 -0.1599  0.2103 -0.2729
  135OSM    C1S14619   1.847   2.031   6.488  0.8498  0.2676  0.0413
  135OSM    H1S14620   1.854   2.140   6.469  1.0999 -0.0686 -1.9485
  135OSM    H1T14621   1.949   1.992   6.506  0.4498 -0.4670  0.7571
  135OSM     NF14622   1.840   2.027   6.738  0.1827 -0.7149 -1.1555
  135OSM    HNF14623   1.877   1.946   6.782 -0.1543 -1.0471 -1.4826
  135OSM    C2S14624   1.763   1.993   6.616 -0.3223 -0.1920  0.1494
  135OSM    H2S14625   1.670   2.052   6.611 -2.1754 -3.0814 -0.4470
  135OSM    C3S14626   1.717   1.844   6.621  0.1003  0.1443 -0.4363
  135OSM    H3S14627   1.806   1.777   6.623 -0.7814 -1.0147  0.5539
  135OSM     O314628   1.639   1.805   6.507  0.1073 -0.0759 -0.2734
  135OSM    HO314629   1.680   1.867   6.446 -1.0389  0.7578 -0.2097
  135OSM    C4S14630   1.638   1.809   6.737  0.3764 -0.3292 -0.0984
  135OSM    H4S14631   1.536   1.849   6.724  0.2539 -0.6047  0.0302
  135OSM    C5S14632   1.674   1.726   6.830  1.0403  0.0576 -0.8382
  135OSM    H5S14633   1.771   1.674   6.830  2.1095  2.0385 -1.0877
  135OSM    C6S14634   1.588   1.685   6.955 -0.5622  0.3623 -0.0532
  135OSM    H6S14635   1.585   1.574   6.951 -1.0330  0.3683  0.0748
  135OSM    H6T14636   1.483   1.720   6.948 -0.6244  0.1820 -0.0166
  135OSM    C7S14637   1.653   1.706   7.090  0.0822 -0.0258  0.3621
  135OSM    H7S14638   1.635   1.815   7.105 -1.7668 -0.1163 -1.0160
  135OSM    H7T14639   1.763   1.687   7.082  0.4166  2.2127 -0.8861
  135OSM    C8S14640   1.590   1.638   7.207 -0.7303  0.0077  0.9469
  135OSM    H8S14641   1.589   1.529   7.186  0.6127  0.1333  0.2012
  135OSM    H8T14642   1.481   1.657   7.200 -0.4662  0.6463 -1.9223
  135OSM    C9S14643   1.657   1.692   7.332  0.2589 -0.2029 -0.6647
  135OSM    H9S14644   1.660   1.801   7.311  1.0584  0.4018  2.4405
  135OSM    H9T14645   1.759   1.653   7.352  0.5561  1.0976  0.3641
  135OSM   C10S14646   1.574   1.651   7.454 -0.5166 -0.0158 -0.3398
  135OSM   H10S14647   1.600   1.544   7.463 -0.5649  0.0733  0.9251
  135OSM   H10T14648   1.466   1.673   7.445 -0.7348  0.3130  2.6160
  135OSM   C11S14649   1.633   1.710   7.578 -0.7105 -0.0401  0.1365
  135OSM   H11S14650   1.657   1.816   7.552 -1.1964  0.7656  2.7626
  135OSM   H11T14651   1.737   1.670   7.580 -0.0237  1.6468 -0.0106
  135OSM   C12S14652   1.556   1.689   7.703  0.4390 -0.0300 -0.3710
  135OSM   H12S14653   1.547   1.579   7.709 -1.8498  0.1854  0.5177
  135OSM   H12T14654   1.451   1.724   7.696  0.2028 -0.6481  0.0129
  135OSM   C13S14655   1.627   1.749   7.835 -0.0999  0.7776  0.0912
  135OSM   H13S14656   1.645   1.858   7.825  0.5357  0.4927 -2.1273
  135OSM   H13T14657   1.727   1.701   7.847 -0.7512 -0.8785 -0.8680
  135OSM   C14S14658   1.549   1.714   7.955 -0.1075 -0.1867 -0.3877
  135OSM   H14S14659   1.548   1.603   7.963 -0.3632 -0.0747  1.2909
  135OSM   H14T14660   1.449   1.761   7.941  0.2278  0.5959 -0.1960
  135OSM   C15S14661   1.602   1.772   8.090  0.0313 -0.6020 -0.5225
  135OSM   H15S14662   1.577   1.878   8.110  0.2560 -0.5940 -0.2813
  135OSM   H15T14663   1.713   1.770   8.089  0.2423  5.0094 -2.2597
  135OSM   C16S14664   1.565   1.680   8.208 -0.2516 -0.0767 -0.1736
  135OSM   H16S14665   1.592   1.575   8.184 -1.5604 -0.7996  1.3697
  135OSM   H16T14666   1.455   1.679   8.225 -0.3050 -2.3507 -0.4886
  135OSM   C17S14667   1.643   1.698   8.340  0.1195 -0.2209  0.5775
  135OSM   H17S14668   1.629   1.804   8.368  0.8223 -0.1519  0.6889
  135OSM   H17T14669   1.751   1.682   8.315  0.2111 -0.3638  1.0642
  135OSM   C18S14670   1.602   1.603   8.447  0.1356  0.5833  0.5032
  135OSM   H18S14671   1.501   1.622   8.488 -0.6036 -0.5090 -0.7621
  135OSM   H18T14672   1.677   1.610   8.529 -0.5912 -0.1843  1.2500
  135OSM   H18U14673   1.606   1.498   8.410  1.6521  0.4927  0.8803
  135OSM    C1F14674   1.863   2.152   6.766  0.1137 -0.6797 -0.2854
  135OSM     OF14675   1.836   2.236   6.687  0.1914  0.2042  0.3171
  135OSM    C2F14676   1.943   2.172   6.893 -0.9078  0.3199 -0.1736
  135OSM    H2F14677   2.033   2.108   6.880 -1.3329 -0.3316  0.0491
  135OSM    H2G14678   1.880   2.138   6.978 -1.8475  1.3213 -0.4643
  135OSM    C3F14679   1.996   2.316   6.923 -0.3805  0.0718  0.0943
  135OSM    H3F14680   1.913   2.390   6.925 -0.4331  0.0340 -0.7324
  135OSM    H3G14681   2.052   2.335   6.830 -0.1284  0.2016  0.2717
  135OSM    C4F14682   2.090   2.333   7.045 -0.1966 -0.2909 -0.2291
  135OSM    H4F14683   2.151   2.426   7.050  1.0010 -1.0602 -0.4183
  135OSM    H4G14684   2.166   2.253   7.040  0.1794  0.0094  0.6338
  135OSM    C5F14685   2.022   2.313   7.182  1.3604  0.0175  0.7057
  135OSM    H5F14686   1.980   2.210   7.179 -0.3007  0.6105  2.4584
  135OSM    H5G14687   1.944   2.391   7.196 -0.5712 -2.0985  1.9937
  135OSM    C6F14688   2.121   2.325   7.298  0.0491  0.0592 -0.1151
  135OSM    H6F14689   2.174   2.417   7.264  1.9243 -1.1286 -0.5082
  135OSM    H6G14690   2.188   2.237   7.284 -1.3265 -0.8369 -1.2214
  135OSM    C7F14691   2.047   2.310   7.432 -0.4512  0.4815  0.3035
  135OSM    H7F14692   1.967   2.232   7.425  0.8462 -0.7854 -0.8578
  135OSM    H7G14693   1.987   2.402   7.446  0.4785  1.2200 -0.4535
  135OSM    C8F14694   2.145   2.273   7.553  0.2169 -0.0507  0.1185
  135OSM    H8F14695   2.216   2.194   7.520 -0.3501 -0.2958 -0.5293
  135OSM    H8G14696   2.087   2.232   7.639 -0.7022 -1.2256 -1.0398
  135OSM    C9F14697   2.224   2.391   7.603  0.5635  0.4584  0.2573
  135OSM    H9F14698   2.275   2.449   7.524 -0.5656  1.6154  0.3631
  135OSM   C10F14699   2.246   2.437   7.731 -0.2129  0.1264 -0.1622
  135OSM   H10F14700   2.313   2.523   7.747 -0.5002  0.7036 -1.9541
  135OSM   C11F14701   2.190   2.384   7.860  0.0688 -0.0172 -0.7502
  135OSM   H11F14702   2.261   2.391   7.945 -2.4802  0.7346  1.3772
  135OSM   H11G14703   2.151   2.280   7.857  0.1334 -0.0378 -0.8870
  135OSM   C12F14704   2.071   2.472   7.903 -0.6686  0.4087 -0.1994
  135OSM   H12F14705   1.998   2.464   7.819 -1.0431  0.5934  0.1094
  135OSM   H12G14706   2.097   2.577   7.929  0.2638  0.1547 -0.0996
  135OSM   C13F14707   1.997   2.417   8.024 -0.3660  0.5657  0.1858
  135OSM   H13F14708   1.921   2.490   8.060  0.2729  0.6386  1.4307
  135OSM   H13G14709   2.069   2.419   8.109  1.5609  0.4377 -1.3933
  135OSM   C14F14710   1.943   2.272   8.020  0.1577 -0.4757 -0.3646
  135OSM   H14F14711   2.030   2.203   8.020  1.9629  1.7375  0.5571
  135OSM   H14G14712   1.874   2.271   7.934  2.6092 -1.2586 -2.3911
  135OSM   C15F14713   1.855   2.234   8.143 -0.1943  0.2928 -0.5887
  135OSM   H15F14714   1.801   2.143   8.112  2.8932 -1.0058 -2.3459
  135OSM   H15G14715   1.779   2.308   8.177 -0.7795 -1.0820  1.1691
  135OSM   C16F14716   1.945   2.209   8.274  0.3504 -0.0183  0.0890
  135OSM   H16F14717   1.986   2.311   8.293  0.9646 -0.0313 -1.0969
  135OSM   H16G14718   2.030   2.142   8.253 -3.5231 -4.1324 -3.4704
  135OSM   C17F14719   1.876   2.151   8.401  0.6692  0.4061 -0.4813
  135OSM   H17F14720   1.787   2.202   8.443  0.1250  0.0072 -1.1614
  135OSM   H17G14721   1.947   2.171   8.485  0.4741  1.2726 -0.5213
  135OSM   C18F14722   1.844   2.004   8.391  0.1328  0.3205  0.1367
  135OSM   H18F14723   1.794   1.997   8.292  1.3147  0.8655 -0.5050
  135OSM   H18G14724   1.773   1.968   8.468  0.3542  0.5120  0.4274
  135OSM   H18H14725   1.938   1.945   8.400 -1.1149 -1.5193  1.4416
  136OSM      N14726   6.242   1.839   6.062 -0.0787  0.3116 -0.3240
  136OSM    C1514727   6.228   1.900   5.930  0.2197  0.4116  0.1669
  136OSM   H15A14728   6.291   1.856   5.854  0.0945  2.2846 -1.0682
  136OSM   H15B14729   6.258   2.003   5.942  0.5303  0.1949  1.2552
  136OSM   H15C14730   6.123   1.906   5.903 -0.3147 -1.8895  1.6364
  136OSM    C1414731   6.153   1.719   6.081 -0.4918 -0.0307 -0.1238
  136OSM   H14A14732   6.181   1.645   6.007  0.1445  1.2906 -1.2251
  136OSM   H14B14733   6.048   1.740   6.069 -0.4413  1.0387  1.1900
  136OSM   H14C14734   6.164   1.667   6.175 -4.3372 -0.8354 -0.0205
  136OSM    C1314735   6.384   1.811   6.079 -0.3913 -0.1897 -0.2372
  136OSM   H13A14736   6.450   1.893   6.057  0.7078 -1.1601 -0.6284
  136OSM   H13B14737   6.419   1.739   6.006  2.1810 -0.4490  1.1904
  136OSM   H13C14738   6.406   1.765   6.174  2.7865 -2.0299 -1.7773
  136OSM    C1214739   6.198   1.943   6.164 -0.1447 -0.0048 -0.1873
  136OSM   H12A14740   6.201   1.894   6.261 -0.4260 -1.3454 -0.8403
  136OSM   H12B14741   6.097   1.973   6.143  0.8741  3.1036 -0.7996
  136OSM    C1114742   6.278   2.073   6.187 -0.3219 -0.5625  0.6184
  136OSM   H11A14743   6.376   2.046   6.233 -0.3917  0.5913  1.4709
  136OSM   H11B14744   6.224   2.131   6.264 -0.2365 -1.9856  1.7887
  136OSM      P14745   6.442   2.204   6.021 -0.2136 -0.3809  0.0471
  136OSM    O1314746   6.513   2.086   5.962  0.5376 -0.4239  0.5296
  136OSM    O1414747   6.419   2.312   5.925  0.5072 -0.0915 -0.5917
  136OSM    O1114748   6.522   2.255   6.145  0.4078  0.2856 -0.3048
  136OSM    O1214749   6.303   2.152   6.076 -0.0750 -0.1378  0.0665
  136OSM    C1S14750   6.474   2.345   6.246 -0.4675 -0.3352  0.1743
  136OSM    H1S14751   6.363   2.344   6.249 -0.4658 -1.2735  0.0971
  136OSM    H1T14752   6.524   2.444   6.245 -1.4914  0.1728 -1.1357
  136OSM     NF14753   6.452   2.359   6.502  0.0871 -0.1206 -0.3159
  136OSM    HNF14754   6.505   2.425   6.554 -1.7878  1.7732 -0.7296
  136OSM    C2S14755   6.522   2.285   6.391  0.5346 -0.1158  0.6266
  136OSM    H2S14756   6.491   2.178   6.382 -0.4441  0.2229 -0.0586
  136OSM    C3S14757   6.683   2.294   6.408  0.3615 -0.9675  0.2963
  136OSM    H3S14758   6.704   2.403   6.403  2.6127 -1.4391 -0.8594
  136OSM     O314759   6.748   2.227   6.302 -0.1247  0.1424 -0.0302
  136OSM    HO314760   6.682   2.240   6.234 -0.2847 -1.4010 -0.1863
  136OSM    C4S14761   6.709   2.229   6.546 -0.0711 -0.1782 -0.1766
  136OSM    H4S14762   6.645   2.142   6.566 -1.8924  2.0204  4.2255
  136OSM    C5S14763   6.771   2.276   6.653 -0.2587  0.2893  0.6190
  136OSM    H5S14764   6.835   2.365   6.640 -1.1943  0.9935  0.8273
  136OSM    C6S14765   6.786   2.214   6.784 -0.2918  1.2250  0.7912
  136OSM    H6S14766   6.895   2.210   6.804 -0.5123 -2.8307  1.5660
  136OSM    H6T14767   6.769   2.105   6.784  1.1120  0.9892 -0.0197
  136OSM    C7S14768   6.713   2.296   6.893  0.2691  0.0193  0.9480
  136OSM    H7S14769   6.614   2.335   6.862  0.8047  0.5512 -0.1137
  136OSM    H7T14770   6.774   2.388   6.901 -0.2952  0.7882 -2.7824
  136OSM    C8S14771   6.720   2.224   7.028 -0.2854  0.2344 -0.1029
  136OSM    H8S14772   6.830   2.218   7.042 -0.1717  3.2177  0.6686
  136OSM    H8T14773   6.683   2.120   7.017  2.5083 -0.5983 -2.2550
  136OSM    C9S14774   6.664   2.307   7.146 -0.3423 -0.4617 -0.5610
  136OSM    H9S14775   6.554   2.318   7.140 -0.2154 -0.0918 -2.5778
  136OSM    H9T14776   6.720   2.403   7.146 -1.8402  0.4288  0.3567
  136OSM   C10S14777   6.687   2.236   7.279 -0.5968 -0.7568 -0.1581
  136OSM   H10S14778   6.797   2.237   7.298 -0.7345  2.1392  0.6489
  136OSM   H10T14779   6.641   2.137   7.260 -0.2269 -0.8487 -0.5970
  136OSM   C11S14780   6.631   2.302   7.402 -0.5740 -0.5272 -0.0004
  136OSM   H11S14781   6.520   2.306   7.392 -0.6795  0.8433  1.4152
  136OSM   H11T14782   6.671   2.405   7.412 -2.4442  0.0836  1.3712
  136OSM   C12S14783   6.664   2.215   7.528 -0.7208  0.5193 -0.5796
  136OSM   H12S14784   6.774   2.205   7.520 -0.9844 -2.3437 -1.0645
  136OSM   H12T14785   6.612   2.118   7.517 -0.9119  0.4380  0.9615
  136OSM   C13S14786   6.609   2.279   7.664 -0.7347 -0.1249 -0.3544
  136OSM   H13S14787   6.499   2.270   7.665 -0.6042 -2.1085  2.2470
  136OSM   H13T14788   6.639   2.385   7.656  2.4390 -1.0317 -1.4444
  136OSM   C14S14789   6.665   2.217   7.794  0.3679 -0.1345  0.0056
  136OSM   H14S14790   6.776   2.216   7.783  0.1770 -0.4743 -2.1077
  136OSM   H14T14791   6.631   2.112   7.806 -0.1342  0.1906  1.5466
  136OSM   C15S14792   6.624   2.294   7.923  0.5355  0.2906 -0.8073
  136OSM   H15S14793   6.513   2.301   7.918  0.3819 -0.3257  1.2852
  136OSM   H15T14794   6.655   2.401   7.925 -0.0252  0.4576 -0.9930
  136OSM   C16S14795   6.663   2.218   8.051 -0.2415 -0.1632 -0.0257
  136OSM   H16S14796   6.769   2.188   8.063 -0.4083 -0.3298  1.1417
  136OSM   H16T14797   6.602   2.126   8.043  2.3707 -1.9091 -0.5696
  136OSM   C17S14798   6.624   2.301   8.175 -0.1707 -0.1417  0.9300
  136OSM   H17S14799   6.533   2.357   8.145  0.9540  1.4057  0.3458
  136OSM   H17T14800   6.696   2.383   8.194 -0.2681  0.2777 -0.4433
  136OSM   C18S14801   6.611   2.209   8.294  0.5035  0.5861  0.0218
  136OSM   H18S14802   6.715   2.179   8.317  0.6734 -0.9153 -2.4477
  136OSM   H18T14803   6.553   2.115   8.284  0.6263  0.3511  1.4986
  136OSM   H18U14804   6.565   2.261   8.380 -2.5715 -0.4449 -0.9310
  136OSM    C1F14805   6.322   2.339   6.534 -0.6322 -0.8565  0.5673
  136OSM     OF14806   6.265   2.237   6.494  0.3770  0.2263  0.2328
  136OSM    C2F14807   6.252   2.429   6.633  0.9077 -0.8864  0.2929
  136OSM    H2F14808   6.198   2.361   6.702 -1.6719  1.8354  1.0697
  136OSM    H2G14809   6.173   2.484   6.577 -0.5485 -0.1137  3.0286
  136OSM    C3F14810   6.337   2.505   6.725 -0.2801  0.4041  0.0260
  136OSM    H3F14811   6.383   2.589   6.668  2.1337 -0.7786  0.1515
  136OSM    H3G14812   6.430   2.448   6.747  0.0861  0.9403 -0.0988
  136OSM    C4F14813   6.270   2.539   6.861  0.0880 -0.3005 -0.0344
  136OSM    H4F14814   6.232   2.445   6.907 -0.2057  0.9531  2.3316
  136OSM    H4G14815   6.191   2.617   6.854  0.7443  0.3964  0.2338
  136OSM    C5F14816   6.368   2.610   6.957 -0.4089  0.0360 -0.1502
  136OSM    H5F14817   6.403   2.706   6.912  0.0872  0.7659  1.7493
  136OSM    H5G14818   6.460   2.552   6.981 -0.7879 -0.3999  0.2389
  136OSM    C6F14819   6.327   2.640   7.098  0.1020 -0.1943 -0.1287
  136OSM    H6F14820   6.238   2.707   7.088  1.5949  1.7268 -0.8429
  136OSM    H6G14821   6.392   2.708   7.157  1.0748 -1.1356 -0.1020
  136OSM    C7F14822   6.291   2.514   7.188 -0.3204  0.7587 -0.5477
  136OSM    H7F14823   6.364   2.432   7.200  0.1624  1.5329  1.9272
  136OSM    H7G14824   6.212   2.460   7.130 -0.7968  0.2389  0.5815
  136OSM    C8F14825   6.226   2.549   7.335  0.3003 -0.2292  0.2210
  136OSM    H8F14826   6.183   2.451   7.365 -0.9993  0.6143  1.1467
  136OSM    H8G14827   6.154   2.629   7.308 -0.9025 -0.9344  1.2953
  136OSM    C9F14828   6.322   2.581   7.439  0.0724 -0.2861  0.3234
  136OSM    H9F14829   6.418   2.621   7.403  0.1184  1.0070  1.8403
  136OSM   C10F14830   6.296   2.572   7.571 -0.2460  0.2769  0.1607
  136OSM   H10F14831   6.365   2.616   7.644  0.0999  1.4864 -0.8730
  136OSM   C11F14832   6.170   2.522   7.636 -0.3933 -0.4167 -0.0754
  136OSM   H11F14833   6.090   2.502   7.562 -0.7230  0.2156  0.1046
  136OSM   H11G14834   6.133   2.594   7.712  0.4986 -1.2827  1.2146
  136OSM   C12F14835   6.190   2.389   7.715 -0.1474 -0.6830 -0.1942
  136OSM   H12F14836   6.224   2.303   7.653  1.4431 -1.1360  1.2734
  136OSM   H12G14837   6.086   2.357   7.737 -0.4844  0.9366  0.6414
  136OSM   C13F14838   6.282   2.385   7.836 -0.2447  0.1029 -0.6318
  136OSM   H13F14839   6.386   2.408   7.805  0.2392 -2.6925 -1.2586
  136OSM   H13G14840   6.280   2.281   7.876 -0.2295  0.9612  1.6547
  136OSM   C14F14841   6.237   2.472   7.962  0.1465 -0.1232 -0.1252
  136OSM   H14F14842   6.218   2.570   7.915 -2.3546 -0.8650 -0.7539
  136OSM   H14G14843   6.324   2.473   8.031  0.4760 -4.3569 -0.3272
  136OSM   C15F14844   6.124   2.410   8.038  0.1426  0.0586 -0.7037
  136OSM   H15F14845   6.143   2.305   8.068  1.2763 -0.4305 -2.9461
  136OSM   H15G14846   6.034   2.417   7.973 -0.5358 -0.7776  0.1520
  136OSM   C16F14847   6.086   2.496   8.166 -0.4170 -0.2115 -0.1362
  136OSM   H16F14848   6.049   2.595   8.131 -2.1559 -0.3133  1.3243
  136OSM   H16G14849   6.169   2.507   8.240 -0.7758  0.0821  0.2287
  136OSM   C17F14850   5.966   2.436   8.236 -0.0692  0.9245 -0.6398
  136OSM   H17F14851   5.933   2.359   8.163  1.6260 -1.2227  0.8268
  136OSM   H17G14852   5.892   2.517   8.249 -2.1891 -0.6553 -2.4948
  136OSM   C18F14853   6.004   2.361   8.367  0.3436  0.1061 -0.4692
  136OSM   H18F14854   5.923   2.292   8.398 -0.5565  0.4515 -2.0134
  136OSM   H18G14855   6.019   2.443   8.440 -0.6668 -0.3905  0.3078
  136OSM   H18H14856   6.091   2.292   8.363  0.0256 -0.3289  0.1154
  137OSM      N14857   2.982   0.588   6.074 -0.0653 -0.3310  0.3989
  137OSM    C1514858   2.900   0.606   5.951 -0.2673  0.1662  0.1923
  137OSM   H15A14859   2.954   0.670   5.883  0.3295  1.2344  1.6520
  137OSM   H15B14860   2.808   0.658   5.974 -0.1093  1.7137 -2.3885
  137OSM   H15C14861   2.873   0.516   5.897 -2.2105 -0.5139  2.2591
  137OSM    C1414862   2.905   0.498   6.168 -0.3026  0.6559 -0.8831
  137OSM   H14A14863   2.918   0.395   6.140 -0.6975 -0.1319  1.6858
  137OSM   H14B14864   2.799   0.515   6.183 -0.6488 -0.2361 -2.3094
  137OSM   H14C14865   2.949   0.501   6.267  0.4567 -4.1372 -0.9891
  137OSM    C1314866   3.113   0.520   6.036  0.6389 -0.5530 -0.3700
  137OSM   H13A14867   3.099   0.413   6.026  0.5007 -0.5495 -0.2176
  137OSM   H13B14868   3.175   0.538   6.123 -1.1329  0.5742  0.6828
  137OSM   H13C14869   3.167   0.561   5.952 -0.6951 -1.5756 -1.7570
  137OSM    C1214870   3.018   0.722   6.146  0.8785  0.2251 -0.0219
  137OSM   H12A14871   2.934   0.747   6.209  1.7771  1.7637  0.5887
  137OSM   H12B14872   3.008   0.804   6.077 -2.6512  0.1298  0.2689
  137OSM    C1114873   3.155   0.737   6.212  0.2760  0.4094 -0.5666
  137OSM   H11A14874   3.159   0.848   6.215  0.5681  0.3541  3.1952
  137OSM   H11B14875   3.242   0.717   6.145  0.3908 -0.1908 -0.2426
  137OSM      P14876   3.288   0.578   6.399 -0.2564  0.1857 -0.3619
  137OSM    O1314877   3.286   0.471   6.302  0.6335 -0.7032 -0.0268
  137OSM    O1414878   3.416   0.645   6.420  0.4522 -0.4463 -0.0607
  137OSM    O1114879   3.227   0.523   6.533  0.4358  0.3152 -0.3211
  137OSM    O1214880   3.173   0.689   6.350  0.0937  0.1672 -0.6245
  137OSM    C1S14881   3.242   0.602   6.654  0.2132  0.0662 -0.4422
  137OSM    H1S14882   3.256   0.710   6.632  1.7933 -0.1860 -0.6881
  137OSM    H1T14883   3.333   0.575   6.711 -0.9344 -2.5327  0.2351
  137OSM     NF14884   3.131   0.693   6.854  0.1195 -0.1362  0.1222
  137OSM    HNF14885   3.151   0.660   6.946 -2.1169  0.7369  0.9593
  137OSM    C2S14886   3.120   0.593   6.748 -0.3859 -0.5471 -0.5011
  137OSM    H2S14887   3.020   0.613   6.704 -2.2103 -4.0105  1.7851
  137OSM    C3S14888   3.114   0.443   6.798 -0.2564 -0.5015 -0.1024
  137OSM    H3S14889   3.207   0.420   6.854  0.3083  1.3506 -0.2701
  137OSM     O314890   3.104   0.342   6.699 -0.0872  0.4320  0.4909
  137OSM    HO314891   3.092   0.394   6.619  1.1915 -2.6647 -1.8291
  137OSM    C4S14892   3.004   0.415   6.903  0.3110  0.5489  0.8885
  137OSM    H4S14893   3.061   0.395   6.995 -0.2654  1.1833  1.3865
  137OSM    C5S14894   2.871   0.402   6.885 -0.4249 -0.0218 -0.1326
  137OSM    H5S14895   2.834   0.397   6.781 -1.0634 -1.9622  0.1703
  137OSM    C6S14896   2.755   0.380   6.986 -0.2989 -0.4342  0.4859
  137OSM    H6S14897   2.662   0.363   6.927  1.2111  0.5710 -2.2674
  137OSM    H6T14898   2.727   0.474   7.039 -0.5857  0.1500 -0.6777
  137OSM    C7S14899   2.786   0.282   7.099  0.5758  0.6951  0.5794
  137OSM    H7S14900   2.879   0.319   7.146 -0.0926  2.8461  0.2312
  137OSM    H7T14901   2.788   0.176   7.066 -0.0848  0.5500  0.9906
  137OSM    C8S14902   2.677   0.280   7.212  0.2840 -0.3527 -0.3690
  137OSM    H8S14903   2.577   0.256   7.168 -0.1336  1.5290 -0.4930
  137OSM    H8T14904   2.664   0.384   7.247 -3.0916 -1.1839  1.0795
  137OSM    C9S14905   2.713   0.197   7.334 -1.2208 -1.1643 -0.2907
  137OSM    H9S14906   2.820   0.210   7.360 -0.7153 -2.8204 -1.4532
  137OSM    H9T14907   2.707   0.088   7.312 -0.8410 -0.9451 -1.4980
  137OSM   C10S14908   2.625   0.235   7.451  0.1000 -0.1209  0.2446
  137OSM   H10S14909   2.521   0.230   7.411  0.6564 -0.7688 -1.1377
  137OSM   H10T14910   2.638   0.342   7.477 -0.2701 -0.0814  0.2797
  137OSM   C11S14911   2.658   0.151   7.575  1.0174 -0.1114 -0.2482
  137OSM   H11S14912   2.752   0.183   7.625 -0.2896  1.3790  1.3327
  137OSM   H11T14913   2.668   0.045   7.545 -4.3719 -1.2357  1.4364
  137OSM   C12S14914   2.546   0.153   7.682 -0.2771 -0.4474 -0.3677
  137OSM   H12S14915   2.448   0.123   7.640  0.2187 -2.1368 -0.3479
  137OSM   H12T14916   2.542   0.260   7.711 -0.2730 -0.3645 -0.6768
  137OSM   C13S14917   2.575   0.058   7.805 -0.0830 -0.4488 -1.1171
  137OSM   H13S14918   2.682   0.069   7.834 -1.3693  2.7177  2.7075
  137OSM   H13T14919   2.559  -0.047   7.773  0.1338 -0.4531 -1.2172
  137OSM   C14S14920   2.500   0.088   7.936  0.2296 -0.0095 -0.3342
  137OSM   H14S14921   2.531   0.008   8.006  0.1260  0.0368 -0.2338
  137OSM   H14T14922   2.394   0.088   7.904 -0.0222 -0.7914  0.4920
  137OSM   C15S14923   2.541   0.222   8.009  0.2493 -0.0628  0.3139
  137OSM   H15S14924   2.532   0.314   7.948 -0.5712  0.1316  0.7287
  137OSM   H15T14925   2.648   0.221   8.041  0.0013  0.0371  1.1542
  137OSM   C16S14926   2.464   0.250   8.132  0.0370 -0.4099  0.2813
  137OSM   H16S14927   2.355   0.234   8.120  0.3656 -2.0894 -0.5904
  137OSM   H16T14928   2.478   0.359   8.152 -1.3054  0.5110 -3.2557
  137OSM   C17S14929   2.510   0.163   8.246 -0.7148 -0.2518 -0.3485
  137OSM   H17S14930   2.609   0.198   8.283 -0.9328  1.2031 -1.1015
  137OSM   H17T14931   2.517   0.057   8.213 -0.6324 -0.1522 -0.6538
  137OSM   C18S14932   2.420   0.166   8.367 -0.0803  0.2743 -0.9625
  137OSM   H18S14933   2.405   0.270   8.404  1.2587  0.6134 -1.3528
  137OSM   H18T14934   2.452   0.098   8.450 -0.5397  2.4781  1.0809
  137OSM   H18U14935   2.325   0.127   8.327  1.2072 -3.8713 -0.1952
  137OSM    C1F14936   3.114   0.825   6.844  0.3412  0.2508  0.9223
  137OSM     OF14937   3.075   0.871   6.734 -0.0682 -0.6512 -0.1342
  137OSM    C2F14938   3.162   0.907   6.958 -1.1142 -0.4819 -0.2799
  137OSM    H2F14939   3.260   0.949   6.926 -0.3968 -2.0825 -0.2584
  137OSM    H2G14940   3.161   0.851   7.054  0.5741 -0.1011 -0.0137
  137OSM    C3F14941   3.065   1.029   6.981 -0.6491 -0.9535 -0.1744
  137OSM    H3F14942   2.962   0.989   6.986 -1.5061  0.7799 -2.8038
  137OSM    H3G14943   3.067   1.092   6.889  0.5952  0.9394  1.1071
  137OSM    C4F14944   3.116   1.111   7.101  0.8842 -0.5260 -0.1777
  137OSM    H4F14945   3.077   1.214   7.113 -0.9539 -1.1058 -1.0890
  137OSM    H4G14946   3.226   1.124   7.086  0.8294  0.8364  0.5694
  137OSM    C5F14947   3.098   1.037   7.232  0.2127  0.1354 -0.4154
  137OSM    H5F14948   3.173   0.955   7.239  1.5011  1.0787 -2.6654
  137OSM    H5G14949   2.997   0.992   7.238  0.1635  0.5443  2.4830
  137OSM    C6F14950   3.129   1.108   7.367 -0.8925 -0.5205  0.7545
  137OSM    H6F14951   3.084   1.210   7.363  1.2078  0.3670 -1.4373
  137OSM    H6G14952   3.238   1.128   7.359 -0.5120 -1.4305  3.3055
  137OSM    C7F14953   3.097   1.029   7.498  0.1242 -0.7876  0.5203
  137OSM    H7F14954   3.157   0.937   7.483 -0.1950 -0.6780 -1.5881
  137OSM    H7G14955   2.991   1.002   7.476  0.1835 -0.8746  0.3427
  137OSM    C8F14956   3.125   1.103   7.628  0.1962 -0.5798 -0.3302
  137OSM    H8F14957   3.075   1.199   7.603  0.4126 -0.1191  0.9833
  137OSM    H8G14958   3.234   1.112   7.646  0.1791  0.7943 -0.8287
  137OSM    C9F14959   3.050   1.030   7.737  0.7786 -0.0659 -0.2434
  137OSM    H9F14960   2.982   0.955   7.696  0.1371 -0.4380  1.4653
  137OSM   C10F14961   3.043   1.065   7.863 -0.1904  0.6009 -1.1491
  137OSM   H10F14962   2.975   0.998   7.919 -0.0446  1.1120 -0.3569
  137OSM   C11F14963   3.116   1.176   7.938  0.5907 -0.1629 -0.3955
  137OSM   H11F14964   3.148   1.256   7.868 -0.7046 -0.0488 -0.8779
  137OSM   H11G14965   3.203   1.133   7.991  0.1950  0.0470  0.4474
  137OSM   C12F14966   3.028   1.236   8.045 -1.3511 -0.1930 -0.9668
  137OSM   H12F14967   2.924   1.247   8.008 -1.6672  1.2420  0.3224
  137OSM   H12G14968   3.080   1.331   8.073 -0.3998 -0.7946 -0.6592
  137OSM   C13F14969   3.025   1.147   8.173  0.1126  0.3670  0.4737
  137OSM   H13F14970   3.131   1.118   8.190  0.0125 -1.3491 -1.5950
  137OSM   H13G14971   2.975   1.050   8.155  0.9802  0.1457 -0.8491
  137OSM   C14F14972   2.976   1.224   8.297 -0.0391  0.5124 -0.0095
  137OSM   H14F14973   2.875   1.270   8.284 -0.0732  0.4419  0.0075
  137OSM   H14G14974   3.046   1.307   8.321  1.5197 -1.2555  1.6792
  137OSM   C15F14975   2.988   1.131   8.416  0.4044 -0.0567  0.3706
  137OSM   H15F14976   3.008   1.195   8.505  0.3612  0.7678 -0.2054
  137OSM   H15G14977   3.076   1.068   8.390  0.6111 -0.1852  1.3516
  137OSM   C16F14978   2.860   1.042   8.437 -0.5422 -0.4125  0.4297
  137OSM   H16F14979   2.898   0.965   8.507  0.8135  0.5808  0.8079
  137OSM   H16G14980   2.841   0.998   8.337  0.0846  1.8940 -0.7513
  137OSM   C17F14981   2.755   1.112   8.515  0.4601 -0.9020 -0.2418
  137OSM   H17F14982   2.712   1.189   8.446 -2.0882 -1.3735  0.7437
  137OSM   H17G14983   2.788   1.173   8.602 -1.6536 -0.4157  0.2522
  137OSM   C18F14984   2.632   1.030   8.547 -0.3262 -0.0030  0.4665
  137OSM   H18F14985   2.552   1.096   8.585 -1.3887 -0.4654 -0.9623
  137OSM   H18G14986   2.658   0.951   8.622 -0.9846 -1.0748 -0.4197
  137OSM   H18H14987   2.595   0.993   8.449 -2.3212  1.4364  0.6478
  138OSM      N14988   3.278   3.137   6.112 -0.0066 -0.0073  0.0173
  138OSM    C1514989   3.176   3.026   6.126  0.2912 -0.0287 -0.2809
  138OSM   H15A14990   3.099   3.047   6.199  0.0718 -3.0167  0.4225
  138OSM   H15B14991   3.217   2.930   6.153 -0.2252  0.2442  1.5696
  138OSM   H15C14992   3.127   3.019   6.030 -1.2204  1.9749  0.3042
  138OSM    C1414993   3.214   3.270   6.081  0.0793 -0.8154  0.3016
  138OSM   H14A14994   3.284   3.350   6.067  0.6726 -1.8007 -2.7981
  138OSM   H14B14995   3.143   3.287   6.161  0.0627 -0.4486  0.2095
  138OSM   H14C14996   3.168   3.268   5.983  0.7119 -0.6586 -0.0020
  138OSM    C1314997   3.347   3.156   6.242 -0.0909  0.0055 -0.8114
  138OSM   H13A14998   3.436   3.215   6.228  0.2124 -0.1344  0.4138
  138OSM   H13B14999   3.380   3.062   6.284  0.5056  0.2625 -0.6943
  138OSM   H13C15000   3.289   3.203   6.320  1.0193  2.9108 -1.6705
  138OSM    C1215001   3.380   3.094   6.015  0.3311  0.8160 -0.4866
  138OSM   H12A15002   3.330   3.065   5.924 -0.1013 -4.2400  1.2231
  138OSM   H12B15003   3.431   3.003   6.043  0.4919  0.3341 -2.2861
  138OSM    C1115004   3.482   3.204   5.981 -0.7004 -0.1336 -0.1749
  138OSM   H11A15005   3.434   3.296   5.942  1.2782  0.2394 -1.7966
  138OSM   H11B15006   3.544   3.163   5.897  1.9878 -0.3240  1.8496
  138OSM      P15007   3.678   3.339   6.088 -0.1494  0.2745 -0.1344
  138OSM    O1315008   3.814   3.282   6.084 -0.0381  0.1299  0.6334
  138OSM    O1415009   3.644   3.448   5.995 -0.5194 -0.0147 -0.3217
  138OSM    O1115010   3.678   3.407   6.227  0.0036  0.3091 -0.4307
  138OSM    O1215011   3.566   3.237   6.090  0.2483 -0.1400 -0.5876
  138OSM    C1S15012   3.611   3.341   6.334 -1.1505 -0.3117  0.5407
  138OSM    H1S15013   3.633   3.233   6.330  0.1151 -0.0325 -0.6140
  138OSM    H1T15014   3.504   3.367   6.319 -0.5502  0.7462 -2.1378
  138OSM     NF15015   3.571   3.309   6.569  0.0741 -0.5897  0.0208
  138OSM    HNF15016   3.478   3.344   6.581  0.3048 -0.6206  2.0950
  138OSM    C2S15017   3.666   3.374   6.476  0.0079  0.7291 -1.0516
  138OSM    H2S15018   3.764   3.323   6.483 -0.8536 -0.7593  0.5234
  138OSM    C3S15019   3.691   3.527   6.498 -0.0577 -0.3694  0.4250
  138OSM    H3S15020   3.600   3.590   6.485  1.3826  1.4074 -1.2991
  138OSM     O315021   3.784   3.585   6.409  0.3207 -0.2119 -0.3880
  138OSM    HO315022   3.791   3.512   6.348  1.4629 -0.2196 -0.2536
  138OSM    C4S15023   3.747   3.550   6.637  0.1930  0.3389  0.3892
  138OSM    H4S15024   3.830   3.483   6.663  1.6667  1.6917 -0.7829
  138OSM    C5S15025   3.710   3.640   6.735 -0.1410 -0.2442 -0.0040
  138OSM    H5S15026   3.612   3.689   6.725  0.4811  1.4936  1.7946
  138OSM    C6S15027   3.779   3.658   6.874  0.5495 -0.1095 -0.2913
  138OSM    H6S15028   3.824   3.759   6.872 -0.8431  0.5380  0.2654
  138OSM    H6T15029   3.847   3.574   6.901  0.0930 -0.3322  0.1691
  138OSM    C7S15030   3.676   3.655   6.989  0.2355 -0.2997 -0.7929
  138OSM    H7S15031   3.644   3.549   7.000  2.1759 -0.9485 -1.2255
  138OSM    H7T15032   3.581   3.687   6.942 -0.1783  0.5174  0.5900
  138OSM    C8S15033   3.712   3.731   7.112  1.2144 -0.0094 -0.5491
  138OSM    H8S15034   3.640   3.709   7.193  1.1901  0.4554 -0.4405
  138OSM    H8T15035   3.712   3.841   7.093 -1.3691 -0.2975 -2.3714
  138OSM    C9S15036   3.856   3.708   7.170  0.5251  0.4563  0.0225
  138OSM    H9S15037   3.869   3.786   7.249  1.7862  0.3650 -0.0720
  138OSM    H9T15038   3.933   3.743   7.097  1.3006  1.9209  1.4854
  138OSM   C10S15039   3.882   3.564   7.218  0.3959 -0.5988 -0.1291
  138OSM   H10S15040   3.924   3.494   7.143 -1.3872  0.4830 -2.2000
  138OSM   H10T15041   3.787   3.514   7.248 -0.3808  1.5818  1.1872
  138OSM   C11S15042   3.968   3.557   7.342  0.7016 -0.0470 -0.7331
  138OSM   H11S15043   4.057   3.623   7.336 -0.3485  1.2869 -1.9030
  138OSM   H11T15044   4.009   3.454   7.352 -0.7280 -0.4858  0.7576
  138OSM   C12S15045   3.890   3.573   7.478  0.2162 -0.3136 -0.3436
  138OSM   H12S15046   3.814   3.492   7.472 -0.8812  0.5942  0.8621
  138OSM   H12T15047   3.824   3.662   7.467 -0.8068 -1.1209 -0.8169
  138OSM   C13S15048   3.980   3.563   7.613  0.1246 -0.2932  0.2818
  138OSM   H13S15049   4.032   3.661   7.612 -0.2450 -0.0582  2.0349
  138OSM   H13T15050   4.060   3.486   7.612  1.8283  1.4462  0.6217
  138OSM   C14S15051   3.886   3.567   7.739 -0.1258 -0.1486 -0.3695
  138OSM   H14S15052   3.810   3.491   7.712 -2.6840  1.8097  1.1097
  138OSM   H14T15053   3.830   3.662   7.726  0.3699 -0.0453 -1.9575
  138OSM   C15S15054   3.949   3.525   7.869 -0.0524  0.7281 -0.3715
  138OSM   H15S15055   3.967   3.416   7.859 -0.6857  0.3232  2.3219
  138OSM   H15T15056   3.871   3.545   7.946  0.8529 -0.4666  0.8672
  138OSM   C16S15057   4.081   3.588   7.922 -0.2374 -0.4010 -0.2604
  138OSM   H16S15058   4.088   3.698   7.909 -0.1675 -0.3699  0.0536
  138OSM   H16T15059   4.155   3.542   7.853 -1.7626  1.9231 -3.5578
  138OSM   C17S15060   4.111   3.554   8.070 -0.2403 -0.1425  0.5556
  138OSM   H17S15061   4.220   3.551   8.093  0.4751 -0.2460 -2.5714
  138OSM   H17T15062   4.077   3.449   8.083  0.0975 -0.7424 -2.8163
  138OSM   C18S15063   4.033   3.639   8.172  0.4690  0.8981  0.5323
  138OSM   H18S15064   3.938   3.670   8.125  0.2252  1.1321  1.1706
  138OSM   H18T15065   4.096   3.731   8.178  1.7430  0.2666 -2.4036
  138OSM   H18U15066   4.022   3.589   8.271  3.4668  0.8523  0.9131
  138OSM    C1F15067   3.574   3.175   6.596  0.1353 -0.0638 -0.3883
  138OSM     OF15068   3.659   3.108   6.543  0.0235  0.0695 -0.1025
  138OSM    C2F15069   3.471   3.125   6.685  0.0058 -0.4000  0.3214
  138OSM    H2F15070   3.373   3.135   6.633  1.3312 -1.2379 -2.4607
  138OSM    H2G15071   3.463   3.192   6.773  2.2627 -0.7392  0.8009
  138OSM    C3F15072   3.497   2.983   6.734 -0.1828 -0.1488  0.9157
  138OSM    H3F15073   3.584   2.986   6.802  1.9697 -0.1041 -1.7659
  138OSM    H3G15074   3.523   2.914   6.650  1.6458  1.8640 -0.2190
  138OSM    C4F15075   3.374   2.921   6.802  0.6627 -0.4114  0.6351
  138OSM    H4F15076   3.296   2.905   6.724  0.4161 -1.5340  1.1142
  138OSM    H4G15077   3.328   2.987   6.878  2.2899  1.3935  0.0921
  138OSM    C5F15078   3.400   2.793   6.870  0.7626  0.6678  0.5283
  138OSM    H5F15079   3.435   2.717   6.798  1.0162  0.9182  0.3896
  138OSM    H5G15080   3.308   2.741   6.907  1.5078 -0.7467  0.4150
  138OSM    C6F15081   3.497   2.792   6.995 -0.4836  0.4305 -0.2612
  138OSM    H6F15082   3.586   2.850   6.962 -0.5506  1.7935  1.8711
  138OSM    H6G15083   3.521   2.689   7.030  0.6925  0.9384  0.4612
  138OSM    C7F15084   3.450   2.878   7.111 -0.3106  0.0990 -0.0792
  138OSM    H7F15085   3.339   2.874   7.121 -0.1820  0.1022  1.4242
  138OSM    H7G15086   3.466   2.982   7.076 -0.3440  0.4303  0.8721
  138OSM    C8F15087   3.537   2.852   7.241  0.5870  0.5716 -0.0892
  138OSM    H8F15088   3.646   2.860   7.220  0.3453  1.5264 -1.0090
  138OSM    H8G15089   3.524   2.745   7.268 -0.8424  0.7638  0.0381
  138OSM    C9F15090   3.492   2.951   7.353  0.2972 -0.1967  0.0099
  138OSM    H9F15091   3.445   3.038   7.303  0.6049  1.5664  2.6529
  138OSM   C10F15092   3.488   2.918   7.483 -0.4546 -0.1211  0.2736
  138OSM   H10F15093   3.457   2.995   7.556 -2.1300 -0.1143 -0.4171
  138OSM   C11F15094   3.515   2.780   7.528 -0.1601  0.6622 -0.0346
  138OSM   H11F15095   3.614   2.745   7.494 -0.0727  0.6973  0.1803
  138OSM   H11G15096   3.441   2.719   7.473  1.2258 -0.6540 -0.4664
  138OSM   C12F15097   3.503   2.755   7.682 -0.3275  0.1910  0.2225
  138OSM   H12F15098   3.441   2.664   7.694  0.1194 -0.4144 -1.9262
  138OSM   H12G15099   3.451   2.843   7.726  0.6593  0.3344  1.1341
  138OSM   C13F15100   3.636   2.739   7.755 -0.7894 -0.8390  0.6479
  138OSM   H13F15101   3.699   2.826   7.725 -2.1959 -0.3900 -1.1191
  138OSM   H13G15102   3.688   2.648   7.719 -0.2657 -0.0591 -0.5967
  138OSM   C14F15103   3.620   2.722   7.899 -0.2087  0.4516 -0.2805
  138OSM   H14F15104   3.578   2.619   7.908  2.0307 -0.4482  0.0962
  138OSM   H14G15105   3.539   2.780   7.949  0.5452  0.5261  0.8926
  138OSM   C15F15106   3.744   2.737   7.980 -0.2162  0.5310  0.6219
  138OSM   H15F15107   3.781   2.841   7.987 -1.1570  0.8207  1.3414
  138OSM   H15G15108   3.827   2.679   7.934 -1.8403 -3.0889  2.0258
  138OSM   C16F15109   3.716   2.678   8.123  0.5573 -0.1537  0.1414
  138OSM   H16F15110   3.689   2.572   8.102 -3.7711  0.8434  0.2111
  138OSM   H16G15111   3.622   2.722   8.163  0.8222 -1.1220  1.9112
  138OSM   C17F15112   3.830   2.703   8.228 -0.9394 -0.0402 -0.3511
  138OSM   H17F15113   3.825   2.628   8.310 -3.1435  1.5442  1.0088
  138OSM   H17G15114   3.813   2.797   8.285 -0.5368 -0.3329  0.2663
  138OSM   C18F15115   3.968   2.709   8.167 -0.2993  0.2875 -0.0181
  138OSM   H18F15116   3.975   2.798   8.101  0.2962  0.0846 -0.2330
  138OSM   H18G15117   3.999   2.619   8.110 -1.2306 -0.8005  1.1542
  138OSM   H18H15118   4.049   2.729   8.241 -0.6278  0.8692  0.1898
  139OSM      N15119   3.511   3.929   6.305  0.3811  0.8268  0.6115
  139OSM    C1515120   3.440   4.051   6.367 -0.3784  0.1961  0.0456
  139OSM   H15A15121   3.354   4.019   6.423 -0.3316  2.5100  1.5176
  139OSM   H15B15122   3.416   4.103   6.276 -2.0028 -1.6144 -0.5852
  139OSM   H15C15123   3.512   4.105   6.428  0.7832 -2.9743  1.6045
  139OSM    C1415124   3.619   3.970   6.203 -0.0856 -0.6301  0.0077
  139OSM   H14A15125   3.576   4.031   6.125 -0.4608 -1.3272 -0.3298
  139OSM   H14B15126   3.661   3.883   6.157  0.0164 -1.1486  1.0588
  139OSM   H14C15127   3.699   4.022   6.254 -0.4044  1.2690 -1.3761
  139OSM    C1315128   3.578   3.845   6.411  0.4005 -0.0195 -0.0531
  139OSM   H13A15129   3.649   3.905   6.466 -1.6539  0.4850  2.1390
  139OSM   H13B15130   3.631   3.757   6.380 -1.1932 -2.0335  2.7557
  139OSM   H13C15131   3.516   3.815   6.494 -0.6159 -0.2075 -0.8593
  139OSM    C1215132   3.405   3.841   6.245 -0.8077 -0.2540  1.1965
  139OSM   H12A15133   3.334   3.825   6.324 -1.1921 -2.0235  0.5214
  139OSM   H12B15134   3.450   3.747   6.216 -1.5160  0.6218 -3.2180
  139OSM    C1115135   3.326   3.901   6.121 -0.6852  0.0629 -0.8185
  139OSM   H11A15136   3.261   3.815   6.095 -0.9650 -0.2208  0.8005
  139OSM   H11B15137   3.401   3.911   6.040  0.5699 -0.6692  0.2330
  139OSM      P15138   3.147   4.088   6.052  0.3931  0.4905  0.5298
  139OSM    O1315139   3.222   4.178   5.964 -1.0689 -0.3580 -0.3189
  139OSM    O1415140   3.068   3.977   5.989 -0.1887  0.4765 -0.0186
  139OSM    O1115141   3.052   4.172   6.154 -0.3010  0.1768  0.0543
  139OSM    O1215142   3.251   4.018   6.149  0.0282 -0.1299 -0.0749
  139OSM    C1S15143   3.111   4.240   6.265  0.3288  0.1073  0.9502
  139OSM    H1S15144   3.120   4.345   6.230  0.0765  0.0382  0.6775
  139OSM    H1T15145   3.213   4.207   6.294 -0.0793 -1.0069  1.1738
  139OSM     NF15146   3.083   4.321   6.502 -0.1995  0.2318 -0.0495
  139OSM    HNF15147   3.145   4.285   6.571  1.3721  1.7115 -0.6670
  139OSM    C2S15148   3.029   4.229   6.401 -0.1134  0.3364 -0.5115
  139OSM    H2S15149   2.925   4.264   6.380 -1.3109 -2.4846  0.4360
  139OSM    C3S15150   3.021   4.074   6.446 -0.7304 -0.1308  0.6628
  139OSM    H3S15151   3.123   4.032   6.457 -0.2828  0.8436  0.3083
  139OSM     O315152   2.960   3.990   6.345  0.1465 -0.0407 -0.3252
  139OSM    HO315153   2.948   4.038   6.263  1.8821  0.1279 -0.5074
  139OSM    C4S15154   2.945   4.075   6.571 -0.2043  1.0489  0.7657
  139OSM    H4S15155   2.996   4.065   6.668  0.2303  1.8659  0.6196
  139OSM    C5S15156   2.810   4.081   6.577 -0.0626  0.2755  0.9492
  139OSM    H5S15157   2.752   4.071   6.485  0.3623 -1.5000  0.8596
  139OSM    C6S15158   2.740   4.076   6.703  0.8974  0.2811  0.0404
  139OSM    H6S15159   2.775   3.993   6.766 -0.7322  0.4558  1.2068
  139OSM    H6T15160   2.633   4.049   6.687  0.5782  0.3131  2.0412
  139OSM    C7S15161   2.735   4.213   6.775  0.2004  0.2369 -0.7323
  139OSM    H7S15162   2.693   4.292   6.710  1.5939  1.9570  0.4202
  139OSM    H7T15163   2.836   4.241   6.813 -1.4818  1.7799  2.7709
  139OSM    C8S15164   2.645   4.210   6.900 -0.7745 -0.1057  0.1212
  139OSM    H8S15165   2.677   4.133   6.972  0.2034 -0.4801 -0.6983
  139OSM    H8T15166   2.535   4.206   6.882 -0.6902 -0.1128 -0.3942
  139OSM    C9S15167   2.679   4.334   6.990 -1.0335 -0.0217 -0.6676
  139OSM    H9S15168   2.582   4.368   7.033 -1.0977  0.1685 -0.9616
  139OSM    H9T15169   2.707   4.411   6.915 -0.8381 -1.1914 -1.8161
  139OSM   C10S15170   2.802   4.306   7.090 -0.0514 -0.4555  0.0378
  139OSM   H10S15171   2.896   4.290   7.032 -0.6455 -3.1910 -0.2290
  139OSM   H10T15172   2.783   4.207   7.136  1.1131 -0.1057  1.3406
  139OSM   C11S15173   2.830   4.401   7.205 -0.1316 -0.1706  0.0699
  139OSM   H11S15174   2.743   4.468   7.216  0.8521  0.6912  3.1929
  139OSM   H11T15175   2.921   4.459   7.177 -1.1441  0.7836 -1.2906
  139OSM   C12S15176   2.864   4.320   7.333 -0.0315 -0.0313  0.2984
  139OSM   H12S15177   2.964   4.273   7.323 -0.5759 -1.2343  0.3750
  139OSM   H12T15178   2.786   4.242   7.350  0.6686 -0.3976  1.9111
  139OSM   C13S15179   2.882   4.399   7.460  0.6105  0.1190  0.0425
  139OSM   H13S15180   2.954   4.478   7.428 -0.4136  1.0094 -0.1022
  139OSM   H13T15181   2.920   4.349   7.552  1.5982  1.0181  0.1458
  139OSM   C14S15182   2.753   4.470   7.506  0.2697  0.2419  0.2214
  139OSM   H14S15183   2.671   4.395   7.501 -1.1078  1.4282  3.6228
  139OSM   H14T15184   2.738   4.542   7.423 -1.0217 -0.8031 -0.4581
  139OSM   C15S15185   2.756   4.535   7.648 -0.8391  0.2761  0.4100
  139OSM   H15S15186   2.757   4.451   7.721  3.7078 -0.0353  0.1202
  139OSM   H15T15187   2.660   4.589   7.663 -0.4896  1.3980 -1.2684
  139OSM   C16S15188   2.875   4.626   7.677  0.2478 -0.4408 -0.3141
  139OSM   H16S15189   2.868   4.706   7.600  1.5685 -1.0956 -1.1303
  139OSM   H16T15190   2.962   4.558   7.668  0.3521 -0.2757 -0.5752
  139OSM   C17S15191   2.872   4.689   7.815 -0.2043 -0.3211  0.3301
  139OSM   H17S15192   2.805   4.776   7.830  1.7321  1.2654  0.0762
  139OSM   H17T15193   2.973   4.736   7.814  0.1105 -1.0007 -2.4527
  139OSM   C18S15194   2.858   4.604   7.947 -0.1822 -0.2866 -0.1371
  139OSM   H18S15195   2.927   4.521   7.973 -0.5400 -0.7113 -0.5422
  139OSM   H18T15196   2.757   4.559   7.942 -0.8448  1.2225 -0.9610
  139OSM   H18U15197   2.862   4.685   8.023  0.4320  0.1529 -0.6241
  139OSM    C1F15198   3.064   4.450   6.497  0.7959 -0.2411 -0.4018
  139OSM     OF15199   2.993   4.506   6.406  0.4662 -0.1857  0.4713
  139OSM    C2F15200   3.127   4.537   6.604 -0.7406  0.2286  0.0806
  139OSM    H2F15201   3.147   4.640   6.567  1.4004 -0.3043 -0.3029
  139OSM    H2G15202   3.220   4.487   6.639 -1.3339 -0.5092  0.6153
  139OSM    C3F15203   3.034   4.551   6.727 -0.6416 -0.6654 -0.7804
  139OSM    H3F15204   3.036   4.453   6.780  1.5625 -1.0971 -1.6218
  139OSM    H3G15205   2.936   4.591   6.692 -0.0436  1.0148 -0.5980
  139OSM    C4F15206   3.101   4.644   6.829  0.6024 -0.4821  0.0596
  139OSM    H4F15207   3.119   4.741   6.777  0.0261 -0.2203  0.3483
  139OSM    H4G15208   3.200   4.605   6.860  0.6460 -1.3239 -1.1095
  139OSM    C5F15209   3.008   4.677   6.943  0.3910  0.8482 -0.2141
  139OSM    H5F15210   2.980   4.588   7.002 -2.1802  1.3785 -0.5831
  139OSM    H5G15211   2.913   4.698   6.889  1.2353 -2.1632 -3.0251
  139OSM    C6F15212   3.056   4.797   7.026  0.7524  0.1377  0.5946
  139OSM    H6F15213   2.974   4.818   7.098  0.8724  1.4192  0.3579
  139OSM    H6G15214   3.075   4.884   6.960 -0.4778  1.4742  1.9760
  139OSM    C7F15215   3.185   4.783   7.114 -0.3701  0.2841 -0.3081
  139OSM    H7F15216   3.185   4.870   7.183  0.7803 -0.8689  1.1886
  139OSM    H7G15217   3.271   4.778   7.044 -0.6823 -0.3171 -0.6498
  139OSM    C8F15218   3.187   4.665   7.215 -0.2779  0.1412 -0.9881
  139OSM    H8F15219   3.183   4.574   7.151 -0.8526  0.9870 -2.1833
  139OSM    H8G15220   3.096   4.658   7.278 -1.0017  2.1162 -1.7926
  139OSM    C9F15221   3.313   4.671   7.300  0.4034 -0.4405 -0.3123
  139OSM    H9F15222   3.398   4.723   7.252 -0.6725  2.1567  0.5402
  139OSM   C10F15223   3.341   4.614   7.418 -0.2560  0.4098  0.4405
  139OSM   H10F15224   3.443   4.631   7.455 -1.0147  3.3770  1.2488
  139OSM   C11F15225   3.248   4.525   7.502 -0.1526 -0.0549  0.4424
  139OSM   H11F15226   3.143   4.518   7.465  0.1329  0.1689 -0.4245
  139OSM   H11G15227   3.251   4.574   7.602  3.0693 -0.3579  0.5284
  139OSM   C12F15228   3.304   4.383   7.508  0.2305  0.7508  0.0887
  139OSM   H12F15229   3.407   4.383   7.548  0.2474  1.2465  0.0539
  139OSM   H12G15230   3.318   4.341   7.406 -2.4827  0.3984 -0.1910
  139OSM   C13F15231   3.223   4.286   7.599 -0.1614 -0.2955  0.3820
  139OSM   H13F15232   3.273   4.187   7.600 -0.2820 -0.3550  0.5073
  139OSM   H13G15233   3.121   4.277   7.556 -0.4058 -0.3068  0.9575
  139OSM   C14F15234   3.221   4.316   7.747  0.3746  0.2640  0.1497
  139OSM   H14F15235   3.202   4.424   7.762 -1.0731  0.0507 -0.0622
  139OSM   H14G15236   3.319   4.304   7.797 -0.1700 -1.0433  0.9334
  139OSM   C15F15237   3.120   4.229   7.822 -0.0933  0.3923  0.1088
  139OSM   H15F15238   3.163   4.127   7.836  1.5596  1.1660  0.8254
  139OSM   H15G15239   3.021   4.234   7.773  0.6096  2.1679 -1.2038
  139OSM   C16F15240   3.113   4.278   7.970 -0.2972  0.2005 -0.0292
  139OSM   H16F15241   3.087   4.385   7.974  1.6607  0.6650  1.3510
  139OSM   H16G15242   3.213   4.265   8.017 -0.7260  0.1299  0.8583
  139OSM   C17F15243   3.010   4.208   8.058  0.5644 -0.0233  0.2190
  139OSM   H17F15244   2.918   4.181   8.002 -0.2692 -0.1452  1.6225
  139OSM   H17G15245   2.992   4.261   8.154  0.8067 -2.6461  1.7543
  139OSM   C18F15246   3.057   4.064   8.085  0.8152  1.4235 -0.2910
  139OSM   H18F15247   3.157   4.063   8.135  0.6207 -0.5222  0.0819
  139OSM   H18G15248   3.067   4.004   7.992  1.4864  1.0456  0.0202
  139OSM   H18H15249   2.995   4.012   8.160  0.0136  1.3026 -1.0352
  140OSM      N15250   2.537   5.448   6.388  0.0170 -0.3069  0.3694
  140OSM    C1515251   2.604   5.314   6.412 -0.3036  0.3542 -0.3403
  140OSM   H15A15252   2.699   5.326   6.461  0.4977  2.0982 -2.2244
  140OSM   H15B15253   2.594   5.256   6.322  0.6633  2.2697 -1.7270
  140OSM   H15C15254   2.551   5.255   6.486 -0.3029  1.9945  0.9954
  140OSM    C1415255   2.566   5.490   6.250  0.4272  0.5873 -0.8501
  140OSM   H14A15256   2.673   5.488   6.245  0.4654 -2.0190  0.4392
  140OSM   H14B15257   2.529   5.589   6.228 -0.3381  0.5235  0.1251
  140OSM   H14C15258   2.511   5.421   6.188 -2.5991  1.4284  0.8001
  140OSM    C1315259   2.398   5.423   6.415  0.0639  0.2378 -0.0316
  140OSM   H13A15260   2.361   5.349   6.345 -0.0742  0.7203 -0.4752
  140OSM   H13B15261   2.338   5.512   6.403  1.2808  1.4029  2.2119
  140OSM   H13C15262   2.400   5.368   6.507 -2.2620 -3.3416 -1.9857
  140OSM    C1215263   2.586   5.550   6.489 -0.4325  0.0699  0.3220
  140OSM   H12A15264   2.692   5.563   6.471 -0.5949 -2.0308 -2.5308
  140OSM   H12B15265   2.580   5.513   6.590 -0.1699  2.5188  1.2715
  140OSM    C1115266   2.532   5.692   6.490 -0.5345 -1.0225  0.1812
  140OSM   H11A15267   2.557   5.739   6.588 -1.7451 -2.3780  1.1529
  140OSM   H11B15268   2.422   5.688   6.499 -0.5333 -0.9336  0.2270
  140OSM      P15269   2.718   5.844   6.407 -0.2060  0.3060  0.4632
  140OSM    O1315270   2.792   5.838   6.278  0.1391  0.1963  0.2302
  140OSM    O1415271   2.691   5.984   6.454  0.4030 -0.7058 -0.9086
  140OSM    O1115272   2.792   5.754   6.519 -0.4906  0.8096 -0.1052
  140OSM    O1215273   2.580   5.776   6.383 -0.1677  0.5272  0.1165
  140OSM    C1S15274   2.932   5.747   6.529 -0.2615 -0.2792 -0.0315
  140OSM    H1S15275   2.983   5.824   6.467  0.5006 -1.0178 -0.3274
  140OSM    H1T15276   2.971   5.648   6.498 -0.0769 -0.1715 -0.1428
  140OSM     NF15277   3.128   5.811   6.681 -0.6823 -0.0155  0.0963
  140OSM    HNF15278   3.190   5.738   6.709  2.4739  3.0410  1.3683
  140OSM    C2S15279   2.986   5.783   6.669 -0.1503 -0.5399  0.2169
  140OSM    H2S15280   2.933   5.872   6.710 -3.7008 -2.4434  0.0156
  140OSM    C3S15281   2.945   5.666   6.763 -0.3574  0.3694 -0.4342
  140OSM    H3S15282   2.986   5.568   6.732  3.0437  1.4640  0.3728
  140OSM     O315283   2.801   5.650   6.769  0.0029  0.0036  0.7212
  140OSM    HO315284   2.776   5.690   6.686  0.5610  3.0062  1.9572
  140OSM    C4S15285   2.998   5.692   6.906  0.3082 -0.2803  0.5264
  140OSM    H4S15286   2.953   5.776   6.960 -0.0311 -0.9105  1.2372
  140OSM    C5S15287   3.089   5.617   6.968 -0.5372 -0.2604  0.9015
  140OSM    H5S15288   3.117   5.528   6.910  0.6699 -0.1164  1.2464
  140OSM    C6S15289   3.158   5.631   7.103  0.2655 -0.1541  0.8253
  140OSM    H6S15290   3.124   5.724   7.154 -0.3251 -0.9610  1.9212
  140OSM    H6T15291   3.269   5.632   7.101  0.2463 -0.2624 -1.4654
  140OSM    C7S15292   3.121   5.507   7.194  0.6428  0.6040 -0.3355
  140OSM    H7S15293   3.143   5.413   7.140  0.4295  0.9964 -1.1141
  140OSM    H7T15294   3.012   5.506   7.218  0.5167  0.6347 -0.8975
  140OSM    C8S15295   3.174   5.504   7.338 -0.3523 -0.4037 -0.2701
  140OSM    H8S15296   3.151   5.601   7.387  0.2207 -0.7688  0.7504
  140OSM    H8T15297   3.284   5.492   7.354 -0.3475 -1.8766 -1.2958
  140OSM    C9S15298   3.111   5.392   7.429 -0.0447  0.0325  0.0848
  140OSM    H9S15299   3.136   5.290   7.391  0.3629 -0.1001  0.7112
  140OSM    H9T15300   3.002   5.411   7.428  0.0105  0.4154  1.4178
  140OSM   C10S15301   3.141   5.404   7.582  0.0743 -0.2886  0.3996
  140OSM   H10S15302   3.237   5.352   7.606  0.4281 -0.0916 -0.5749
  140OSM   H10T15303   3.066   5.339   7.632 -0.4124  1.8585  2.6148
  140OSM   C11S15304   3.132   5.539   7.653  0.3072  0.0243 -0.4978
  140OSM   H11S15305   3.033   5.580   7.625  1.8197  3.1394 -1.4618
  140OSM   H11T15306   3.213   5.607   7.621  0.3788  0.5631  0.7953
  140OSM   C12S15307   3.132   5.529   7.805 -0.3435 -0.2784 -0.0343
  140OSM   H12S15308   3.213   5.464   7.846  3.2042  4.1651  0.3789
  140OSM   H12T15309   3.039   5.482   7.844 -0.7880 -0.8565 -1.7256
  140OSM   C13S15310   3.134   5.667   7.863  0.7078  0.0482 -0.5434
  140OSM   H13S15311   3.045   5.726   7.832  1.2281  0.6817 -0.8301
  140OSM   H13T15312   3.228   5.722   7.841  1.3112 -1.3123 -1.4464
  140OSM   C14S15313   3.131   5.675   8.021 -0.5067  0.0463  0.1197
  140OSM   H14S15314   3.036   5.632   8.058  0.6027 -1.8638  0.8340
  140OSM   H14T15315   3.147   5.782   8.047  1.6659 -0.1554 -0.2627
  140OSM   C15S15316   3.254   5.607   8.091  0.5350 -0.0606 -0.0272
  140OSM   H15S15317   3.348   5.630   8.036  0.7778  0.0844  0.4423
  140OSM   H15T15318   3.253   5.497   8.083 -1.0437  0.1050 -2.3883
  140OSM   C16S15319   3.251   5.640   8.242  0.7214  0.2803  0.7121
  140OSM   H16S15320   3.160   5.606   8.297  1.1983  0.0572  1.3737
  140OSM   H16T15321   3.252   5.751   8.247 -1.6281  0.3862 -0.3169
  140OSM   C17S15322   3.381   5.596   8.307 -0.4197 -0.3125 -0.4466
  140OSM   H17S15323   3.471   5.636   8.256  1.3785 -2.0258  1.2666
  140OSM   H17T15324   3.385   5.485   8.310  1.3848 -0.2327  1.0183
  140OSM   C18S15325   3.404   5.646   8.449  0.0319 -0.3791 -0.0530
  140OSM   H18S15326   3.497   5.603   8.491 -0.7326 -0.8501  1.1638
  140OSM   H18T15327   3.310   5.618   8.500 -1.2365  1.9792 -0.9703
  140OSM   H18U15328   3.414   5.757   8.448  0.7426 -0.4066  2.0858
  140OSM    C1F15329   3.185   5.914   6.615  0.1396 -0.2053  0.2773
  140OSM     OF15330   3.120   6.005   6.566 -0.0363  0.2710 -0.8545
  140OSM    C2F15331   3.336   5.915   6.598 -0.5347 -0.5267  0.2982
  140OSM    H2F15332   3.365   6.008   6.545 -0.3351 -0.1222  1.1191
  140OSM    H2G15333   3.369   5.831   6.533  0.6666  0.0374  0.1724
  140OSM    C3F15334   3.415   5.908   6.727 -0.1972  0.4617 -0.7038
  140OSM    H3F15335   3.522   5.904   6.698 -0.4141 -0.8099 -1.3521
  140OSM    H3G15336   3.393   5.811   6.777 -2.2559  0.7011 -1.1140
  140OSM    C4F15337   3.403   6.029   6.826  0.2830 -0.3263  0.4847
  140OSM    H4F15338   3.365   6.118   6.772 -0.2994 -1.5187 -1.1071
  140OSM    H4G15339   3.502   6.043   6.874 -0.2836 -0.5321  1.7430
  140OSM    C5F15340   3.297   6.017   6.931  1.0402  0.5080  0.2409
  140OSM    H5F15341   3.215   5.958   6.884  1.8226 -2.0155  1.9209
  140OSM    H5G15342   3.243   6.103   6.976  0.4953  0.2127  0.1621
  140OSM    C6F15343   3.335   5.945   7.058  0.0592 -0.1891 -0.3755
  140OSM    H6F15344   3.403   5.861   7.032  1.9102  1.3060 -0.4886
  140OSM    H6G15345   3.247   5.894   7.101  0.7727 -1.3339 -0.2678
  140OSM    C7F15346   3.395   6.051   7.157 -0.3783  0.0330  0.5201
  140OSM    H7F15347   3.313   6.103   7.211  0.2407  0.0666  1.4355
  140OSM    H7G15348   3.448   6.136   7.110  0.9957  1.4418  4.4889
  140OSM    C8F15349   3.489   5.979   7.258 -0.0960 -0.2585  0.2908
  140OSM    H8F15350   3.520   6.056   7.333 -0.1591 -1.9263  2.0705
  140OSM    H8G15351   3.576   5.942   7.200 -0.8825 -0.8619 -0.5134
  140OSM    C9F15352   3.429   5.863   7.340  0.3319 -0.1816  0.7359
  140OSM    H9F15353   3.404   5.767   7.291 -1.1338  0.6732 -0.2362
  140OSM   C10F15354   3.416   5.860   7.467 -0.0153  0.2763 -0.7802
  140OSM   H10F15355   3.370   5.770   7.510 -0.3022  0.8873  0.1993
  140OSM   C11F15356   3.459   5.958   7.570  0.2424 -0.1133  0.4717
  140OSM   H11F15357   3.368   6.015   7.598  2.0214  1.7531  2.5348
  140OSM   H11G15358   3.530   6.031   7.525 -0.9001 -1.0712 -3.1058
  140OSM   C12F15359   3.523   5.882   7.691  0.4912  0.4033  0.5185
  140OSM   H12F15360   3.615   5.831   7.656  0.8274  0.4065  1.3865
  140OSM   H12G15361   3.447   5.804   7.714 -1.0297  1.1541 -1.8510
  140OSM   C13F15362   3.536   5.975   7.812  0.5038  0.2584 -0.2913
  140OSM   H13F15363   3.445   6.038   7.802  1.0360  0.7800 -2.0818
  140OSM   H13G15364   3.618   6.049   7.800  0.7952 -0.0517 -0.2203
  140OSM   C14F15365   3.561   5.913   7.945 -0.1832  0.2616  0.5751
  140OSM   H14F15366   3.665   5.875   7.944  0.4921  2.0807  0.6112
  140OSM   H14G15367   3.491   5.833   7.977  1.2043 -1.1402  0.1743
  140OSM   C15F15368   3.546   6.023   8.054 -0.4547  0.1875 -0.3182
  140OSM   H15F15369   3.444   6.067   8.041  0.2391  1.9821  0.1906
  140OSM   H15G15370   3.627   6.098   8.043  0.4503 -0.5537  1.1433
  140OSM   C16F15371   3.539   5.958   8.195 -0.0158  0.0896  1.5503
  140OSM   H16F15372   3.637   5.905   8.200 -0.6213 -1.0948  0.9669
  140OSM   H16G15373   3.459   5.881   8.203  0.1277 -0.2252  0.0838
  140OSM   C17F15374   3.543   6.058   8.303  0.0063 -0.5113  0.4626
  140OSM   H17F15375   3.440   6.100   8.305  0.3056  0.2036  1.0354
  140OSM   H17G15376   3.625   6.125   8.270 -0.3341  0.0044  0.6524
  140OSM   C18F15377   3.595   5.991   8.427 -0.3163  0.6480  0.8784
  140OSM   H18F15378   3.688   5.935   8.404 -2.4082 -3.1769  1.2446
  140OSM   H18G15379   3.514   5.927   8.470 -1.9448  2.7210  0.9793
  140OSM   H18H15380   3.609   6.069   8.505  1.1839  0.9033  0.3650
  141OSM      N15381   1.975   0.960   5.877  0.2065  0.1990  0.1248
  141OSM    C1515382   2.038   0.853   5.789 -0.0103  0.0098 -0.2625
  141OSM   H15A15383   2.123   0.818   5.845 -0.3213  0.3941  0.4548
  141OSM   H15B15384   2.063   0.897   5.694 -2.2997  0.5090 -0.6657
  141OSM   H15C15385   1.975   0.767   5.772  0.2365 -0.1906 -0.1585
  141OSM    C1415386   2.061   1.086   5.874 -0.5243 -0.1214  0.5888
  141OSM   H14A15387   2.026   1.155   5.949 -2.3316 -0.0735 -0.2643
  141OSM   H14B15388   2.055   1.134   5.778 -2.0351 -0.0693  0.6906
  141OSM   H14C15389   2.161   1.049   5.891 -0.5158 -0.6906 -0.6163
  141OSM    C1315390   1.844   0.991   5.822 -0.0845 -0.3800  0.6693
  141OSM   H13A15391   1.853   1.008   5.716 -0.3351 -1.5233  0.4596
  141OSM   H13B15392   1.812   1.082   5.872 -0.7179 -0.3912  0.2823
  141OSM   H13C15393   1.777   0.908   5.840 -0.4462 -0.1297  0.4994
  141OSM    C1215394   1.971   0.896   6.017  0.5074  0.1587 -0.0324
  141OSM   H12A15395   1.934   0.795   6.016 -0.2788  0.4441 -0.0074
  141OSM   H12B15396   1.892   0.940   6.076 -0.1458 -0.4163 -0.4678
  141OSM    C1115397   2.091   0.898   6.109  0.1120 -0.1576 -0.4041
  141OSM   H11A15398   2.069   0.879   6.217  0.8426  1.5699  0.0646
  141OSM   H11B15399   2.126   1.003   6.115 -3.2493  1.1099 -1.8541
  141OSM      P15400   2.192   0.661   6.109 -0.2793  0.4160 -0.3071
  141OSM    O1315401   2.108   0.581   6.015 -0.5071 -0.4957 -0.4449
  141OSM    O1415402   2.332   0.622   6.122  0.2558 -0.2878  0.1004
  141OSM    O1115403   2.127   0.644   6.247  0.2002  0.6064  0.2770
  141OSM    O1215404   2.192   0.812   6.066  0.6892 -0.0287 -0.2666
  141OSM    C1S15405   2.201   0.626   6.370 -0.1318 -0.4462  0.6116
  141OSM    H1S15406   2.295   0.684   6.363 -1.4931  1.5779 -1.8197
  141OSM    H1T15407   2.223   0.518   6.382  1.3473 -0.3469 -0.9586
  141OSM     NF15408   2.212   0.675   6.623  1.3133  0.4181 -0.3299
  141OSM    HNF15409   2.204   0.602   6.691  0.9502  0.7658  0.0011
  141OSM    C2S15410   2.123   0.676   6.500 -0.0971  0.1807 -0.0469
  141OSM    H2S15411   2.091   0.781   6.484  0.7611  0.3533 -0.6856
  141OSM    C3S15412   1.993   0.589   6.510  0.1254 -0.0983 -0.8631
  141OSM    H3S15413   2.033   0.488   6.536 -1.0269 -0.5145 -0.6932
  141OSM     O315414   1.922   0.580   6.390  0.9413  0.2456  0.2135
  141OSM    HO315415   1.994   0.574   6.327 -0.5586  2.0336 -1.7483
  141OSM    C4S15416   1.908   0.650   6.614 -0.3678  0.2243 -0.7281
  141OSM    H4S15417   1.864   0.746   6.586  0.8992  0.5666 -1.5876
  141OSM    C5S15418   1.861   0.593   6.731 -0.2157 -0.2541 -0.2405
  141OSM    H5S15419   1.895   0.490   6.750 -1.2321 -0.2429  1.6755
  141OSM    C6S15420   1.790   0.662   6.833 -0.2506 -0.4328 -0.6985
  141OSM    H6S15421   1.682   0.644   6.817 -0.6588  0.5344  0.9419
  141OSM    H6T15422   1.805   0.771   6.821  0.6414 -0.5679 -0.8747
  141OSM    C7S15423   1.825   0.618   6.980 -0.3813 -0.1643 -0.0176
  141OSM    H7S15424   1.935   0.619   6.999 -0.2170 -0.4607 -0.9433
  141OSM    H7T15425   1.798   0.512   6.999  2.1141 -0.7906  0.3101
  141OSM    C8S15426   1.765   0.696   7.091  0.8084 -0.6429 -0.0500
  141OSM    H8S15427   1.655   0.681   7.096  0.4143  1.7853 -0.9180
  141OSM    H8T15428   1.790   0.803   7.076 -0.7066 -0.2432  0.2495
  141OSM    C9S15429   1.821   0.664   7.233 -0.2111  0.3167  0.2443
  141OSM    H9S15430   1.931   0.674   7.244  0.1893 -3.6295  0.6283
  141OSM    H9T15431   1.793   0.557   7.244  2.5994 -0.3122  1.8602
  141OSM   C10S15432   1.764   0.739   7.355 -0.0975 -0.3068  0.3360
  141OSM   H10S15433   1.654   0.724   7.363 -0.2253  1.2209  1.6321
  141OSM   H10T15434   1.773   0.849   7.340 -2.5749 -0.0674  0.3662
  141OSM   C11S15435   1.830   0.700   7.489 -0.5108  0.3528  0.4681
  141OSM   H11S15436   1.938   0.726   7.495  0.4795 -3.3697  0.1579
  141OSM   H11T15437   1.815   0.590   7.493  0.1909  0.1167 -2.4035
  141OSM   C12S15438   1.764   0.757   7.607 -0.0599 -0.0850  0.0370
  141OSM   H12S15439   1.656   0.746   7.587  0.1055 -1.0811 -0.3274
  141OSM   H12T15440   1.777   0.867   7.605 -0.3238 -0.0199  1.4997
  141OSM   C13S15441   1.804   0.702   7.746  0.5849 -0.1682 -0.6452
  141OSM   H13S15442   1.913   0.711   7.762  0.7058 -2.0045 -0.3814
  141OSM   H13T15443   1.793   0.592   7.744  2.0208 -0.4729  3.9654
  141OSM   C14S15444   1.718   0.755   7.863 -0.1690 -0.7742  0.1784
  141OSM   H14S15445   1.615   0.715   7.863  0.3643 -2.2231 -1.4711
  141OSM   H14T15446   1.718   0.864   7.842 -3.0067 -0.5779  1.0657
  141OSM   C15S15447   1.783   0.731   7.997 -0.4555 -0.3458  0.0019
  141OSM   H15S15448   1.885   0.773   7.987 -0.8129  0.6437  0.4050
  141OSM   H15T15449   1.787   0.622   8.022  1.1319 -0.7898 -2.0909
  141OSM   C16S15450   1.712   0.821   8.111  0.0776  0.2912 -0.0254
  141OSM   H16S15451   1.605   0.792   8.125  0.1679  0.0530  0.1601
  141OSM   H16T15452   1.708   0.926   8.076  0.6530  0.0970 -0.6876
  141OSM   C17S15453   1.790   0.800   8.242  0.4484 -0.0561 -0.8470
  141OSM   H17S15454   1.900   0.795   8.231  0.3839 -0.7560 -1.1975
  141OSM   H17T15455   1.767   0.694   8.266  1.6451 -0.0228  0.5430
  141OSM   C18S15456   1.755   0.901   8.352  0.3577  0.0478  0.3787
  141OSM   H18S15457   1.661   0.874   8.404  0.0964 -0.0309 -0.1350
  141OSM   H18T15458   1.749   1.007   8.322  0.3756 -0.0262  0.1090
  141OSM   H18U15459   1.836   0.903   8.428  0.7925  0.2463 -0.0900
  141OSM    C1F15460   2.329   0.736   6.635  0.1968 -0.2952  0.3849
  141OSM     OF15461   2.369   0.817   6.547  0.3297  0.4688 -0.1198
  141OSM    C2F15462   2.394   0.708   6.763  0.2250 -0.4033 -0.1405
  141OSM    H2F15463   2.437   0.606   6.764 -0.0511 -0.5751 -2.3869
  141OSM    H2G15464   2.327   0.705   6.852  1.2079  1.8071  0.7319
  141OSM    C3F15465   2.514   0.799   6.795 -0.5975 -0.1760 -0.3229
  141OSM    H3F15466   2.503   0.903   6.756  0.6222 -0.6918 -2.1174
  141OSM    H3G15467   2.597   0.749   6.741 -1.4494  0.0115 -1.8347
  141OSM    C4F15468   2.550   0.789   6.943 -0.0340 -0.4094  0.8966
  141OSM    H4F15469   2.570   0.682   6.963  0.4539 -0.3209  0.8903
  141OSM    H4G15470   2.455   0.816   6.994  0.9783  1.6571  1.7559
  141OSM    C5F15471   2.667   0.878   6.983  0.5599 -0.0837 -0.4496
  141OSM    H5F15472   2.617   0.977   6.988  0.1736 -0.1831 -2.2667
  141OSM    H5G15473   2.752   0.876   6.911  2.7122 -2.5049  2.0175
  141OSM    C6F15474   2.724   0.846   7.123  1.1068  0.0843  0.5478
  141OSM    H6F15475   2.815   0.903   7.150  0.1120  1.0138  2.0370
  141OSM    H6G15476   2.763   0.742   7.118  2.7336  0.6571  1.1598
  141OSM    C7F15477   2.618   0.865   7.238  0.0023  0.0660 -0.2912
  141OSM    H7F15478   2.541   0.785   7.234  0.0900 -0.1127  1.0638
  141OSM    H7G15479   2.574   0.967   7.235  0.1882  0.1788  0.6259
  141OSM    C8F15480   2.687   0.843   7.378  0.8755  0.4200 -0.0819
  141OSM    H8F15481   2.762   0.924   7.388  1.1089  0.2576 -0.5269
  141OSM    H8G15482   2.736   0.743   7.373  0.5688  0.1957  1.1384
  141OSM    C9F15483   2.586   0.862   7.487 -0.7674 -0.1066 -1.0242
  141OSM    H9F15484   2.529   0.768   7.499 -1.3937  0.4106  0.1284
  141OSM   C10F15485   2.567   0.955   7.576 -0.0273 -0.0074  0.4860
  141OSM   H10F15486   2.483   0.947   7.647 -1.0981  0.4849 -0.7131
  141OSM   C11F15487   2.638   1.091   7.590 -0.0933  0.0092  0.4202
  141OSM   H11F15488   2.561   1.168   7.565 -1.8007 -1.5912  0.5929
  141OSM   H11G15489   2.717   1.105   7.513 -2.4700  0.0856 -2.1137
  141OSM   C12F15490   2.695   1.115   7.727  0.0010  0.6914  0.7684
  141OSM   H12F15491   2.760   1.205   7.724  0.8187  0.1068  0.9578
  141OSM   H12G15492   2.763   1.033   7.758 -1.2543 -0.0504  1.5791
  141OSM   C13F15493   2.590   1.124   7.833 -0.5282  0.1649 -0.1869
  141OSM   H13F15494   2.538   1.026   7.843  1.8847 -1.4181 -2.2403
  141OSM   H13G15495   2.513   1.200   7.808 -0.4314  0.2086 -0.3498
  141OSM   C14F15496   2.641   1.158   7.974  0.0643 -0.3663 -0.1966
  141OSM   H14F15497   2.688   1.258   7.964  1.4292 -0.9070  0.5937
  141OSM   H14G15498   2.729   1.092   7.994  1.9319  1.7724 -1.0678
  141OSM   C15F15499   2.548   1.164   8.091  0.0213 -0.7400 -0.8444
  141OSM   H15F15500   2.467   1.237   8.067 -0.2770 -0.4610  0.9452
  141OSM   H15G15501   2.597   1.210   8.180 -1.3757  0.8429 -0.8634
  141OSM   C16F15502   2.492   1.033   8.144 -0.0029  0.3549  0.3199
  141OSM   H16F15503   2.563   0.971   8.203  1.2013  1.2145 -0.2028
  141OSM   H16G15504   2.465   0.959   8.065  1.2035  1.0742 -0.8026
  141OSM   C17F15505   2.364   1.048   8.231  0.5639  0.0270  0.6799
  141OSM   H17F15506   2.285   1.091   8.166 -0.5971 -1.2301  1.2373
  141OSM   H17G15507   2.380   1.120   8.314  0.6718  0.2413  0.4744
  141OSM   C18F15508   2.306   0.919   8.281 -0.5951 -0.3411 -1.1328
  141OSM   H18F15509   2.382   0.853   8.329  0.3823  0.5014 -1.4917
  141OSM   H18G15510   2.270   0.864   8.191 -1.1752  0.8457 -1.6357
  141OSM   H18H15511   2.225   0.961   8.343  1.4439 -0.1527  1.4648
  142OSM      N15512   2.727   2.244   6.221 -0.7622  0.0061 -0.7745
  142OSM    C1515513   2.697   2.366   6.145 -0.4558  0.3009  0.4707
  142OSM   H15A15514   2.591   2.378   6.132 -0.3156  1.3869  0.2620
  142OSM   H15B15515   2.754   2.369   6.053  0.0352  3.3983  0.8014
  142OSM   H15C15516   2.734   2.446   6.208  0.7000 -1.0060  1.4939
  142OSM    C1415517   2.682   2.124   6.138 -0.2750  0.2480 -0.1863
  142OSM   H14A15518   2.742   2.116   6.049 -0.6564 -0.1226 -0.4142
  142OSM   H14B15519   2.576   2.134   6.116 -0.0119  0.2553 -1.4884
  142OSM   H14C15520   2.699   2.030   6.187 -0.4710 -0.2421 -1.0459
  142OSM    C1315521   2.869   2.243   6.244  0.5431 -0.1415 -0.3098
  142OSM   H13A15522   2.912   2.334   6.282  0.1178  0.1184 -0.4455
  142OSM   H13B15523   2.916   2.218   6.150  0.9621  0.0878 -0.1626
  142OSM   H13C15524   2.896   2.169   6.318 -1.6475 -0.4691  0.1965
  142OSM    C1215525   2.661   2.247   6.349  0.1283 -0.1798 -0.1038
  142OSM   H12A15526   2.676   2.146   6.385 -0.3933 -0.4868 -0.7350
  142OSM   H12B15527   2.554   2.255   6.338  0.1836 -0.5447 -0.9121
  142OSM    C1115528   2.717   2.341   6.464 -1.0207  0.7381 -0.4482
  142OSM   H11A15529   2.823   2.318   6.486 -1.2277  1.1757  1.1044
  142OSM   H11B15530   2.669   2.320   6.563  1.2625 -2.3751  0.0440
  142OSM      P15531   2.579   2.560   6.472  0.1675  0.1887 -0.2465
  142OSM    O1315532   2.581   2.702   6.433 -0.3215  0.4386  0.4408
  142OSM    O1415533   2.462   2.488   6.418 -0.1610  0.7390  0.3273
  142OSM    O1115534   2.571   2.565   6.629 -0.4631  0.2781  0.3693
  142OSM    O1215535   2.713   2.484   6.434  0.4321 -0.5258  0.5222
  142OSM    C1S15536   2.687   2.600   6.704  0.1048 -0.5849  0.0651
  142OSM    H1S15537   2.738   2.692   6.668  0.7749 -0.0656  2.2366
  142OSM    H1T15538   2.766   2.523   6.697  1.5713  0.9149 -0.2391
  142OSM     NF15539   2.799   2.651   6.921 -0.3142  0.3393  0.3830
  142OSM    HNF15540   2.829   2.578   6.982  3.0357 -0.3402 -1.9217
  142OSM    C2S15541   2.671   2.627   6.856  1.0950 -0.6905  0.0909
  142OSM    H2S15542   2.596   2.705   6.881  0.7324 -1.1369  0.3974
  142OSM    C3S15543   2.597   2.499   6.904 -0.0484 -0.0843  0.5844
  142OSM    H3S15544   2.664   2.414   6.875 -1.8416 -1.0135 -0.9189
  142OSM     O315545   2.466   2.476   6.846 -0.6252 -0.2759 -0.3056
  142OSM    HO315546   2.474   2.531   6.767 -0.2504 -0.5391 -0.4531
  142OSM    C4S15547   2.586   2.504   7.057 -0.1423  0.3400  0.6380
  142OSM    H4S15548   2.686   2.515   7.101  0.9302 -0.5865 -1.5134
  142OSM    C5S15549   2.482   2.497   7.141  0.3337 -0.2720 -0.1939
  142OSM    H5S15550   2.383   2.491   7.093  0.7810 -1.4673 -0.9883
  142OSM    C6S15551   2.483   2.508   7.292 -0.3451  0.1086  0.5333
  142OSM    H6S15552   2.437   2.410   7.319  1.5052 -1.2965 -1.2125
  142OSM    H6T15553   2.419   2.593   7.322 -1.7117 -0.2059 -1.4465
  142OSM    C7S15554   2.620   2.536   7.367 -0.4513 -0.2449  0.4791
  142OSM    H7S15555   2.676   2.627   7.338 -2.8894  1.4049  0.7609
  142OSM    H7T15556   2.683   2.445   7.353  1.1976  0.7811  1.0761
  142OSM    C8S15557   2.594   2.546   7.515 -0.0069 -0.4276 -1.0189
  142OSM    H8S15558   2.553   2.455   7.564  1.7608 -0.5663  0.2766
  142OSM    H8T15559   2.527   2.632   7.533  0.4582  0.0259 -1.4275
  142OSM    C9S15560   2.733   2.572   7.584 -0.6122 -0.8805  0.1129
  142OSM    H9S15561   2.777   2.660   7.533  0.8242 -2.4733 -1.4422
  142OSM    H9T15562   2.800   2.486   7.565  0.0908 -0.4638  0.6745
  142OSM   C10S15563   2.717   2.601   7.743  0.8756  0.2782 -0.3624
  142OSM   H10S15564   2.685   2.506   7.790 -0.5893  2.2972  2.8545
  142OSM   H10T15565   2.628   2.668   7.740  0.8981  0.2808 -1.1983
  142OSM   C11S15566   2.836   2.644   7.818  0.1592  0.3151  0.0524
  142OSM   H11S15567   2.890   2.719   7.758  0.2226 -0.6500 -1.1030
  142OSM   H11T15568   2.908   2.560   7.824 -0.4478 -0.2670 -0.8324
  142OSM   C12S15569   2.808   2.699   7.959 -0.4042 -0.8412 -0.5307
  142OSM   H12S15570   2.743   2.789   7.956 -1.2321 -1.3599  1.1071
  142OSM   H12T15571   2.897   2.726   8.020 -1.1939 -0.7555  0.6049
  142OSM   C13S15572   2.738   2.602   8.050 -0.4322 -0.2894  0.2788
  142OSM   H13S15573   2.808   2.528   8.094 -0.3022  0.4699  1.3922
  142OSM   H13T15574   2.654   2.543   8.008 -0.7795 -0.4040  1.1120
  142OSM   C14S15575   2.684   2.679   8.168  0.0435  0.3151 -0.2973
  142OSM   H14S15576   2.620   2.763   8.132  2.0582  1.3347 -1.6103
  142OSM   H14T15577   2.759   2.735   8.228  0.1885 -1.1261  0.8986
  142OSM   C15S15578   2.608   2.603   8.277  0.4278 -0.6408 -0.4119
  142OSM   H15S15579   2.676   2.546   8.344 -0.2508  0.1715  0.9932
  142OSM   H15T15580   2.544   2.539   8.212  0.7958 -1.9299  0.4891
  142OSM   C16S15581   2.505   2.683   8.357  0.1578  0.3809 -0.6567
  142OSM   H16S15582   2.417   2.626   8.392  0.4154  0.5618  0.3152
  142OSM   H16T15583   2.465   2.770   8.301 -1.1563  1.0322  1.2113
  142OSM   C17S15584   2.565   2.751   8.490 -0.2746  1.1515  0.2645
  142OSM   H17S15585   2.625   2.841   8.464 -1.1838  0.9822 -2.6157
  142OSM   H17T15586   2.625   2.670   8.537 -0.5173  0.5370 -0.4878
  142OSM   C18S15587   2.459   2.804   8.592  0.4456 -0.5706 -0.3719
  142OSM   H18S15588   2.399   2.883   8.542 -1.7420 -0.6883  1.9517
  142OSM   H18T15589   2.514   2.851   8.677  2.8792  0.1114 -2.2847
  142OSM   H18U15590   2.387   2.729   8.631  0.2314  0.8972  2.1692
  142OSM    C1F15591   2.866   2.762   6.907  0.5062 -0.3944  0.3356
  142OSM     OF15592   2.840   2.842   6.819 -0.2568 -0.2185 -0.1596
  142OSM    C2F15593   2.984   2.786   6.996  0.2357 -0.5528 -0.0671
  142OSM    H2F15594   3.044   2.862   6.942 -0.3185  0.9275  1.3629
  142OSM    H2G15595   3.049   2.697   7.014  0.2899 -0.2516  1.2768
  142OSM    C3F15596   2.941   2.844   7.137  0.4237 -0.0725 -0.2214
  142OSM    H3F15597   2.874   2.771   7.187  2.4420 -1.8670 -0.0846
  142OSM    H3G15598   2.870   2.929   7.123 -1.1385 -1.1083  1.1765
  142OSM    C4F15599   3.056   2.888   7.235 -0.1090  0.5626 -0.3590
  142OSM    H4F15600   3.119   2.959   7.176  0.1410 -0.5569 -1.4735
  142OSM    H4G15601   3.125   2.810   7.273 -0.9092 -1.3177 -2.6173
  142OSM    C5F15602   3.009   2.965   7.366  0.5827 -0.5226 -0.6185
  142OSM    H5F15603   2.925   2.912   7.415 -1.0316  1.9135 -0.6720
  142OSM    H5G15604   2.954   3.060   7.348  0.5506  0.1063  2.6479
  142OSM    C6F15605   3.122   2.997   7.465  0.2916  0.6840  0.0632
  142OSM    H6F15606   3.200   3.034   7.395 -0.4479  3.1327  0.5010
  142OSM    H6G15607   3.139   2.903   7.523  0.7492  0.8951  0.2713
  142OSM    C7F15608   3.085   3.111   7.565 -0.1909 -0.3410 -0.0933
  142OSM    H7F15609   2.994   3.079   7.619 -1.1115  0.0936 -1.3530
  142OSM    H7G15610   3.073   3.209   7.513  0.4545 -0.4358 -0.4263
  142OSM    C8F15611   3.208   3.128   7.666 -0.3666  0.0708  0.7137
  142OSM    H8F15612   3.185   3.219   7.725  0.4914  0.8110 -0.0887
  142OSM    H8G15613   3.303   3.145   7.611 -0.3961 -0.6825  0.4219
  142OSM    C9F15614   3.214   3.004   7.756  0.2160 -0.2135  0.6467
  142OSM    H9F15615   3.254   2.911   7.713 -0.4222 -0.5448  0.7731
  142OSM   C10F15616   3.168   2.998   7.882 -0.6212  0.2832  0.7383
  142OSM   H10F15617   3.175   2.898   7.927 -4.6594  0.1924  1.3290
  142OSM   C11F15618   3.124   3.115   7.968 -0.5024  0.1030 -0.5830
  142OSM   H11F15619   3.146   3.202   7.904  1.2255  0.5857  0.6261
  142OSM   H11G15620   3.171   3.125   8.069  0.6354  0.3793 -1.1320
  142OSM   C12F15621   2.971   3.118   7.989 -0.2762 -0.0652  0.3617
  142OSM   H12F15622   2.930   3.023   8.028 -2.8815  0.0431 -1.9591
  142OSM   H12G15623   2.925   3.135   7.889 -1.3811 -0.7610  0.7538
  142OSM   C13F15624   2.931   3.233   8.087 -0.1800  0.4369  0.1331
  142OSM   H13F15625   2.965   3.334   8.053 -1.8126  1.4366  1.3743
  142OSM   H13G15626   2.998   3.211   8.173  1.7867  2.6603 -0.7646
  142OSM   C14F15627   2.786   3.232   8.134 -0.0437  0.0879  0.2404
  142OSM   H14F15628   2.765   3.136   8.186 -3.0424  1.1183  1.0403
  142OSM   H14G15629   2.724   3.232   8.042  2.0433 -0.2386 -1.2098
  142OSM   C15F15630   2.741   3.332   8.238 -0.6295  1.1019 -0.0186
  142OSM   H15F15631   2.646   3.293   8.280 -0.3401  0.0708 -0.2965
  142OSM   H15G15632   2.716   3.423   8.181 -2.0350 -0.2526 -1.5983
  142OSM   C16F15633   2.836   3.346   8.359  0.4058 -0.6429  0.1120
  142OSM   H16F15634   2.801   3.434   8.417 -1.5719 -2.4214  1.7321
  142OSM   H16G15635   2.939   3.375   8.329 -0.0685  0.3164 -0.6112
  142OSM   C17F15636   2.832   3.219   8.438 -0.0818  0.1543  0.0400
  142OSM   H17F15637   2.895   3.154   8.373 -1.9740 -2.3536  0.6623
  142OSM   H17G15638   2.729   3.180   8.451  0.3814 -0.7041  1.2147
  142OSM   C18F15639   2.905   3.231   8.569  0.0684  0.2989 -0.0635
  142OSM   H18F15640   2.856   3.307   8.633 -2.0434 -1.2509  0.1788
  142OSM   H18G15641   3.010   3.263   8.549  0.0584 -0.2889 -1.1069
  142OSM   H18H15642   2.900   3.138   8.629  1.1926  0.0437 -0.3388
  143OSM      N15643   4.180   4.672   6.233 -0.0653 -0.2193 -0.1142
  143OSM    C1515644   4.132   4.699   6.094 -0.2025  0.0749 -0.4836
  143OSM   H15A15645   4.188   4.786   6.064 -2.4035  2.1429  1.1184
  143OSM   H15B15646   4.027   4.725   6.099 -0.4898 -0.8080 -1.6630
  143OSM   H15C15647   4.149   4.614   6.029  4.8023 -0.5071  1.4052
  143OSM    C1415648   4.331   4.659   6.224  0.2415 -0.0092 -0.6647
  143OSM   H14A15649   4.357   4.594   6.142  1.1140 -1.3299  0.6203
  143OSM   H14B15650   4.366   4.610   6.314 -1.4066 -2.1786 -1.1570
  143OSM   H14C15651   4.383   4.752   6.207 -1.0335  0.3809 -2.5651
  143OSM    C1315652   4.139   4.799   6.312 -0.3589  0.5253  0.1319
  143OSM   H13A15653   4.033   4.806   6.328 -0.5385 -2.8191  0.8066
  143OSM   H13B15654   4.171   4.893   6.268 -2.2330  0.9146 -0.4291
  143OSM   H13C15655   4.169   4.801   6.416  0.9806 -1.7886 -0.1689
  143OSM    C1215656   4.114   4.551   6.290  0.0086  0.2330 -0.0555
  143OSM   H12A15657   4.009   4.574   6.298 -0.3985 -1.5079 -0.3879
  143OSM   H12B15658   4.147   4.527   6.391 -2.3298 -2.6306  0.0813
  143OSM    C1115659   4.108   4.416   6.211  0.5481 -0.5497  0.0819
  143OSM   H11A15660   4.046   4.432   6.120  2.9502  0.7768 -1.3636
  143OSM   H11B15661   4.053   4.352   6.284 -0.4807  0.4776  0.2197
  143OSM      P15662   4.305   4.240   6.245 -0.1969 -0.2589  0.6192
  143OSM    O1315663   4.223   4.118   6.225 -0.0070 -0.2031  0.3374
  143OSM    O1415664   4.442   4.228   6.184 -0.4239 -0.3773  0.1748
  143OSM    O1115665   4.328   4.254   6.397  0.0861  0.6059 -0.3265
  143OSM    O1215666   4.235   4.376   6.176 -0.2377 -0.5270 -0.0031
  143OSM    C1S15667   4.403   4.368   6.451  0.2857  0.4292 -0.7735
  143OSM    H1S15668   4.349   4.462   6.426  0.8661  0.8080 -0.6024
  143OSM    H1T15669   4.505   4.371   6.409  0.0712 -2.4051 -1.6277
  143OSM     NF15670   4.437   4.516   6.661 -0.0278  0.1179 -0.4461
  143OSM    HNF15671   4.523   4.539   6.707 -0.3677  0.2667  0.1319
  143OSM    C2S15672   4.407   4.379   6.609  0.0522 -0.2206 -0.2788
  143OSM    H2S15673   4.310   4.352   6.656  1.1008  1.4856  2.9493
  143OSM    C3S15674   4.515   4.279   6.655 -0.3763 -0.1900 -0.1714
  143OSM    H3S15675   4.615   4.310   6.618 -1.1488  1.2699 -1.0594
  143OSM     O315676   4.506   4.148   6.602 -0.8470  0.3224 -0.4016
  143OSM    HO315677   4.438   4.155   6.535 -1.7468  1.0292  0.5724
  143OSM    C4S15678   4.521   4.275   6.807 -0.0563  0.2155 -0.4393
  143OSM    H4S15679   4.434   4.234   6.861 -0.4833 -0.4816 -1.6250
  143OSM    C5S15680   4.629   4.306   6.885 -0.0671  0.4124 -0.2249
  143OSM    H5S15681   4.726   4.320   6.835  0.7298  0.3813  1.3001
  143OSM    C6S15682   4.634   4.286   7.037 -0.7798  0.6695  0.0397
  143OSM    H6S15683   4.737   4.258   7.070  0.1171  1.6231 -1.8719
  143OSM    H6T15684   4.571   4.199   7.067  1.4103 -0.6326  0.9933
  143OSM    C7S15685   4.587   4.417   7.104 -0.5036 -0.1663  0.2065
  143OSM    H7S15686   4.480   4.426   7.075 -0.5866 -2.4334 -0.2911
  143OSM    H7T15687   4.629   4.510   7.060 -1.1803  0.3265  0.5898
  143OSM    C8S15688   4.600   4.422   7.263  0.4580  0.3975  0.0355
  143OSM    H8S15689   4.608   4.316   7.297 -0.5411  0.0712 -0.6906
  143OSM    H8T15690   4.501   4.456   7.300 -0.2386 -1.8012  0.2859
  143OSM    C9S15691   4.725   4.507   7.306 -0.5136 -0.2974 -0.6664
  143OSM    H9S15692   4.702   4.604   7.256  0.9334 -0.7740 -2.2996
  143OSM    H9T15693   4.814   4.453   7.269  0.0504  0.6917 -0.7768
  143OSM   C10S15694   4.723   4.526   7.460 -0.1095  0.1329  0.1204
  143OSM   H10S15695   4.755   4.435   7.515 -0.2658  0.5487  0.9112
  143OSM   H10T15696   4.623   4.570   7.480 -0.2655  1.3513 -2.9856
  143OSM   C11S15697   4.827   4.624   7.507  0.0662  0.3310  0.2146
  143OSM   H11S15698   4.802   4.730   7.487 -1.1395  0.0605  0.2775
  143OSM   H11T15699   4.914   4.598   7.442  1.2260  1.3387  1.3532
  143OSM   C12S15700   4.867   4.601   7.658 -0.0979 -0.1026 -0.5297
  143OSM   H12S15701   4.943   4.678   7.680  1.2777 -1.3511 -0.7991
  143OSM   H12T15702   4.915   4.501   7.668  2.8497  1.4222  0.8793
  143OSM   C13S15703   4.758   4.639   7.756 -0.3160 -0.0219 -0.8116
  143OSM   H13S15704   4.679   4.562   7.745 -1.0968  0.6145  0.1813
  143OSM   H13T15705   4.720   4.742   7.737 -0.4866  0.0530 -0.0575
  143OSM   C14S15706   4.802   4.647   7.909 -0.3540  0.5132  0.6364
  143OSM   H14S15707   4.890   4.715   7.910 -0.0454  0.2081 -1.8747
  143OSM   H14T15708   4.841   4.548   7.940  1.5998  0.5890 -1.3783
  143OSM   C15S15709   4.684   4.702   7.992 -0.6187 -0.5126  0.3156
  143OSM   H15S15710   4.609   4.622   8.005 -0.8605 -0.2845  0.3296
  143OSM   H15T15711   4.630   4.789   7.948 -1.3556  0.6655  3.4462
  143OSM   C16S15712   4.728   4.749   8.132  0.0907 -0.9526  0.4982
  143OSM   H16S15713   4.815   4.817   8.121 -0.5177 -0.1599  0.6080
  143OSM   H16T15714   4.758   4.661   8.193  2.7454 -1.0638 -0.8739
  143OSM   C17S15715   4.609   4.823   8.207 -0.1699 -0.0811 -0.0673
  143OSM   H17S15716   4.585   4.920   8.158  0.0997 -0.2226 -0.4748
  143OSM   H17T15717   4.646   4.847   8.309  0.6367 -1.3429 -0.0468
  143OSM   C18S15718   4.483   4.738   8.226 -0.3820 -0.7898  0.5906
  143OSM   H18S15719   4.509   4.631   8.243  0.1831 -1.0754 -1.8316
  143OSM   H18T15720   4.424   4.727   8.132  1.6492  0.3645 -0.8456
  143OSM   H18U15721   4.412   4.782   8.300 -1.1716 -0.3441 -0.4095
  143OSM    C1F15722   4.350   4.617   6.655 -0.2474 -0.8340 -0.4468
  143OSM     OF15723   4.236   4.600   6.614 -0.7551 -0.2503 -0.5884
  143OSM    C2F15724   4.409   4.754   6.685 -0.2515  0.3489  0.1751
  143OSM    H2F15725   4.430   4.811   6.591  1.4818  1.1366  1.0225
  143OSM    H2G15726   4.509   4.742   6.730 -0.6797 -1.3532  0.7040
  143OSM    C3F15727   4.327   4.843   6.781  0.1079  0.2225  0.2515
  143OSM    H3F15728   4.224   4.822   6.745  0.3677  0.2612 -0.5195
  143OSM    H3G15729   4.350   4.952   6.783 -0.5226  0.3560  0.5693
  143OSM    C4F15730   4.321   4.786   6.925 -0.2965  0.3570 -1.3999
  143OSM    H4F15731   4.299   4.677   6.922 -1.6133  0.5293  0.9750
  143OSM    H4G15732   4.237   4.842   6.972  0.5810  0.9614 -0.5476
  143OSM    C5F15733   4.447   4.799   7.010 -0.2634 -0.4985  0.0943
  143OSM    H5F15734   4.483   4.904   7.021  0.6200 -0.6723 -1.0656
  143OSM    H5G15735   4.532   4.747   6.961  0.5032  1.3030 -0.5270
  143OSM    C6F15736   4.420   4.741   7.148  0.4149  0.0563 -0.2112
  143OSM    H6F15737   4.515   4.722   7.204 -0.4700 -1.1606  0.9300
  143OSM    H6G15738   4.373   4.641   7.135  0.3695  0.1991 -1.1423
  143OSM    C7F15739   4.326   4.833   7.235 -0.1501  0.5718  0.8067
  143OSM    H7F15740   4.240   4.852   7.168 -0.2453  1.3906  1.1600
  143OSM    H7G15741   4.378   4.929   7.255 -0.4469  0.8209  0.3751
  143OSM    C8F15742   4.298   4.770   7.373 -0.4124 -0.1413 -0.5410
  143OSM    H8F15743   4.289   4.661   7.354 -0.8181 -0.4383  1.2378
  143OSM    H8G15744   4.203   4.807   7.417 -0.4803 -1.2856  0.2987
  143OSM    C9F15745   4.406   4.787   7.480  0.3659 -0.2151  0.3534
  143OSM    H9F15746   4.472   4.874   7.468 -0.1725  0.7499  3.8746
  143OSM   C10F15747   4.409   4.724   7.594  0.2807  0.1371 -0.3900
  143OSM   H10F15748   4.490   4.747   7.665  0.9127  2.2091 -1.7395
  143OSM   C11F15749   4.310   4.615   7.634  0.4446 -0.7852 -0.5340
  143OSM   H11F15750   4.361   4.531   7.686 -2.2485 -1.4037  1.2341
  143OSM   H11G15751   4.262   4.567   7.546 -1.1439  0.8684 -0.5958
  143OSM   C12F15752   4.194   4.659   7.723  0.0718 -0.0565  0.1371
  143OSM   H12F15753   4.121   4.575   7.713 -0.3317  0.5835 -2.6668
  143OSM   H12G15754   4.138   4.745   7.681  1.3051  0.8936  0.4445
  143OSM   C13F15755   4.220   4.668   7.874  0.5504 -0.2560 -0.4102
  143OSM   H13F15756   4.285   4.755   7.900 -1.0578  1.1118 -0.8113
  143OSM   H13G15757   4.275   4.575   7.899  2.8219  0.5203 -2.3519
  143OSM   C14F15758   4.090   4.685   7.953  0.3622  0.2439  0.3592
  143OSM   H14F15759   4.066   4.583   7.989 -0.9215  0.5807  0.4645
  143OSM   H14G15760   4.019   4.734   7.883  1.4649  2.5086  0.8037
  143OSM   C15F15761   4.093   4.773   8.082  0.7587  0.3362  0.5727
  143OSM   H15F15762   4.150   4.864   8.054  1.1534  0.3316  1.3400
  143OSM   H15G15763   4.149   4.732   8.169  2.6354 -1.7163 -1.5214
  143OSM   C16F15764   3.949   4.817   8.123 -0.2306 -0.2923 -0.5494
  143OSM   H16F15765   3.952   4.861   8.225 -0.8316 -1.9616  0.2156
  143OSM   H16G15766   3.893   4.723   8.143  1.8807 -1.6069 -0.7546
  143OSM   C17F15767   3.887   4.916   8.030  0.1718  0.1826  0.0863
  143OSM   H17F15768   3.872   4.869   7.930 -2.8730  0.4783  0.3661
  143OSM   H17G15769   3.963   4.996   8.016 -0.4413  0.7244 -0.1657
  143OSM   C18F15770   3.756   4.985   8.076 -0.6255  0.1789 -0.5590
  143OSM   H18F15771   3.678   4.915   8.113 -0.1331  0.5196  1.1796
  143OSM   H18G15772   3.710   5.044   7.994 -0.2999  1.1076 -0.0836
  143OSM   H18H15773   3.777   5.049   8.164 -0.4535 -1.3181  0.5017
  144OSM      N15774   3.174   4.581   5.976 -0.4868  0.2290  0.0825
  144OSM    C1515775   3.312   4.546   5.925 -0.4111 -0.0947 -0.1128
  144OSM   H15A15776   3.392   4.603   5.970 -0.5539 -0.2238  0.3113
  144OSM   H15B15777   3.321   4.554   5.818  0.3705  3.5884  0.1384
  144OSM   H15C15778   3.332   4.442   5.946  1.4073  0.1615 -0.5592
  144OSM    C1415779   3.127   4.714   5.927 -0.2743 -0.5674  0.4943
  144OSM   H14A15780   3.089   4.710   5.826  1.5389  0.2891 -0.2437
  144OSM   H14B15781   3.209   4.784   5.926  0.9769 -1.9891  0.4387
  144OSM   H14C15782   3.054   4.760   5.991  0.7645  2.3919 -0.3588
  144OSM    C1315783   3.075   4.484   5.930  0.0278  0.2778 -0.3814
  144OSM   H13A15784   2.975   4.516   5.957 -0.8004 -0.9493 -1.9120
  144OSM   H13B15785   3.094   4.385   5.968  2.1481  1.5853  2.0568
  144OSM   H13C15786   3.091   4.479   5.823 -1.6284 -0.9068 -0.5933
  144OSM    C1215787   3.163   4.580   6.125 -0.0911  0.0498 -0.4695
  144OSM   H12A15788   3.185   4.482   6.164  2.6052  1.2543  1.1935
  144OSM   H12B15789   3.061   4.604   6.151  0.4030  2.2493 -0.4453
  144OSM    C1115790   3.250   4.680   6.215 -0.3442 -0.7672 -0.1587
  144OSM   H11A15791   3.220   4.685   6.321 -0.8855  0.0472 -0.3415
  144OSM   H11B15792   3.224   4.782   6.180  1.2080 -0.4456 -0.4218
  144OSM      P15793   3.459   4.526   6.266 -0.1929  0.1626  0.0016
  144OSM    O1315794   3.383   4.403   6.233  0.5271 -0.0301 -0.4015
  144OSM    O1415795   3.606   4.536   6.242  0.0139 -0.1460  0.1231
  144OSM    O1115796   3.439   4.548   6.422 -0.0344 -0.9431  0.0385
  144OSM    O1215797   3.391   4.656   6.198  0.6469  0.8106  0.3537
  144OSM    C1S15798   3.487   4.664   6.485  0.8278  0.0332  0.1590
  144OSM    H1S15799   3.425   4.752   6.456 -0.0334 -0.9359 -0.9854
  144OSM    H1T15800   3.592   4.688   6.458  0.8676  0.5118  0.7494
  144OSM     NF15801   3.510   4.767   6.699  0.1342 -0.2885  0.0912
  144OSM    HNF15802   3.596   4.760   6.749  0.7123 -1.0365 -0.9893
  144OSM    C2S15803   3.470   4.643   6.644  0.3146 -0.2098  0.5566
  144OSM    H2S15804   3.362   4.635   6.667  0.0230  0.6531 -0.4811
  144OSM    C3S15805   3.537   4.503   6.693  0.3137  0.1879 -0.0733
  144OSM    H3S15806   3.646   4.512   6.671  0.6724 -2.7505  0.2385
  144OSM     O315807   3.490   4.382   6.628 -0.3918  0.3130 -0.5156
  144OSM    HO315808   3.459   4.415   6.543 -1.7754 -1.5057 -0.7484
  144OSM    C4S15809   3.526   4.492   6.843  0.1213 -0.3912  0.1504
  144OSM    H4S15810   3.422   4.499   6.879 -0.1022  0.1327 -0.5929
  144OSM    C5S15811   3.615   4.460   6.939 -0.0937  0.1907 -0.6660
  144OSM    H5S15812   3.719   4.433   6.918  0.3184  2.1461 -1.3113
  144OSM    C6S15813   3.580   4.455   7.090  0.7936  0.3736 -0.2066
  144OSM    H6S15814   3.471   4.440   7.104  1.1101 -1.5725  0.3293
  144OSM    H6T15815   3.612   4.557   7.123 -0.8537  1.1976 -1.1070
  144OSM    C7S15816   3.659   4.341   7.154 -0.5928 -0.0939  0.9067
  144OSM    H7S15817   3.769   4.352   7.138 -0.6552  0.6418  0.9514
  144OSM    H7T15818   3.634   4.244   7.107 -1.4897  0.8989 -0.7344
  144OSM    C8S15819   3.629   4.321   7.301 -0.1934 -0.4606 -0.0438
  144OSM    H8S15820   3.521   4.299   7.311 -0.0480 -0.4903  1.5734
  144OSM    H8T15821   3.652   4.418   7.350 -1.6860  0.9484 -2.0514
  144OSM    C9S15822   3.707   4.207   7.380 -0.5342  0.0644  0.3766
  144OSM    H9S15823   3.813   4.233   7.364 -1.1412  0.6410 -3.3138
  144OSM    H9T15824   3.685   4.109   7.332  1.1949  0.6891 -1.8127
  144OSM   C10S15825   3.674   4.217   7.528 -0.2851  0.2416 -0.4774
  144OSM   H10S15826   3.563   4.221   7.534 -0.4656 -1.9316 -1.7213
  144OSM   H10T15827   3.713   4.312   7.569 -0.4008 -0.1929  0.6686
  144OSM   C11S15828   3.718   4.096   7.601  0.4111 -0.3490  0.0354
  144OSM   H11S15829   3.824   4.073   7.576  0.8705 -0.2369  1.8149
  144OSM   H11T15830   3.648   4.013   7.576  1.5581 -0.6479 -2.3276
  144OSM   C12S15831   3.727   4.120   7.753 -0.6579 -0.7589  0.5244
  144OSM   H12S15832   3.647   4.183   7.798  0.0522  1.0385 -0.6911
  144OSM   H12T15833   3.829   4.159   7.775  0.0368 -1.6567 -1.0327
  144OSM   C13S15834   3.716   3.983   7.818  0.0176 -0.7403 -0.1684
  144OSM   H13S15835   3.798   3.920   7.780  2.0184  1.4824  0.3596
  144OSM   H13T15836   3.621   3.939   7.782 -0.0088 -3.0255  2.4687
  144OSM   C14S15837   3.716   3.982   7.969  0.1266  0.1080  0.2359
  144OSM   H14S15838   3.651   4.062   8.011 -0.5151  0.3548 -1.1886
  144OSM   H14T15839   3.811   4.026   8.005  1.7660 -1.4560 -2.0054
  144OSM   C15S15840   3.693   3.840   8.035 -0.0639 -1.2878 -0.2013
  144OSM   H15S15841   3.783   3.777   8.021  0.4074 -0.9908  1.3220
  144OSM   H15T15842   3.604   3.794   7.988 -2.7834  1.4405  2.0470
  144OSM   C16S15843   3.669   3.852   8.190  0.3618  0.0786  0.9264
  144OSM   H16S15844   3.590   3.927   8.211  1.0262  0.9592  0.3171
  144OSM   H16T15845   3.764   3.887   8.235  1.3805 -1.2386 -0.1633
  144OSM   C17S15846   3.629   3.722   8.254  0.2807  0.4701 -0.2971
  144OSM   H17S15847   3.704   3.640   8.257 -1.7557 -1.4098  3.3738
  144OSM   H17T15848   3.540   3.694   8.193  0.6518 -1.2935 -0.0525
  144OSM   C18S15849   3.589   3.739   8.400 -0.4629 -0.5130  0.2406
  144OSM   H18S15850   3.532   3.648   8.431 -2.2837  0.1887 -0.9413
  144OSM   H18T15851   3.524   3.828   8.408 -0.5996 -0.5223 -0.6862
  144OSM   H18U15852   3.676   3.745   8.468 -1.0815  1.7184  0.8569
  144OSM    C1F15853   3.437   4.873   6.696  0.6698 -0.0606  0.6104
  144OSM     OF15854   3.325   4.876   6.646  0.5122 -0.3893 -0.8069
  144OSM    C2F15855   3.479   5.007   6.759  0.0271 -0.2505 -0.0246
  144OSM    H2F15856   3.465   5.093   6.690 -0.6194  0.1642  0.6107
  144OSM    H2G15857   3.588   4.999   6.783 -0.5666  0.8732  3.3881
  144OSM    C3F15858   3.394   5.035   6.886  0.5077  0.1995 -0.0176
  144OSM    H3F15859   3.388   4.949   6.956 -2.3086  0.0435 -0.3874
  144OSM    H3G15860   3.286   5.045   6.863 -0.1318 -0.5861  2.4719
  144OSM    C4F15861   3.435   5.167   6.954 -0.5897 -0.2573  0.1314
  144OSM    H4F15862   3.413   5.246   6.878  0.9338  0.3253  0.2817
  144OSM    H4G15863   3.545   5.165   6.965 -0.4842 -1.6764 -1.0719
  144OSM    C5F15864   3.371   5.199   7.090 -0.7285 -0.0906  0.1383
  144OSM    H5F15865   3.261   5.186   7.078 -0.5444 -1.4692 -0.1039
  144OSM    H5G15866   3.401   5.302   7.119  1.1053 -0.6626  0.3329
  144OSM    C6F15867   3.424   5.116   7.208  0.0762 -0.3936 -0.6082
  144OSM    H6F15868   3.535   5.111   7.211 -0.0076 -2.3507 -0.3043
  144OSM    H6G15869   3.394   5.009   7.207 -1.7717  0.0542  1.9932
  144OSM    C7F15870   3.369   5.162   7.338  0.7064  0.3114 -0.3590
  144OSM    H7F15871   3.264   5.126   7.345  0.8042  0.3550  1.9335
  144OSM    H7G15872   3.364   5.273   7.340  3.5409  0.4663 -0.4238
  144OSM    C8F15873   3.447   5.116   7.460  0.1961 -0.3282 -0.0835
  144OSM    H8F15874   3.437   5.192   7.541 -0.1995 -1.3261  0.8099
  144OSM    H8G15875   3.555   5.125   7.437  0.6690 -1.2685  1.6838
  144OSM    C9F15876   3.414   4.980   7.501  0.4262 -0.1206 -0.0025
  144OSM    H9F15877   3.437   4.909   7.420  0.7708 -0.2978  0.2481
  144OSM   C10F15878   3.349   4.938   7.606  0.6674  1.1759 -0.4842
  144OSM   H10F15879   3.350   4.830   7.628  0.4882  0.8945 -1.7870
  144OSM   C11F15880   3.301   5.035   7.707  0.0318 -0.2251 -0.2404
  144OSM   H11F15881   3.215   4.989   7.759  0.1827 -1.7715 -1.3375
  144OSM   H11G15882   3.261   5.129   7.663  0.3240 -0.4841 -1.0764
  144OSM   C12F15883   3.392   5.049   7.830  0.1041  0.5123 -0.5338
  144OSM   H12F15884   3.490   5.094   7.802 -0.3672  0.8883 -1.5957
  144OSM   H12G15885   3.415   4.949   7.872 -0.2266  0.0673 -1.4092
  144OSM   C13F15886   3.314   5.120   7.943 -0.2698 -0.2128 -0.8122
  144OSM   H13F15887   3.221   5.065   7.966  0.6902 -2.0157 -1.2069
  144OSM   H13G15888   3.309   5.226   7.910  1.0903  0.1972  0.2561
  144OSM   C14F15889   3.384   5.123   8.082 -0.0400 -0.3027  0.4218
  144OSM   H14F15890   3.482   5.170   8.059 -1.0526  1.4579 -0.3345
  144OSM   H14G15891   3.406   5.019   8.115  0.8675 -0.0301  0.6860
  144OSM   C15F15892   3.311   5.204   8.187 -0.3334  0.8869 -0.5304
  144OSM   H15F15893   3.217   5.155   8.222  0.1440  1.7321  2.0654
  144OSM   H15G15894   3.277   5.305   8.155  1.9571  2.0650  0.6599
  144OSM   C16F15895   3.391   5.207   8.317  0.4653 -0.5920  0.0709
  144OSM   H16F15896   3.478   5.276   8.313 -1.0026  1.2388 -1.1553
  144OSM   H16G15897   3.421   5.104   8.345  1.0162  0.3818  3.2667
  144OSM   C17F15898   3.310   5.251   8.445  0.0626  0.2792 -0.0282
  144OSM   H17F15899   3.216   5.192   8.457  1.0549 -0.9872  1.8010
  144OSM   H17G15900   3.270   5.353   8.425 -1.1237 -0.0760  0.5035
  144OSM   C18F15901   3.382   5.245   8.581 -0.0858  0.0529  0.4302
  144OSM   H18F15902   3.456   5.327   8.584  0.0944 -0.1401  1.7678
  144OSM   H18G15903   3.442   5.153   8.601 -1.4718 -1.2270 -1.0939
  144OSM   H18H15904   3.309   5.258   8.664 -1.3962  2.2841 -1.0399
  145SAPE     N15905   1.449   4.958  10.869  0.3565 -0.3543 -0.0807
  145SAPE   HN115906   1.547   4.987  10.888 -0.1365  1.6730 -0.5851
  145SAPE   HN215907   1.387   5.002  10.939 -0.6237 -0.0770 -1.0958
  145SAPE   HN315908   1.443   4.856  10.891  0.0510 -0.4629 -0.6460
  145SAPE   C1215909   1.400   4.989  10.732  0.1432  0.0834  0.0940
  145SAPE  H12A15910   1.384   5.099  10.739 -1.3783 -0.1914  1.1509
  145SAPE  H12B15911   1.298   4.946  10.723  0.1347  0.0940  0.1435
  145SAPE   C1115912   1.501   4.944  10.622  0.9499 -0.1063  0.5991
  145SAPE  H11A15913   1.478   4.966  10.515 -0.3875 -2.8948  0.2712
  145SAPE  H11B15914   1.508   4.833  10.623  2.6088 -0.0170  0.1110
  145SAPE     P15915   1.751   4.948  10.584 -0.1322  0.3344  0.0922
  145SAPE   O1315916   1.873   5.025  10.628 -0.4332 -0.4439 -0.8687
  145SAPE   O1415917   1.749   4.807  10.616  0.2138  0.1967  0.0734
  145SAPE   O1215918   1.625   5.007  10.651  0.3759 -1.1681 -1.0589
  145SAPE   O1115919   1.719   4.966  10.429  0.3145  0.5190 -0.1981
  145SAPE    C115920   1.696   5.089  10.368  0.3077  0.0618  0.2622
  145SAPE    HA15921   1.647   5.066  10.271  0.6452 -0.5222  0.2321
  145SAPE    HB15922   1.617   5.139  10.429 -0.9737 -2.5987  0.8224
  145SAPE    C215923   1.818   5.169  10.327 -0.1612  0.4383 -0.0262
  145SAPE    HS15924   1.869   5.204  10.419 -0.0488  2.1226 -0.7258
  145SAPE   O2115925   1.765   5.286  10.255  0.6308  0.0722  0.2402
  145SAPE   C2115926   1.850   5.383  10.225  0.2731 -0.2754  0.3471
  145SAPE   O2215927   1.964   5.401  10.268 -0.5407  0.1833 -0.2920
  145SAPE   C2215928   1.785   5.482  10.138  0.3122  0.6205 -0.5469
  145SAPE   H2R15929   1.683   5.503  10.178  0.1273 -0.0693 -0.6489
  145SAPE   H2S15930   1.844   5.574  10.153  2.2812 -0.6725 -0.2104
  145SAPE    C315931   1.918   5.085  10.245 -0.4921  0.0221 -0.2829
  145SAPE    HX15932   1.918   4.991  10.303 -0.3885 -0.6570 -1.3709
  145SAPE    HY15933   2.022   5.124  10.244 -0.1098 -0.8668  2.6113
  145SAPE   O3115934   1.869   5.061  10.107 -0.4867 -0.3552 -0.5104
  145SAPE   C3115935   1.966   5.062  10.011 -0.6007  0.0028  0.0462
  145SAPE   O3215936   2.089   5.073  10.033 -0.2883 -0.2942 -0.0991
  145SAPE   C3215937   1.903   5.054   9.870 -0.5369  0.0583  0.5830
  145SAPE   H2X15938   1.963   5.130   9.815 -0.5937  0.1268  0.6168
  145SAPE   H2Y15939   1.798   5.088   9.863 -0.4292 -0.0215 -1.7988
  145SAPE   C2315940   1.777   5.445   9.985 -0.2061 -0.8255  0.1914
  145SAPE   H3R15941   1.742   5.539   9.937 -0.8347 -0.6327  1.0226
  145SAPE   H3S15942   1.703   5.362   9.981 -1.0439 -0.1505  1.2882
  145SAPE   C2415943   1.908   5.418   9.916  0.2975 -0.0055  0.5064
  145SAPE   H4R15944   1.949   5.321   9.953 -0.8367 -1.0785 -0.9976
  145SAPE   H4S15945   1.985   5.495   9.939  3.2589 -2.3044 -1.2804
  145SAPE   C2515946   1.895   5.412   9.766 -0.8268 -0.0126  0.6859
  145SAPE   H5R15947   1.820   5.346   9.720 -0.0463  0.9415 -2.0437
  145SAPE   C2615948   1.968   5.475   9.675  0.2454 -0.3553 -0.4184
  145SAPE   H6R15949   1.944   5.450   9.571  0.3247 -0.6049 -0.3768
  145SAPE   C2715950   2.085   5.571   9.692  0.0084 -0.3295  0.3665
  145SAPE   H7R15951   2.158   5.542   9.770 -0.3229 -0.3919  0.6574
  145SAPE   H7S15952   2.047   5.670   9.727  1.9458  1.1822 -1.6538
  145SAPE   C2815953   2.159   5.590   9.559  0.3164 -0.1254  0.5954
  145SAPE   H8R15954   2.187   5.694   9.538  0.6116 -0.4628 -0.6956
  145SAPE   C2915955   2.208   5.497   9.467 -0.1844 -0.1900  0.6304
  145SAPE   H9R15956   2.255   5.538   9.377  0.7376 -3.9180 -0.6931
  145SAPE  C21015957   2.202   5.341   9.466 -0.1621 -0.6960 -0.4751
  145SAPE  H10R15958   2.141   5.312   9.554 -1.2246 -1.3184 -1.3962
  145SAPE  H10S15959   2.308   5.313   9.487  0.0632  0.2537 -0.3030
  145SAPE  C21115960   2.161   5.268   9.338 -0.5981  1.0152 -0.1023
  145SAPE  H11R15961   2.242   5.261   9.264  0.6348 -1.0070  1.3662
  145SAPE  C21215962   2.044   5.207   9.315 -0.1211  0.4341 -0.4786
  145SAPE  H12R15963   2.019   5.174   9.213 -0.8091 -2.3295  0.5148
  145SAPE  C21315964   1.930   5.194   9.407 -0.0406 -0.3569  0.1509
  145SAPE  H13R15965   1.855   5.276   9.397  0.3362 -0.1407 -0.9411
  145SAPE  H13S15966   1.977   5.202   9.507  0.5817  0.2301 -0.1897
  145SAPE  C21415967   1.868   5.057   9.399  0.6219  0.2215  0.9595
  145SAPE  H14R15968   1.937   4.975   9.424  2.7386  2.1644  1.6834
  145SAPE  C21515969   1.742   5.033   9.356  0.1987  0.0815 -0.3485
  145SAPE  H15R15970   1.708   4.929   9.356 -0.5174  0.3077  0.4059
  145SAPE  C21615971   1.640   5.135   9.313  0.2567 -1.1269 -0.1613
  145SAPE  H16R15972   1.678   5.235   9.344  2.1554 -1.1529 -2.3223
  145SAPE  H16S15973   1.540   5.138   9.362  0.2732 -1.9639 -0.0716
  145SAPE  C21715974   1.639   5.153   9.159  0.5469 -0.3224  0.7317
  145SAPE  H17R15975   1.745   5.143   9.125 -0.0436  0.5290 -1.4258
  145SAPE  H17S15976   1.614   5.258   9.134 -1.0998 -1.0869 -0.8933
  145SAPE  C21815977   1.544   5.068   9.080 -0.2707  0.8274 -0.7499
  145SAPE  H18R15978   1.452   5.041   9.137 -0.2035 -0.9904 -1.4793
  145SAPE  H18S15979   1.594   4.971   9.062  2.2772  1.8597  0.4906
  145SAPE  C21915980   1.502   5.126   8.952 -0.8171 -0.2979 -0.1130
  145SAPE  H19R15981   1.433   5.212   8.964 -0.0631  0.3687 -0.5524
  145SAPE  H19S15982   1.448   5.044   8.900 -2.0892 -1.1350  2.4485
  145SAPE  C22015983   1.620   5.172   8.865  0.0371 -0.3829  0.5158
  145SAPE  H20R15984   1.677   5.246   8.924  3.2027  0.4865 -3.4521
  145SAPE  H20S15985   1.588   5.212   8.767 -0.0871  1.2435  1.2066
  145SAPE  H20T15986   1.692   5.092   8.839  1.1735  2.0013 -4.0451
  145SAPE   C3315987   1.922   4.924   9.792  0.1494  0.2177 -0.2958
  145SAPE   H3X15988   2.026   4.887   9.806  0.1329  0.7896  1.5511
  145SAPE   H3Y15989   1.902   4.941   9.684 -0.4563 -0.1883 -0.2524
  145SAPE   C3415990   1.808   4.823   9.827 -0.6072 -1.0113 -0.1846
  145SAPE   H4X15991   1.713   4.861   9.784 -0.1111 -1.5012 -1.7163
  145SAPE   H4Y15992   1.796   4.817   9.938  1.1482  0.0917  0.0879
  145SAPE   C3515993   1.843   4.682   9.779  0.1928  0.0111 -0.3551
  145SAPE   H5X15994   1.785   4.598   9.822  1.2958 -0.0852  0.9568
  145SAPE   H5Y15995   1.941   4.639   9.807 -1.3683 -2.4523  1.5466
  145SAPE   C3615996   1.844   4.678   9.625 -0.3948 -0.2381  0.2929
  145SAPE   H6X15997   1.902   4.758   9.575 -0.3387  0.9683  2.2432
  145SAPE   H6Y15998   1.737   4.679   9.594 -0.3831 -0.0970  0.2554
  145SAPE   C3715999   1.907   4.544   9.578 -0.3093 -0.7354  0.2444
  145SAPE   H7X16000   1.873   4.454   9.634 -2.9351  0.2807  0.3829
  145SAPE   H7Y16001   2.017   4.556   9.576 -0.4355  0.8390  1.2775
  145SAPE   C3816002   1.868   4.513   9.432 -1.0270 -0.4202  0.0952
  145SAPE   H8X16003   1.760   4.488   9.424 -0.8493 -0.5469 -2.1631
  145SAPE   H8Y16004   1.930   4.430   9.392  0.4517  0.0852  1.2792
  145SAPE   C3916005   1.879   4.633   9.329  0.1920  0.8287  0.2825
  145SAPE   H9X16006   1.973   4.684   9.359  1.3698  1.6286 -4.3848
  145SAPE   H9Y16007   1.793   4.700   9.351 -1.1172 -0.1167 -1.7899
  145SAPE  C31016008   1.892   4.597   9.187 -0.0693 -0.5407  0.5249
  145SAPE  H10X16009   1.803   4.542   9.150  1.1278 -2.1327 -0.0854
  145SAPE  H10Y16010   1.970   4.519   9.168  0.4216 -0.2171  1.1843
  145SAPE  C31116011   1.925   4.717   9.100 -0.4269 -0.0026 -0.3326
  145SAPE  H11X16012   2.030   4.754   9.111  0.4279 -2.8164  1.6597
  145SAPE  H11Y16013   1.856   4.799   9.129  1.0176  0.1228  3.0291
  145SAPE  C31216014   1.914   4.688   8.949  0.0175 -0.3109 -0.4477
  145SAPE  H12X16015   1.835   4.612   8.933 -1.8379  1.8555 -1.9152
  145SAPE  H12Y16016   2.004   4.652   8.894  0.5856  0.4698 -0.0381
  145SAPE  C31316017   1.868   4.818   8.875  0.8526  0.1492  0.0640
  145SAPE  H13X16018   1.949   4.893   8.887  0.8025  0.1447  0.4326
  145SAPE  H13Y16019   1.777   4.853   8.928  0.3202 -1.3780  0.1960
  145SAPE  C31416020   1.839   4.795   8.724 -0.8344 -0.1297  0.5743
  145SAPE  H14X16021   1.908   4.717   8.687 -2.1984 -2.1889  2.2926
  145SAPE  H14Y16022   1.859   4.888   8.667  0.0817  0.1605  1.3592
  145SAPE  C31516023   1.696   4.751   8.704  0.2836  0.1047  0.5267
  145SAPE  H15X16024   1.626   4.831   8.734 -1.6871 -0.7899 -1.4300
  145SAPE  H15Y16025   1.660   4.673   8.775  2.7328 -2.0168 -0.4689
  145SAPE  C31616026   1.661   4.707   8.559  1.1245  0.1415 -0.0889
  145SAPE  H16X16027   1.748   4.652   8.519  0.7938 -0.5677  0.1657
  145SAPE  H16Y16028   1.655   4.798   8.496  1.8866  1.6865  2.0209
  145SAPE  C31716029   1.528   4.631   8.542 -0.3488  0.1779  0.4294
  145SAPE  H17X16030   1.441   4.692   8.575  0.9134  1.6476  1.0881
  145SAPE  H17Y16031   1.546   4.541   8.604 -1.3863  0.6307  1.3968
  145SAPE  C31816032   1.508   4.590   8.402  0.2486 -0.5824  0.3250
  145SAPE  H18X16033   1.427   4.520   8.375 -0.5061  0.8662 -1.1904
  145SAPE  H18Y16034   1.607   4.551   8.369  0.5488  1.9527 -1.8834
  145SAPE  H18Z16035   1.500   4.683   8.342  3.8633  1.0943  2.2288
  146SAPE     N16036   1.159   6.642  10.491  0.1271 -0.1228 -0.0479
  146SAPE   HN116037   1.151   6.547  10.450 -0.9335 -0.5861  1.2040
  146SAPE   HN216038   1.095   6.709  10.443 -1.7994 -0.4273  2.0410
  146SAPE   HN316039   1.258   6.669  10.474 -0.3723  0.5561 -2.0292
  146SAPE   C1216040   1.144   6.642  10.641  0.4202  0.0783  0.0379
  146SAPE  H12A16041   1.117   6.747  10.667  1.5144  0.6776 -1.1582
  146SAPE  H12B16042   1.246   6.632  10.683  0.5934 -0.4817 -0.5165
  146SAPE   C1116043   1.037   6.534  10.677 -0.0519  0.3581  0.1331
  146SAPE  H11A16044   1.024   6.523  10.786  2.0946 -2.0116  0.1742
  146SAPE  H11B16045   1.075   6.436  10.641 -1.0734  1.1792 -3.4783
  146SAPE     P16046   0.783   6.477  10.646  0.0224  0.0459  0.1503
  146SAPE   O1316047   0.787   6.334  10.608  0.3932 -0.1157  0.1717
  146SAPE   O1416048   0.761   6.496  10.795  0.0742 -0.0054  0.3320
  146SAPE   O1216049   0.918   6.554  10.604 -0.6396 -0.7760  0.4989
  146SAPE   O1116050   0.661   6.554  10.584  0.1890  0.2563  0.0632
  146SAPE    C116051   0.644   6.687  10.547  0.0611 -0.5059  0.1141
  146SAPE    HA16052   0.546   6.723  10.585  0.7346 -0.2279  1.6329
  146SAPE    HB16053   0.722   6.747  10.599 -1.6358 -0.0460  2.1681
  146SAPE    C216054   0.647   6.710  10.393  0.1467 -0.4168  0.7364
  146SAPE    HS16055   0.623   6.817  10.376 -0.3444 -0.1160  3.1703
  146SAPE   O2116056   0.553   6.621  10.332  0.1114  0.8117 -0.3243
  146SAPE   C2116057   0.468   6.680  10.250 -0.2774 -0.0541  0.2360
  146SAPE   O2216058   0.448   6.799  10.244  0.2735  0.9157  0.2754
  146SAPE   C2216059   0.386   6.577  10.181 -0.2492  0.2980 -0.3406
  146SAPE   H2R16060   0.301   6.630  10.132 -0.6441 -0.8719 -0.9193
  146SAPE   H2S16061   0.449   6.530  10.103 -3.4886 -0.0087 -2.8487
  146SAPE    C316062   0.791   6.690  10.337  0.2017  0.1382 -0.0211
  146SAPE    HX16063   0.814   6.583  10.357 -1.3443 -0.2082 -0.0403
  146SAPE    HY16064   0.867   6.744  10.398  0.6911  0.5806 -1.0196
  146SAPE   O3116065   0.818   6.737  10.207  0.5006 -0.1260 -0.4756
  146SAPE   C3116066   0.942   6.727  10.168  0.7581  0.4954 -0.4173
  146SAPE   O3216067   1.039   6.688  10.229  0.0360 -0.5120  0.4445
  146SAPE   C3216068   0.947   6.773  10.022 -0.0247 -0.5533  0.4287
  146SAPE   H2X16069   1.054   6.787   9.995 -0.1289  0.5420  0.5798
  146SAPE   H2Y16070   0.901   6.873  10.011 -0.8402 -1.1978 -2.4418
  146SAPE   C2316071   0.332   6.467  10.283 -0.5213  0.1652 -0.0526
  146SAPE   H3R16072   0.279   6.521  10.364 -0.3464 -3.1842  2.4176
  146SAPE   H3S16073   0.416   6.418  10.336  1.6643  1.4023 -2.2576
  146SAPE   C2416074   0.234   6.355  10.239  0.6083  0.6328 -0.0881
  146SAPE   H4R16075   0.201   6.305  10.333  2.2137  0.1932  0.2567
  146SAPE   H4S16076   0.291   6.280  10.179  2.1920  1.6190  0.1688
  146SAPE   C2516077   0.118   6.401  10.159 -0.8390  0.9070  0.5191
  146SAPE   H5R16078   0.040   6.460  10.210 -1.1256  0.3562  0.7186
  146SAPE   C2616079   0.108   6.392  10.025  0.8935 -0.1885 -0.1896
  146SAPE   H6R16080   0.015   6.422   9.974  2.0616 -3.0128 -4.1306
  146SAPE   C2716081   0.219   6.342   9.941  0.4595  0.1790  0.7809
  146SAPE   H7R16082   0.305   6.287   9.984  0.9868 -1.1371 -1.8617
  146SAPE   H7S16083   0.260   6.429   9.886 -0.3245 -0.4991 -0.9202
  146SAPE   C2816084   0.172   6.250   9.837 -0.1453  0.6916  0.2491
  146SAPE   H8R16085   0.139   6.156   9.883  1.3811 -1.6287 -3.1490
  146SAPE   C2916086   0.181   6.261   9.706 -0.0743  0.4158  0.1352
  146SAPE   H9R16087   0.139   6.176   9.650 -3.1021  0.9769  1.4385
  146SAPE  C21016088   0.251   6.371   9.637  0.7272 -0.0064 -0.1260
  146SAPE  H10R16089   0.359   6.344   9.633  0.4160 -1.3413 -0.0092
  146SAPE  H10S16090   0.233   6.468   9.686  3.3970 -0.2451  1.4297
  146SAPE  C21116091   0.204   6.391   9.493 -0.0843  0.3986  0.0168
  146SAPE  H11R16092   0.110   6.338   9.470  0.6214 -0.2339 -1.4414
  146SAPE  C21216093   0.257   6.471   9.398 -0.2993  0.2613  0.6095
  146SAPE  H12R16094   0.214   6.470   9.296  0.2252  0.6255  0.3878
  146SAPE  C21316095   0.385   6.552   9.417 -0.3562 -0.0604 -0.1878
  146SAPE  H13R16096   0.385   6.597   9.518 -0.9705  0.5154 -0.4432
  146SAPE  H13S16097   0.379   6.640   9.350  3.1896  1.1929  1.0713
  146SAPE  C21416098   0.517   6.484   9.394  0.7762  0.1578  0.9406
  146SAPE  H14R16099   0.575   6.460   9.484 -0.2886 -1.4822  1.2236
  146SAPE  C21516100   0.576   6.457   9.273  0.1336  0.6516 -0.8444
  146SAPE  H15R16101   0.676   6.409   9.268  0.3601  1.3044 -2.7858
  146SAPE  C21616102   0.525   6.514   9.142 -0.1532 -0.2634  0.0058
  146SAPE  H16R16103   0.414   6.520   9.139 -0.1036  0.2161 -2.1653
  146SAPE  H16S16104   0.547   6.448   9.055 -3.0192 -0.2931 -0.7414
  146SAPE  C21716105   0.567   6.651   9.109  0.9119 -0.0233  0.1652
  146SAPE  H17R16106   0.534   6.713   9.196 -2.2013 -1.8365  0.3380
  146SAPE  H17S16107   0.510   6.686   9.020  1.1767  0.5790  0.2283
  146SAPE  C21816108   0.714   6.674   9.078  0.3716  0.1056  0.5990
  146SAPE  H18R16109   0.745   6.602   9.000 -0.5374 -0.6514  0.9256
  146SAPE  H18S16110   0.772   6.651   9.170  1.8183 -0.8058 -0.5233
  146SAPE  C21916111   0.759   6.816   9.023 -0.0694  0.3820 -0.5631
  146SAPE  H19R16112   0.794   6.874   9.112 -1.0735  1.7281 -1.0301
  146SAPE  H19S16113   0.679   6.879   8.980 -1.4258  0.1707  1.5839
  146SAPE  C22016114   0.867   6.809   8.916  0.7956 -0.3656  0.9027
  146SAPE  H20R16115   0.885   6.899   8.853  0.4248 -0.8803  0.0543
  146SAPE  H20S16116   0.834   6.734   8.841 -0.1176 -0.4955  1.4249
  146SAPE  H20T16117   0.962   6.795   8.972  1.1767 -0.4166  0.2487
  146SAPE   C3316118   0.888   6.678   9.923 -0.9374  0.2444  0.9152
  146SAPE   H3X16119   0.803   6.620   9.966  1.0913 -2.6227  1.2698
  146SAPE   H3Y16120   0.971   6.605   9.910  0.2154  1.5622  0.7562
  146SAPE   C3416121   0.852   6.749   9.794  0.4450 -0.1283 -0.5636
  146SAPE   H4X16122   0.945   6.801   9.763 -0.1622 -1.0135 -4.0988
  146SAPE   H4Y16123   0.768   6.823   9.792  0.2910 -0.3164 -1.4444
  146SAPE   C3516124   0.813   6.638   9.687 -0.1117 -0.0985  0.6849
  146SAPE   H5X16125   0.746   6.571   9.745  1.0179 -1.3019  0.6151
  146SAPE   H5Y16126   0.901   6.575   9.662 -0.7253 -0.3326 -0.9483
  146SAPE   C3616127   0.751   6.698   9.562 -0.1809  0.8157  0.3298
  146SAPE   H6X16128   0.661   6.757   9.590 -0.7570 -0.1605  0.5599
  146SAPE   H6Y16129   0.722   6.611   9.498  1.1512  1.0765 -0.6342
  146SAPE   C3716130   0.848   6.777   9.474  0.0687  0.9109  0.8074
  146SAPE   H7X16131   0.883   6.865   9.532  1.3200  0.7253  0.3416
  146SAPE   H7Y16132   0.791   6.816   9.387 -1.2276 -2.3413  0.1122
  146SAPE   C3816133   0.970   6.688   9.425 -1.1542  0.4887  0.2420
  146SAPE   H8X16134   0.933   6.590   9.389  0.4294  0.0323 -0.1799
  146SAPE   H8Y16135   1.042   6.690   9.510 -1.5049 -0.3956  0.5602
  146SAPE   C3916136   1.049   6.770   9.318 -0.4576 -0.2268  0.2443
  146SAPE   H9X16137   1.072   6.868   9.365  0.5236 -0.5238  0.4050
  146SAPE   H9Y16138   0.978   6.783   9.234 -1.4118 -1.6725  0.8044
  146SAPE  C31016139   1.177   6.698   9.274 -0.5663 -0.0201  0.1477
  146SAPE  H10X16140   1.135   6.595   9.266  0.5353 -0.5493  0.9538
  146SAPE  H10Y16141   1.251   6.700   9.357 -0.1532  0.1230 -0.2227
  146SAPE  C31116142   1.241   6.762   9.148 -0.0592  0.5308  0.7672
  146SAPE  H11X16143   1.246   6.872   9.165 -1.8190  0.5346  1.3162
  146SAPE  H11Y16144   1.176   6.731   9.063  0.5713 -0.5226  0.6620
  146SAPE  C31216145   1.386   6.719   9.117 -0.3972 -0.0899 -0.8605
  146SAPE  H12X16146   1.453   6.739   9.203 -1.0874  2.1286 -0.8174
  146SAPE  H12Y16147   1.423   6.796   9.045 -1.4254  0.8678 -0.3757
  146SAPE  C31316148   1.413   6.591   9.040  0.5337  0.2690  0.3571
  146SAPE  H13X16149   1.372   6.506   9.099  1.1416 -1.0407 -1.0850
  146SAPE  H13Y16150   1.522   6.571   9.029  0.1180 -1.3373 -0.9999
  146SAPE  C31416151   1.338   6.565   8.908 -0.7703  0.3450  0.3229
  146SAPE  H14X16152   1.231   6.593   8.920 -0.4963  1.2788  0.6553
  146SAPE  H14Y16153   1.336   6.456   8.885 -1.7760  0.5043 -0.3850
  146SAPE  C31516154   1.396   6.644   8.791  0.1217 -0.2728  0.1368
  146SAPE  H15X16155   1.505   6.660   8.804 -0.2081  3.6526 -1.3431
  146SAPE  H15Y16156   1.350   6.745   8.787 -0.2468 -0.4255  0.4603
  146SAPE  C31616157   1.360   6.571   8.665 -0.3232 -0.1925  0.2012
  146SAPE  H16X16158   1.386   6.632   8.576 -1.2207 -0.9318 -0.5796
  146SAPE  H16Y16159   1.254   6.541   8.654 -0.5446  0.1124  1.5102
  146SAPE  C31716160   1.445   6.444   8.646  0.8620  0.0387  0.3483
  146SAPE  H17X16161   1.419   6.363   8.718  2.6619 -1.9858 -1.1983
  146SAPE  H17Y16162   1.548   6.478   8.666  1.7378 -1.9964 -0.5482
  146SAPE  C31816163   1.434   6.390   8.504  0.0154  0.8161 -0.2961
  146SAPE  H18X16164   1.484   6.459   8.434  0.1224  2.5228  1.4327
  146SAPE  H18Y16165   1.327   6.380   8.476 -0.9802 -3.1179  4.1811
  146SAPE  H18Z16166   1.476   6.287   8.492 -1.2297  0.3847 -1.0853
  147SAPE     N16167   2.346   2.267  10.769 -1.1252 -0.2205  0.4656
  147SAPE   HN116168   2.385   2.192  10.830 -2.3837 -1.4753 -0.2469
  147SAPE   HN216169   2.277   2.221  10.706  0.3642 -0.3578 -1.0998
  147SAPE   HN316170   2.419   2.309  10.708 -1.3310  1.9820  1.6935
  147SAPE   C1216171   2.279   2.371  10.854  0.1727 -0.4987 -0.0481
  147SAPE  H12A16172   2.348   2.458  10.849  4.8304 -4.0186 -0.1077
  147SAPE  H12B16173   2.282   2.340  10.961 -1.1066  1.0907  0.4691
  147SAPE   C1116174   2.137   2.395  10.796 -0.4302 -0.7001  0.2899
  147SAPE  H11A16175   2.159   2.457  10.706 -0.6083 -1.0593 -0.0018
  147SAPE  H11B16176   2.082   2.459  10.868  1.3443  0.8456  0.3089
  147SAPE     P16177   1.915   2.259  10.754  0.0846  0.0937  0.1395
  147SAPE   O1316178   1.870   2.252  10.896  0.2741 -0.5687  0.2273
  147SAPE   O1416179   1.865   2.367  10.665  0.0663 -0.4499 -0.4426
  147SAPE   O1216180   2.071   2.276  10.762  0.0210 -0.2420 -0.0300
  147SAPE   O1116181   1.889   2.125  10.690  0.2803 -0.3860  0.0623
  147SAPE    C116182   1.988   2.028  10.658 -1.2981  0.3554  0.4418
  147SAPE    HA16183   2.081   2.046  10.716  0.2010 -1.8322 -1.2006
  147SAPE    HB16184   1.950   1.930  10.694  0.4121 -0.7298 -0.6327
  147SAPE    C216185   1.996   2.008  10.502 -0.1446  0.3985  0.2493
  147SAPE    HS16186   2.063   1.920  10.485 -0.4312 -0.0869  1.5903
  147SAPE   O2116187   2.037   2.127  10.434 -0.5912  0.2235 -0.2561
  147SAPE   C2116188   2.156   2.178  10.454  0.1219 -0.1432 -0.0221
  147SAPE   O2216189   2.242   2.121  10.521 -0.3652 -0.3553 -0.7037
  147SAPE   C2216190   2.169   2.308  10.380  0.7373  0.6957  0.6388
  147SAPE   H2R16191   2.078   2.326  10.320  0.4943  2.0430  1.3715
  147SAPE   H2S16192   2.179   2.392  10.452  2.9206 -0.3631  1.6229
  147SAPE    C316193   1.855   1.967  10.450 -0.5084  0.4365 -0.8942
  147SAPE    HX16194   1.770   2.030  10.483  0.5366 -0.1431  3.1749
  147SAPE    HY16195   1.838   1.864  10.488 -0.1862  0.4673 -0.6610
  147SAPE   O3116196   1.863   1.952  10.305 -0.2413  0.1562 -0.5175
  147SAPE   C3116197   1.807   2.053  10.240 -0.3685 -0.7249  0.5666
  147SAPE   O3216198   1.739   2.146  10.283 -0.3552  0.0417  0.2021
  147SAPE   C3216199   1.830   2.025  10.089  0.1638 -0.3553  0.4166
  147SAPE   H2X16200   1.732   2.011  10.037  1.5604  0.4959 -2.5843
  147SAPE   H2Y16201   1.906   1.944  10.082 -2.5549 -3.0034  0.3115
  147SAPE   C2316202   2.283   2.308  10.286 -0.3539  0.3041 -0.2689
  147SAPE   H3R16203   2.277   2.214  10.227 -0.4311 -1.8305  3.0494
  147SAPE   H3S16204   2.376   2.306  10.347 -0.1756 -2.7524 -0.5671
  147SAPE   C2416205   2.314   2.428  10.197  0.3203  0.0517  0.1382
  147SAPE   H4R16206   2.412   2.420  10.146 -0.4190  1.2820 -1.5218
  147SAPE   H4S16207   2.329   2.507  10.274 -2.0758 -0.0121  0.7089
  147SAPE   C2516208   2.201   2.467  10.103 -0.3541 -0.6795  0.2698
  147SAPE   H5R16209   2.149   2.556  10.144 -0.9027 -1.1964  0.7025
  147SAPE   C2616210   2.175   2.427   9.976  0.6667 -0.8161  0.0219
  147SAPE   H6R16211   2.098   2.486   9.925 -0.7887 -2.8287 -0.1943
  147SAPE   C2716212   2.250   2.323   9.899 -1.1055 -0.7201  0.4078
  147SAPE   H7R16213   2.180   2.277   9.826 -0.1686 -2.4624  0.5699
  147SAPE   H7S16214   2.277   2.238   9.967  0.0989 -0.1109  0.7049
  147SAPE   C2816215   2.377   2.384   9.835 -0.6109  0.0242  0.8022
  147SAPE   H8R16216   2.456   2.417   9.904 -0.9157  1.1099  0.6454
  147SAPE   C2916217   2.396   2.408   9.700 -0.2777  0.4556 -0.3002
  147SAPE   H9R16218   2.498   2.430   9.663  0.5183 -2.6452 -0.0831
  147SAPE  C21016219   2.296   2.384   9.578 -0.0427 -0.3654 -0.6839
  147SAPE  H10R16220   2.237   2.290   9.583 -1.9585  0.8303 -0.5252
  147SAPE  H10S16221   2.356   2.380   9.484 -1.5550  0.4461 -1.6930
  147SAPE  C21116222   2.179   2.483   9.554  0.1485 -0.4678 -0.2039
  147SAPE  H11R16223   2.125   2.512   9.645 -1.1983 -2.3782 -0.3545
  147SAPE  C21216224   2.154   2.540   9.433 -0.9807  0.6211 -0.0225
  147SAPE  H12R16225   2.065   2.604   9.427 -0.0936  2.0899  1.8086
  147SAPE  C21316226   2.219   2.518   9.303  0.3648 -0.1681 -0.1412
  147SAPE  H13R16227   2.201   2.413   9.270  2.4650  0.2881 -2.9140
  147SAPE  H13S16228   2.327   2.508   9.329 -0.1416 -3.6960  0.9004
  147SAPE  C21416229   2.183   2.599   9.182 -1.2002  0.0186 -0.1894
  147SAPE  H14R16230   2.086   2.652   9.179 -0.4586  1.6416  2.1556
  147SAPE  C21516231   2.274   2.616   9.080 -0.3670  0.2190  0.2907
  147SAPE  H15R16232   2.234   2.669   8.992  0.8326  0.7052  0.0392
  147SAPE  C21616233   2.410   2.554   9.080 -0.4694  0.5884 -0.0698
  147SAPE  H16R16234   2.432   2.473   9.152 -0.7938 -1.4555 -2.2021
  147SAPE  H16S16235   2.480   2.636   9.105  0.9991 -0.8626  0.6145
  147SAPE  C21716236   2.457   2.504   8.941  0.6902 -0.5708 -0.1577
  147SAPE  H17R16237   2.546   2.442   8.967 -0.3562 -2.4010 -0.8855
  147SAPE  H17S16238   2.485   2.591   8.878 -0.8088 -0.1826 -0.2918
  147SAPE  C21816239   2.349   2.433   8.865 -0.0391 -0.4385  0.1414
  147SAPE  H18R16240   2.255   2.491   8.854  0.1052 -0.6507 -2.4966
  147SAPE  H18S16241   2.321   2.346   8.929  2.2139 -0.6713  0.8498
  147SAPE  C21916242   2.404   2.385   8.724  0.5505  0.9909  0.0836
  147SAPE  H19R16243   2.501   2.332   8.734  0.7687  1.6191  1.3683
  147SAPE  H19S16244   2.413   2.464   8.647  3.9350  0.0027 -0.5919
  147SAPE  C22016245   2.306   2.287   8.659  0.3580 -0.2685 -0.2951
  147SAPE  H20R16246   2.342   2.238   8.566  1.0784 -1.6310  0.6690
  147SAPE  H20S16247   2.213   2.340   8.633  1.4583  2.3714  0.9523
  147SAPE  H20T16248   2.282   2.207   8.732  2.2571 -0.3868  0.2472
  147SAPE   C3316249   1.883   2.154  10.019 -0.4626  0.5943 -0.0375
  147SAPE   H3X16250   1.984   2.173  10.061 -0.9871  1.3617  0.8974
  147SAPE   H3Y16251   1.830   2.245  10.053  1.5926  0.7023  3.0646
  147SAPE   C3416252   1.888   2.144   9.868  0.5279  0.0963  0.7143
  147SAPE   H4X16253   1.920   2.045   9.829  0.6734  0.0680  0.9009
  147SAPE   H4Y16254   1.966   2.213   9.829  2.2078 -1.8761  0.4918
  147SAPE   C3516255   1.759   2.183   9.809  0.5317 -0.3175 -0.1959
  147SAPE   H5X16256   1.735   2.286   9.844 -1.2707 -1.0297  0.7781
  147SAPE   H5Y16257   1.679   2.116   9.847 -0.6572  0.4033 -1.3738
  147SAPE   C3616258   1.745   2.173   9.658  0.4858  0.6130  0.0767
  147SAPE   H6X16259   1.642   2.195   9.624 -0.0624 -2.3617 -0.3270
  147SAPE   H6Y16260   1.753   2.065   9.632  0.7853  0.9157 -1.0871
  147SAPE   C3716261   1.855   2.252   9.583 -0.6219  0.0834 -0.1036
  147SAPE   H7X16262   1.960   2.215   9.588 -0.6279  0.0478 -0.2395
  147SAPE   H7Y16263   1.848   2.362   9.600 -1.6300  0.3729 -2.2294
  147SAPE   C3816264   1.825   2.223   9.438  0.1069  0.2945  0.8047
  147SAPE   H8X16265   1.752   2.292   9.389  1.3904  0.7612 -0.4773
  147SAPE   H8Y16266   1.776   2.125   9.423 -1.2226  0.9197  0.9913
  147SAPE   C3916267   1.935   2.239   9.325 -0.3107  0.4842  0.9693
  147SAPE   H9X16268   2.010   2.165   9.359  0.9531  2.2240  2.0761
  147SAPE   H9Y16269   1.983   2.339   9.319  2.0698 -0.6029  1.5499
  147SAPE  C31016270   1.891   2.199   9.176 -0.3115 -0.1222 -0.8841
  147SAPE  H10X16271   1.849   2.098   9.191 -0.8590  0.5672  2.7368
  147SAPE  H10Y16272   1.979   2.193   9.109  1.1206  1.0037  0.8384
  147SAPE  C31116273   1.786   2.298   9.125  0.2312 -0.5879 -0.1698
  147SAPE  H11X16274   1.830   2.400   9.129 -1.0005 -0.0855  1.4584
  147SAPE  H11Y16275   1.692   2.313   9.183 -0.7712 -1.3209 -1.5895
  147SAPE  C31216276   1.744   2.280   8.972  0.6278 -0.6730  1.7918
  147SAPE  H12X16277   1.662   2.345   8.934 -0.4073 -3.8496 -1.6730
  147SAPE  H12Y16278   1.729   2.173   8.945  1.6749 -0.1713 -0.9071
  147SAPE  C31316279   1.863   2.336   8.883 -1.1102 -0.4633  0.1807
  147SAPE  H13X16280   1.857   2.280   8.788 -2.7753  2.5517 -1.5712
  147SAPE  H13Y16281   1.956   2.313   8.938 -0.9935  2.9831  1.5706
  147SAPE  C31416282   1.841   2.485   8.850  0.6100 -0.4066 -0.4754
  147SAPE  H14X16283   1.853   2.542   8.945  0.3954 -0.9033 -0.1493
  147SAPE  H14Y16284   1.739   2.494   8.805 -0.5956 -1.1571  2.0101
  147SAPE  C31516285   1.947   2.533   8.748 -0.2823  0.3161 -0.5244
  147SAPE  H15X16286   2.046   2.490   8.773 -0.4508  0.0329 -0.3412
  147SAPE  H15Y16287   1.946   2.644   8.743 -1.3118  0.2731 -1.8654
  147SAPE  C31616288   1.912   2.488   8.606 -0.1928 -0.3175 -0.2573
  147SAPE  H16X16289   1.816   2.533   8.569  0.5293  2.3999  1.0596
  147SAPE  H16Y16290   1.905   2.378   8.600  3.5466 -0.6004 -0.4004
  147SAPE  C31716291   2.016   2.534   8.501 -0.6859 -0.7105 -0.1722
  147SAPE  H17X16292   1.985   2.491   8.403 -0.6785 -0.0322 -0.4736
  147SAPE  H17Y16293   2.109   2.481   8.529  0.7774  1.5107 -0.6944
  147SAPE  C31816294   2.043   2.687   8.489 -0.4887  0.4643  0.4082
  147SAPE  H18X16295   1.958   2.753   8.515 -1.5202 -1.2082  1.3585
  147SAPE  H18Y16296   2.079   2.732   8.394  1.1084 -2.1073 -0.2425
  147SAPE  H18Z16297   2.126   2.721   8.554  1.9223 -0.1160 -2.2560
  148SAPE     N16298   3.834   3.932  11.059 -0.3864 -0.5192  0.3253
  148SAPE   HN116299   3.797   3.918  11.155  1.1298  0.8941  1.1523
  148SAPE   HN216300   3.890   3.848  11.036  2.6761  0.9454  2.0251
  148SAPE   HN316301   3.906   4.006  11.072 -0.3468 -0.1638 -1.7954
  148SAPE   C1216302   3.734   3.971  10.955 -0.7179  0.2677  0.2856
  148SAPE  H12A16303   3.688   4.067  10.985 -0.9984 -0.1295  1.1534
  148SAPE  H12B16304   3.651   3.897  10.961  1.2138 -2.0217 -0.1607
  148SAPE   C1116305   3.794   3.976  10.813  0.1512  0.2313 -0.2789
  148SAPE  H11A16306   3.870   4.057  10.818 -0.9613  1.3326 -0.8412
  148SAPE  H11B16307   3.707   4.013  10.754 -1.2818 -2.4301  0.0925
  148SAPE     P16308   3.979   3.824  10.704  0.0541 -0.4566  0.1970
  148SAPE   O1316309   4.076   3.902  10.775  0.2788  0.2640 -0.1139
  148SAPE   O1416310   4.002   3.676  10.700 -0.2692 -0.1518 -1.0090
  148SAPE   O1216311   3.835   3.846  10.772  0.4284 -0.5373 -1.0005
  148SAPE   O1116312   3.948   3.886  10.568  0.1991 -0.5198  0.5213
  148SAPE    C116313   3.836   3.825  10.489 -0.3125 -0.6466 -0.0462
  148SAPE    HA16314   3.870   3.723  10.460  2.2466 -0.4315  1.9500
  148SAPE    HB16315   3.748   3.835  10.557  1.8224 -1.9287  3.0219
  148SAPE    C216316   3.813   3.891  10.351  0.3167 -0.4614 -0.1294
  148SAPE    HS16317   3.898   3.869  10.284  1.4747  0.6631  0.9379
  148SAPE   O2116318   3.800   4.031  10.382 -0.7942 -0.0176 -0.1516
  148SAPE   C2116319   3.901   4.109  10.333 -0.0414  0.4060 -0.1477
  148SAPE   O2216320   3.998   4.063  10.273  0.0420 -0.2845  0.0892
  148SAPE   C2216321   3.883   4.257  10.362  0.4460 -0.7567  0.6182
  148SAPE   H2R16322   3.881   4.279  10.471  1.8325  1.2328  0.2750
  148SAPE   H2S16323   3.969   4.315  10.321 -1.1646  1.0546 -0.2618
  148SAPE    C316324   3.685   3.835  10.280 -0.6802 -0.5827 -0.0784
  148SAPE    HX16325   3.591   3.857  10.336  0.0087  0.4181  0.7141
  148SAPE    HY16326   3.713   3.728  10.284 -2.0299 -0.8810  3.5008
  148SAPE   O3116327   3.680   3.885  10.144  0.0187  0.2784 -0.3005
  148SAPE   C3116328   3.607   3.991  10.117  0.2981 -0.6795 -0.7125
  148SAPE   O3216329   3.528   4.047  10.190  0.0631  0.1977  0.2182
  148SAPE   C3216330   3.616   4.042   9.975 -0.5570  0.3020  0.1819
  148SAPE   H2X16331   3.554   4.134   9.978 -2.2837 -0.8610  3.2149
  148SAPE   H2Y16332   3.579   3.968   9.901  1.7745 -0.6114 -0.1030
  148SAPE   C2316333   3.751   4.304  10.294  0.2926 -0.4548  0.1549
  148SAPE   H3R16334   3.664   4.246  10.331 -0.8916 -0.2017 -2.1410
  148SAPE   H3S16335   3.768   4.287  10.185  1.4709  0.4406  0.1854
  148SAPE   C2416336   3.737   4.462  10.305 -0.9226  0.1308 -0.1609
  148SAPE   H4R16337   3.832   4.504  10.269 -1.0872  1.3201  0.7717
  148SAPE   H4S16338   3.737   4.472  10.416  0.5430 -1.9616  0.0488
  148SAPE   C2516339   3.619   4.494  10.224  0.5105  0.2140  0.0117
  148SAPE   H5R16340   3.524   4.459  10.266  0.1836  1.1895  0.1005
  148SAPE   C2616341   3.610   4.565  10.110 -0.5338  1.0226  0.5360
  148SAPE   H6R16342   3.508   4.572  10.069 -0.0008  0.1690 -0.9670
  148SAPE   C2716343   3.722   4.630  10.041  0.0029 -0.1640  0.3222
  148SAPE   H7R16344   3.812   4.569  10.017 -1.0191 -0.5430 -2.7616
  148SAPE   H7S16345   3.759   4.703  10.116  0.1106  0.1393 -0.0258
  148SAPE   C2816346   3.663   4.689   9.915 -0.1115 -0.0920  0.1318
  148SAPE   H8R16347   3.578   4.757   9.933 -0.3235 -0.1152 -0.7769
  148SAPE   C2916348   3.715   4.665   9.788  0.6022 -0.7972 -0.3302
  148SAPE   H9R16349   3.668   4.717   9.704 -1.1073 -2.5280 -0.4888
  148SAPE  C21016350   3.818   4.580   9.735 -0.3767  0.2743 -0.4346
  148SAPE  H10R16351   3.761   4.509   9.672 -1.2774  0.2476  0.3877
  148SAPE  H10S16352   3.869   4.516   9.811 -1.0437  1.2742  0.8849
  148SAPE  C21116353   3.920   4.656   9.649 -0.1115  0.2144  0.5240
  148SAPE  H11R16354   4.010   4.683   9.706 -0.5961  0.0056  1.3864
  148SAPE  C21216355   3.908   4.695   9.520 -0.0760 -0.0098  0.3096
  148SAPE  H12R16356   3.980   4.771   9.486 -0.3255 -1.4476 -3.6234
  148SAPE  C21316357   3.793   4.677   9.429  0.7285 -0.2226 -0.3822
  148SAPE  H13R16358   3.712   4.629   9.489 -0.2541 -0.5031 -1.9080
  148SAPE  H13S16359   3.818   4.613   9.342  1.0825  1.1695 -1.3054
  148SAPE  C21416360   3.728   4.810   9.384 -0.7840 -0.0954 -0.5352
  148SAPE  H14R16361   3.686   4.873   9.464  0.3433 -0.6057  0.4675
  148SAPE  C21516362   3.725   4.862   9.263  0.3731 -0.3851 -0.7260
  148SAPE  H15R16363   3.678   4.960   9.247 -1.4157 -1.3902 -1.7741
  148SAPE  C21616364   3.779   4.802   9.131  0.1874 -0.9416 -0.0041
  148SAPE  H16R16365   3.703   4.785   9.053  0.0642 -1.1709  0.1685
  148SAPE  H16S16366   3.839   4.709   9.142 -0.5550 -1.4474 -0.2708
  148SAPE  C21716367   3.885   4.899   9.071  0.1383 -0.5074 -0.3933
  148SAPE  H17R16368   3.970   4.900   9.143  0.8431  1.7463 -1.2186
  148SAPE  H17S16369   3.841   5.000   9.058  0.1886 -0.2427  1.3366
  148SAPE  C21816370   3.929   4.861   8.930  0.1882  0.3818 -0.5523
  148SAPE  H18R16371   3.961   4.754   8.932  0.7666  0.4628 -3.2965
  148SAPE  H18S16372   4.004   4.932   8.889  0.6164 -0.1637 -0.7230
  148SAPE  C21916373   3.812   4.860   8.830 -0.1656  0.3957 -0.0690
  148SAPE  H19R16374   3.761   4.958   8.833 -1.2820 -0.1774 -0.0889
  148SAPE  H19S16375   3.728   4.790   8.850  0.1310 -0.2598 -1.0701
  148SAPE  C22016376   3.871   4.845   8.695 -0.1795 -0.2235  0.0730
  148SAPE  H20R16377   3.931   4.751   8.692  0.4526  0.1701  0.1546
  148SAPE  H20S16378   3.940   4.929   8.674 -0.8183 -0.1221 -1.6358
  148SAPE  H20T16379   3.794   4.846   8.615  0.1457  1.2417 -0.2403
  148SAPE   C3316380   3.757   4.086   9.938  0.4007  0.5072  0.7120
  148SAPE   H3X16381   3.811   3.988   9.939 -1.3096 -0.4463  1.0982
  148SAPE   H3Y16382   3.812   4.150  10.011 -1.0267  1.8944  0.5867
  148SAPE   C3416383   3.770   4.133   9.796  0.4584 -0.8683  0.4868
  148SAPE   H4X16384   3.879   4.146   9.783  0.4081 -0.5503  0.3677
  148SAPE   H4Y16385   3.716   4.228   9.776  0.7965 -0.3300  2.0598
  148SAPE   C3516386   3.717   4.047   9.684 -0.2348 -0.1472  0.8046
  148SAPE   H5X16387   3.607   4.039   9.694 -0.5372  2.6827  0.1396
  148SAPE   H5Y16388   3.762   3.945   9.685 -0.8055 -0.4279 -0.5111
  148SAPE   C3616389   3.759   4.100   9.548 -0.0871  0.7973 -0.1408
  148SAPE   H6X16390   3.869   4.086   9.538  0.0857  1.2036  1.0925
  148SAPE   H6Y16391   3.733   4.208   9.554  1.3672  1.1090  0.8201
  148SAPE   C3716392   3.682   4.031   9.426  0.1695  0.3666 -0.3732
  148SAPE   H7X16393   3.573   4.049   9.438  0.2316  0.4457  0.0859
  148SAPE   H7Y16394   3.698   3.921   9.423  0.1552  0.3560 -0.0856
  148SAPE   C3816395   3.728   4.088   9.287 -0.5543 -0.4674 -0.3895
  148SAPE   H8X16396   3.836   4.065   9.285 -0.6452 -0.9025 -0.3668
  148SAPE   H8Y16397   3.709   4.197   9.292 -3.8534 -1.1013  3.5498
  148SAPE   C3916398   3.666   4.013   9.167  0.4560 -0.3444 -0.1219
  148SAPE   H9X16399   3.557   3.997   9.185  0.1685  0.6614 -0.9219
  148SAPE   H9Y16400   3.709   3.911   9.168 -0.8397 -0.9128 -0.2396
  148SAPE  C31016401   3.695   4.084   9.037 -0.8681  0.5145 -0.0198
  148SAPE  H10X16402   3.804   4.076   9.015 -1.4472 -0.7154 -2.6381
  148SAPE  H10Y16403   3.676   4.193   9.046 -0.1848  0.6638 -0.3110
  148SAPE  C31116404   3.602   4.034   8.922  0.2172 -0.2515 -0.3848
  148SAPE  H11X16405   3.495   4.031   8.951 -0.2238  1.2169 -1.8229
  148SAPE  H11Y16406   3.644   3.932   8.908  1.4666 -0.1004  2.0337
  148SAPE  C31216407   3.635   4.096   8.788  0.4904  0.1969 -0.9602
  148SAPE  H12X16408   3.743   4.083   8.765  0.4571 -0.7766 -0.5676
  148SAPE  H12Y16409   3.615   4.205   8.802  1.1495  0.5646 -2.7806
  148SAPE  C31316410   3.556   4.048   8.663 -0.2403  0.4264 -0.3183
  148SAPE  H13X16411   3.453   4.088   8.675 -0.9979 -1.6070  0.2111
  148SAPE  H13Y16412   3.538   3.938   8.664 -4.6654  1.0751  0.2091
  148SAPE  C31416413   3.618   4.089   8.533 -0.6509  0.1899  0.1907
  148SAPE  H14X16414   3.550   4.063   8.449  0.2967  0.3675 -0.6407
  148SAPE  H14Y16415   3.713   4.032   8.525  0.7864  2.4054  0.8682
  148SAPE  C31516416   3.652   4.239   8.522 -1.2262 -0.1748  0.0511
  148SAPE  H15X16417   3.718   4.274   8.604 -1.1214 -1.5638  0.5691
  148SAPE  H15Y16418   3.560   4.300   8.531 -0.0681  1.6402 -0.1144
  148SAPE  C31616419   3.710   4.264   8.383 -0.4175  0.5869  0.1035
  148SAPE  H16X16420   3.650   4.211   8.306  0.7422  0.9998 -1.1086
  148SAPE  H16Y16421   3.811   4.216   8.380 -0.7089 -0.0753  0.7236
  148SAPE  C31716422   3.725   4.411   8.343 -0.4382 -0.4631  0.2221
  148SAPE  H17X16423   3.761   4.464   8.434 -0.7812  0.8512 -0.3900
  148SAPE  H17Y16424   3.625   4.452   8.321  0.3231 -0.0248 -2.5898
  148SAPE  C31816425   3.823   4.432   8.227  0.3345 -0.7383  0.2295
  148SAPE  H18X16426   3.763   4.403   8.138 -1.8312  1.4760  0.9008
  148SAPE  H18Y16427   3.902   4.354   8.226  0.1942 -0.9009 -2.6008
  148SAPE  H18Z16428   3.856   4.538   8.225 -1.3124 -0.2125  0.0263
  149SAPE     N16429   5.549   0.101  11.149  0.6372 -0.5530  0.1314
  149SAPE   HN116430   5.515   0.096  11.050 -2.1654 -1.2018  1.0791
  149SAPE   HN216431   5.645   0.060  11.150  1.1811  0.5215 -2.4549
  149SAPE   HN316432   5.495   0.033  11.205 -0.2921 -0.1338 -0.2387
  149SAPE   C1216433   5.564   0.232  11.209  0.0597 -0.4237  0.3749
  149SAPE  H12A16434   5.615   0.229  11.308 -1.3140  1.8184  1.1905
  149SAPE  H12B16435   5.463   0.279  11.218  0.7094  0.5060  3.1822
  149SAPE   C1116436   5.659   0.321  11.124  0.0171 -0.8985  0.4813
  149SAPE  H11A16437   5.645   0.426  11.157 -1.4065 -1.3333  1.2630
  149SAPE  H11B16438   5.638   0.307  11.015  0.1323 -3.6889  0.7732
  149SAPE     P16439   5.871   0.182  11.080 -0.0124 -0.4259  0.1737
  149SAPE   O1316440   6.015   0.196  11.118 -0.1792  0.3523 -0.3268
  149SAPE   O1416441   5.810   0.054  11.119  0.0490 -0.4979  0.6217
  149SAPE   O1216442   5.794   0.296  11.153 -0.6262  0.2367 -0.5087
  149SAPE   O1116443   5.855   0.202  10.920  0.1480 -0.0761 -0.7866
  149SAPE    C116444   5.929   0.291  10.840 -0.0310  0.2643 -0.3256
  149SAPE    HA16445   5.861   0.366  10.794 -0.7421 -1.5354 -2.2768
  149SAPE    HB16446   6.002   0.355  10.895 -1.3098  1.2270  0.2856
  149SAPE    C216447   6.008   0.221  10.732  0.2077  0.5548  0.0544
  149SAPE    HS16448   6.041   0.284  10.647 -0.4789 -0.2535 -0.8218
  149SAPE   O2116449   5.925   0.115  10.683 -0.0333 -0.4528 -0.0711
  149SAPE   C2116450   5.820   0.159  10.603  0.1144 -0.4004 -0.0438
  149SAPE   O2216451   5.809   0.273  10.560 -0.2565  0.9262  0.6486
  149SAPE   C2216452   5.712   0.052  10.572  0.4968 -0.3400  0.8018
  149SAPE   H2R16453   5.702  -0.004  10.668  0.1564 -0.1172  0.8932
  149SAPE   H2S16454   5.619   0.101  10.536  1.5181  0.3117 -1.0249
  149SAPE    C316455   6.150   0.157  10.779  0.3876 -0.5277 -0.2803
  149SAPE    HX16456   6.129   0.102  10.873 -0.6779 -0.7029 -0.6161
  149SAPE    HY16457   6.207   0.249  10.806  0.1050 -0.4937  0.2132
  149SAPE   O3116458   6.220   0.085  10.676 -0.2566  0.2786  0.1723
  149SAPE   C3116459   6.207  -0.045  10.671 -0.1877 -0.1218  0.4632
  149SAPE   O3216460   6.129  -0.117  10.725  0.0586 -0.2455 -0.1522
  149SAPE   C3216461   6.322  -0.107  10.582 -0.6480  0.1935 -0.1207
  149SAPE   H2X16462   6.349  -0.199  10.638 -0.1984  2.0642  2.8398
  149SAPE   H2Y16463   6.400  -0.028  10.575 -1.6692  1.1094 -1.4847
  149SAPE   C2316464   5.764  -0.050  10.456  0.6955  0.6889 -0.2572
  149SAPE   H3R16465   5.835  -0.122  10.500 -1.2722 -1.2020 -0.1209
  149SAPE   H3S16466   5.818   0.006  10.376  0.5758  0.7865 -0.2699
  149SAPE   C2416467   5.653  -0.127  10.380  0.7112 -0.8500 -0.3807
  149SAPE   H4R16468   5.594  -0.056  10.319 -0.3393 -1.1938  0.2220
  149SAPE   H4S16469   5.576  -0.167  10.450  0.6884 -0.4500 -0.1792
  149SAPE   C2516470   5.698  -0.253  10.310  0.5826 -0.3447  0.1644
  149SAPE   H5R16471   5.716  -0.340  10.375  1.6580  0.5269  1.0439
  149SAPE   C2616472   5.703  -0.267  10.173 -0.1726  0.0224 -0.1766
  149SAPE   H6R16473   5.731  -0.369  10.144 -1.5410 -0.3535 -0.2254
  149SAPE   C2716474   5.690  -0.161  10.064 -0.5604 -0.2320  0.5372
  149SAPE   H7R16475   5.688  -0.067  10.123 -2.3199 -0.4795  0.9239
  149SAPE   H7S16476   5.587  -0.168  10.022  1.0976 -1.7921 -3.4569
  149SAPE   C2816477   5.793  -0.154   9.952 -0.3587  0.4008  0.2594
  149SAPE   H8R16478   5.893  -0.130   9.990 -0.2225  0.0608  0.1123
  149SAPE   C2916479   5.774  -0.180   9.819  0.3656  0.3172 -0.3843
  149SAPE   H9R16480   5.865  -0.187   9.758  0.7952  2.4755 -0.0493
  149SAPE  C21016481   5.647  -0.219   9.747 -0.9343  0.3536 -0.0846
  149SAPE  H10R16482   5.567  -0.217   9.823  0.0169 -1.0218  0.9723
  149SAPE  H10S16483   5.658  -0.321   9.706 -0.8322  0.6521 -0.8197
  149SAPE  C21116484   5.609  -0.128   9.633 -0.0213 -0.0627  0.4185
  149SAPE  H11R16485   5.554  -0.039   9.666 -0.7499 -1.0162  1.8419
  149SAPE  C21216486   5.627  -0.159   9.508 -1.2272 -0.7714  0.0370
  149SAPE  H12R16487   5.600  -0.085   9.431  2.0739 -0.2487 -0.7092
  149SAPE  C21316488   5.691  -0.276   9.454  0.2523  0.0854  0.0761
  149SAPE  H13R16489   5.757  -0.334   9.521  0.1670 -2.8532 -2.2979
  149SAPE  H13S16490   5.763  -0.240   9.377 -2.0285  1.3879 -1.5396
  149SAPE  C21416491   5.595  -0.374   9.393 -0.7049  0.4572 -0.5826
  149SAPE  H14R16492   5.507  -0.394   9.457 -1.0898 -0.4981 -1.4008
  149SAPE  C21516493   5.607  -0.430   9.275 -0.2612  0.5694  0.7692
  149SAPE  H15R16494   5.533  -0.508   9.254 -2.2556  2.2998  1.2618
  149SAPE  C21616495   5.712  -0.418   9.168  0.0082 -0.2592 -0.1014
  149SAPE  H16R16496   5.716  -0.522   9.129 -0.2653 -1.3465  2.6657
  149SAPE  H16S16497   5.808  -0.388   9.216 -0.4003  0.0531  0.5187
  149SAPE  C21716498   5.686  -0.320   9.054  0.0434 -0.5309  0.3363
  149SAPE  H17R16499   5.775  -0.308   8.990 -0.2884 -1.1232 -0.2329
  149SAPE  H17S16500   5.668  -0.215   9.086  2.8032  0.2817 -0.6949
  149SAPE  C21816501   5.568  -0.349   8.962 -0.3877  0.2397  0.3086
  149SAPE  H18R16502   5.480  -0.348   9.029  0.4919  3.4015  1.5497
  149SAPE  H18S16503   5.583  -0.454   8.928 -1.2574 -0.6147  2.4796
  149SAPE  C21916504   5.551  -0.254   8.847  0.4350 -0.5720  0.1908
  149SAPE  H19R16505   5.642  -0.239   8.785 -0.8736  2.4010 -1.1562
  149SAPE  H19S16506   5.535  -0.152   8.889  3.0047 -0.5816  1.2362
  149SAPE  C22016507   5.430  -0.291   8.759 -1.0501 -0.0702 -0.1625
  149SAPE  H20R16508   5.424  -0.229   8.667 -0.5930 -1.2464 -1.0056
  149SAPE  H20S16509   5.331  -0.304   8.808 -0.2859 -2.1525  0.9006
  149SAPE  H20T16510   5.457  -0.396   8.731 -0.1651  0.0700  0.1399
  149SAPE   C3316511   6.253  -0.142  10.447 -0.4585  0.7161  0.5597
  149SAPE   H3X16512   6.173  -0.218  10.465  2.0746 -2.5480 -1.2876
  149SAPE   H3Y16513   6.325  -0.191  10.378 -0.4404  3.2633 -1.3007
  149SAPE   C3416514   6.199  -0.026  10.368 -0.0017 -0.0893 -0.0612
  149SAPE   H4X16515   6.279   0.031  10.316  0.2089 -0.1085  0.2397
  149SAPE   H4Y16516   6.152   0.042  10.442  0.1892  0.0430 -0.0601
  149SAPE   C3516517   6.098  -0.067  10.261 -0.0921 -0.9622 -0.1273
  149SAPE   H5X16518   6.039   0.012  10.210 -1.0853 -0.8126  1.2338
  149SAPE   H5Y16519   6.027  -0.137  10.312  0.7857 -1.3841  0.5354
  149SAPE   C3616520   6.150  -0.160  10.148  0.0832 -0.7369  0.1019
  149SAPE   H6X16521   6.056  -0.206  10.111  0.8989 -3.9776  1.9049
  149SAPE   H6Y16522   6.221  -0.225  10.203  1.3882  0.3803 -0.2234
  149SAPE   C3716523   6.226  -0.085  10.036 -0.7787  0.0391 -0.7997
  149SAPE   H7X16524   6.310  -0.040  10.093  0.1866 -2.0784 -0.5182
  149SAPE   H7Y16525   6.165  -0.006   9.986  0.5009  0.3823 -1.8275
  149SAPE   C3816526   6.277  -0.175   9.921 -0.2014  0.6330  0.4328
  149SAPE   H8X16527   6.286  -0.275   9.968  2.2287  1.1612  1.1886
  149SAPE   H8Y16528   6.376  -0.133   9.894 -1.7515  3.2884 -1.2824
  149SAPE   C3916529   6.192  -0.179   9.799  0.1619  0.2880 -0.6044
  149SAPE   H9X16530   6.091  -0.184   9.845  0.4400 -0.3589 -0.0519
  149SAPE   H9Y16531   6.218  -0.262   9.730 -0.4846  0.1977 -0.7358
  149SAPE  C31016532   6.197  -0.051   9.704 -0.8306  0.5809 -0.1948
  149SAPE  H10X16533   6.286  -0.054   9.638  0.3981 -2.6977  1.4762
  149SAPE  H10Y16534   6.204   0.037   9.771 -1.5098 -0.7082  1.6287
  149SAPE  C31116535   6.074  -0.049   9.613  0.6803  0.2150  0.3298
  149SAPE  H11X16536   6.080   0.051   9.567  1.0426  0.4180  0.8047
  149SAPE  H11Y16537   5.984  -0.058   9.677  0.9543  0.5220  0.7643
  149SAPE  C31216538   6.074  -0.163   9.508  0.5692 -0.5113 -0.8233
  149SAPE  H12X16539   5.974  -0.163   9.460  0.9545 -0.2769 -1.6403
  149SAPE  H12Y16540   6.082  -0.261   9.559 -0.6230 -0.0447  0.2906
  149SAPE  C31316541   6.171  -0.158   9.395  0.3146 -0.3511 -0.4511
  149SAPE  H13X16542   6.273  -0.143   9.437 -0.5650  0.9070  1.3194
  149SAPE  H13Y16543   6.140  -0.071   9.333 -0.3608 -1.0089 -1.0370
  149SAPE  C31416544   6.156  -0.276   9.301 -0.4457 -0.5106 -0.0112
  149SAPE  H14X16545   6.055  -0.277   9.254  0.0375  0.3895 -1.0806
  149SAPE  H14Y16546   6.175  -0.377   9.345  0.7680 -0.0728  0.4857
  149SAPE  C31516547   6.255  -0.265   9.189 -0.4002 -0.7790  0.0636
  149SAPE  H15X16548   6.362  -0.258   9.216 -0.8955 -0.5592  2.0383
  149SAPE  H15Y16549   6.240  -0.176   9.124 -0.3517 -1.0001 -0.2565
  149SAPE  C31616550   6.245  -0.389   9.090  0.4672  0.6467  0.1094
  149SAPE  H16X16551   6.142  -0.404   9.050 -0.1335 -0.0308  1.8737
  149SAPE  H16Y16552   6.255  -0.485   9.144 -1.9176 -0.3381 -1.1218
  149SAPE  C31716553   6.357  -0.386   8.984 -0.4523 -0.0055  0.0939
  149SAPE  H17X16554   6.449  -0.411   9.041  0.6056  1.5966 -0.8714
  149SAPE  H17Y16555   6.368  -0.285   8.938 -0.7733  0.0418  0.1170
  149SAPE  C31816556   6.358  -0.495   8.877 -0.1470 -0.1681  0.1562
  149SAPE  H18X16557   6.384  -0.593   8.921 -3.2721 -0.6249  1.1102
  149SAPE  H18Y16558   6.435  -0.480   8.799 -1.4390  0.4789 -1.0222
  149SAPE  H18Z16559   6.255  -0.492   8.836  0.4779 -0.1508 -1.4198
  150SAPE     N16560   0.871   6.101  10.720  0.6482  0.7115 -0.8288
  150SAPE   HN116561   0.957   6.106  10.779  0.1784 -0.5567 -0.0058
  150SAPE   HN216562   0.883   6.027  10.648 -0.7365 -0.1400 -0.2039
  150SAPE   HN316563   0.872   6.191  10.667 -0.1700  0.4441 -1.2993
  150SAPE   C1216564   0.743   6.099  10.810 -0.8812 -0.2586  0.5247
  150SAPE  H12A16565   0.658   6.146  10.755  0.7831  0.8954 -1.1293
  150SAPE  H12B16566   0.772   6.157  10.900 -1.5234  2.5924 -1.0489
  150SAPE   C1116567   0.721   5.952  10.843 -0.0221 -0.9115  0.6466
  150SAPE  H11A16568   0.690   5.878  10.767  1.8089  0.8595 -1.9244
  150SAPE  H11B16569   0.628   5.956  10.904 -1.1354  1.9989 -1.1293
  150SAPE     P16570   0.917   5.804  10.917 -0.0383 -0.2489 -0.0830
  150SAPE   O1316571   1.035   5.821  11.001  0.6466 -0.3773  0.0110
  150SAPE   O1416572   0.825   5.686  10.941 -0.0639  0.1842 -0.6125
  150SAPE   O1216573   0.831   5.930  10.924 -0.7816  0.6044 -0.2687
  150SAPE   O1116574   0.958   5.803  10.771 -0.4885 -0.0659 -0.1682
  150SAPE    C116575   1.061   5.710  10.727 -1.0987  0.4992  0.4676
  150SAPE    HA16576   1.154   5.724  10.787 -0.1457  0.7163 -1.0524
  150SAPE    HB16577   1.029   5.604  10.737  1.6018 -0.3606  0.6346
  150SAPE    C216578   1.112   5.738  10.588  0.2233  0.2131 -0.0913
  150SAPE    HS16579   1.153   5.842  10.587  2.2606 -0.5503  1.8279
  150SAPE   O2116580   1.009   5.717  10.488  0.1325  0.2281 -0.2054
  150SAPE   C2116581   0.931   5.826  10.459  0.1212 -0.4421 -0.3809
  150SAPE   O2216582   0.934   5.931  10.518 -0.7609 -0.0834  0.3584
  150SAPE   C2216583   0.831   5.787  10.354  0.4179 -0.0184  0.4253
  150SAPE   H2R16584   0.790   5.690  10.390  0.1195 -0.4536 -1.0352
  150SAPE   H2S16585   0.743   5.855  10.356 -0.2156 -0.8617  1.4150
  150SAPE    C316586   1.231   5.647  10.567  0.7021 -0.3629  0.1054
  150SAPE    HX16587   1.212   5.540  10.588  2.5125 -0.9432 -1.0791
  150SAPE    HY16588   1.302   5.672  10.649  0.8786  2.1224 -0.7495
  150SAPE   O3116589   1.294   5.664  10.437  0.0302 -0.3417  0.1476
  150SAPE   C3116590   1.408   5.733  10.419  0.1239  0.5955 -0.3422
  150SAPE   O3216591   1.472   5.778  10.515  0.4078  0.7618 -0.3101
  150SAPE   C3216592   1.463   5.739  10.279 -0.3308  0.6034 -0.3243
  150SAPE   H2X16593   1.448   5.642  10.228  0.2658  1.5257 -2.2968
  150SAPE   H2Y16594   1.572   5.761  10.287 -0.2129  0.6034 -1.8357
  150SAPE   C2316595   0.909   5.764  10.222 -0.3081  0.1435  0.4873
  150SAPE   H3R16596   1.007   5.716  10.241  0.1950  0.1490 -1.8496
  150SAPE   H3S16597   0.937   5.856  10.166  1.9371 -1.1905 -0.6275
  150SAPE   C2416598   0.839   5.662  10.130 -0.2975  0.8970 -0.1385
  150SAPE   H4R16599   0.802   5.576  10.190  2.6960  0.0093  0.5040
  150SAPE   H4S16600   0.907   5.616  10.056 -0.2100 -1.0903  1.1454
  150SAPE   C2516601   0.724   5.738  10.068 -0.3091  0.1875 -0.0751
  150SAPE   H5R16602   0.653   5.773  10.145 -0.1520 -0.9412  0.5945
  150SAPE   C2616603   0.718   5.778   9.940  0.1809 -1.0287  0.9188
  150SAPE   H6R16604   0.638   5.846   9.910 -1.7284 -2.8774  1.7159
  150SAPE   C2716605   0.824   5.766   9.835 -0.0559 -0.0605  0.0888
  150SAPE   H7R16606   0.923   5.781   9.882  0.1346  0.5548 -0.5221
  150SAPE   H7S16607   0.808   5.854   9.769  1.3370 -0.1137 -0.3151
  150SAPE   C2816608   0.824   5.641   9.758 -0.6708  0.0967 -0.0048
  150SAPE   H8R16609   0.774   5.558   9.811 -0.1861  0.6446  1.3312
  150SAPE   C2916610   0.873   5.634   9.633  0.5459 -0.4226 -0.9267
  150SAPE   H9R16611   0.859   5.536   9.587 -0.2588  0.2285 -2.0930
  150SAPE  C21016612   0.946   5.738   9.548 -0.4045 -0.0545  0.2595
  150SAPE  H10R16613   1.004   5.814   9.605  0.5709  0.1907 -1.0310
  150SAPE  H10S16614   0.868   5.800   9.497 -0.4402  0.2530  0.6798
  150SAPE  C21116615   1.036   5.677   9.444 -0.1538  0.0735 -0.0538
  150SAPE  H11R16616   1.112   5.608   9.485 -0.8588 -1.8338 -1.8937
  150SAPE  C21216617   1.039   5.702   9.312  0.5550 -0.6284 -0.2213
  150SAPE  H12R16618   1.096   5.635   9.246 -0.2960 -1.3348 -0.2500
  150SAPE  C21316619   0.943   5.784   9.229 -1.0435  0.2954 -0.3570
  150SAPE  H13R16620   0.913   5.874   9.288 -3.1553 -1.8817  2.0090
  150SAPE  H13S16621   0.846   5.730   9.219 -1.2269  0.7519 -1.0716
  150SAPE  C21416622   0.991   5.820   9.096  0.4911  0.1198  0.1482
  150SAPE  H14R16623   1.096   5.849   9.087  0.0096  1.7941 -0.2743
  150SAPE  C21516624   0.924   5.808   8.975 -0.9662  0.2516 -0.0539
  150SAPE  H15R16625   0.986   5.839   8.890 -0.2610  3.4682  1.5414
  150SAPE  C21616626   0.792   5.744   8.954  0.1270  0.0084 -0.0555
  150SAPE  H16R16627   0.715   5.821   8.932  1.2120  0.6290 -1.7887
  150SAPE  H16S16628   0.751   5.693   9.044 -2.9183 -0.2494 -1.5266
  150SAPE  C21716629   0.802   5.639   8.841  0.0189 -0.9074  0.2023
  150SAPE  H17R16630   0.884   5.570   8.868  0.9651  0.5750  1.1505
  150SAPE  H17S16631   0.828   5.685   8.743 -2.7924 -1.7902 -1.0187
  150SAPE  C21816632   0.673   5.557   8.834  0.5692 -0.0618  0.1624
  150SAPE  H18R16633   0.592   5.626   8.801 -0.7944 -1.2722  0.9448
  150SAPE  H18S16634   0.627   5.527   8.931 -3.0049 -2.0044 -2.0513
  150SAPE  C21916635   0.688   5.434   8.741  0.6888  0.5602 -0.1969
  150SAPE  H19R16636   0.747   5.369   8.809 -0.7678 -1.0560 -0.4483
  150SAPE  H19S16637   0.751   5.475   8.659 -1.5390  0.1873 -2.1575
  150SAPE  C22016638   0.559   5.370   8.682  0.1004 -0.8261 -0.9232
  150SAPE  H20R16639   0.484   5.350   8.761 -0.6739 -0.7002 -1.6122
  150SAPE  H20S16640   0.583   5.275   8.629 -0.6734 -0.9083 -1.1247
  150SAPE  H20T16641   0.516   5.442   8.608 -1.6616 -0.0870  0.7976
  150SAPE   C3316642   1.417   5.863  10.194 -0.5474  0.0763  0.3554
  150SAPE   H3X16643   1.478   5.868  10.101  1.7508 -0.4471  1.7974
  150SAPE   H3Y16644   1.454   5.952  10.249  0.2283 -1.2281  1.9662
  150SAPE   C3416645   1.265   5.865  10.170 -0.2919  0.6780  0.5449
  150SAPE   H4X16646   1.216   5.870  10.270  0.0707  0.2729  0.7425
  150SAPE   H4Y16647   1.225   5.784  10.106 -1.8284  1.1922  0.8325
  150SAPE   C3516648   1.223   5.990  10.107 -0.5331 -0.2274  0.0690
  150SAPE   H5X16649   1.279   6.082  10.134  0.2055 -0.0045 -2.1246
  150SAPE   H5Y16650   1.116   6.007  10.131 -0.4468  1.2834 -0.5640
  150SAPE   C3616651   1.218   5.975   9.951 -0.3610 -0.6476 -0.5809
  150SAPE   H6X16652   1.184   5.870   9.940 -0.9526 -0.4894 -0.2622
  150SAPE   H6Y16653   1.321   5.986   9.909 -0.5264  0.5349 -0.6827
  150SAPE   C3716654   1.144   6.074   9.874  0.9760 -0.5460  0.0759
  150SAPE   H7X16655   1.173   6.177   9.906 -1.2167 -0.0190  0.4833
  150SAPE   H7Y16656   1.035   6.069   9.897  0.8580  0.3833 -0.2447
  150SAPE   C3816657   1.169   6.056   9.725 -0.0295 -1.0755  0.0682
  150SAPE   H8X16658   1.154   5.946   9.718 -1.0730 -0.9060 -0.4520
  150SAPE   H8Y16659   1.274   6.091   9.714 -1.0098  1.8220 -0.6913
  150SAPE   C3916660   1.094   6.159   9.633  0.2182 -0.6242  0.1593
  150SAPE   H9X16661   1.121   6.261   9.670  3.8293 -0.7081 -2.0089
  150SAPE   H9Y16662   0.986   6.136   9.643 -0.0537  0.6862  0.4313
  150SAPE  C31016663   1.139   6.157   9.484  0.4646  0.3669 -0.0081
  150SAPE  H10X16664   1.152   6.056   9.440 -1.9647 -0.0336  0.1770
  150SAPE  H10Y16665   1.234   6.216   9.478 -0.0555  1.1967 -0.1221
  150SAPE  C31116666   1.062   6.245   9.379 -0.5319  0.1463 -0.7873
  150SAPE  H11X16667   1.065   6.352   9.405  5.8574 -0.3664  1.4241
  150SAPE  H11Y16668   0.956   6.215   9.366 -0.5614  0.8572 -2.3329
  150SAPE  C31216669   1.134   6.230   9.245  0.4538 -0.0860  0.2306
  150SAPE  H12X16670   1.136   6.122   9.221 -0.7296 -0.3804  1.4400
  150SAPE  H12Y16671   1.236   6.274   9.246  0.0977  0.7766  2.6565
  150SAPE  C31316672   1.052   6.289   9.128  0.6259  0.9743 -0.3044
  150SAPE  H13X16673   1.121   6.335   9.054  0.7817  0.7286 -0.3108
  150SAPE  H13Y16674   0.995   6.374   9.170 -1.8423 -0.8728  0.1534
  150SAPE  C31416675   0.977   6.187   9.049  0.3169  0.2710 -0.7734
  150SAPE  H14X16676   0.911   6.138   9.124 -0.4716  0.8016 -1.1109
  150SAPE  H14Y16677   1.044   6.105   9.015 -0.5475 -1.1321  0.7810
  150SAPE  C31516678   0.884   6.244   8.936 -0.3654 -0.4709 -0.5799
  150SAPE  H15X16679   0.816   6.318   8.984  0.5251  0.7258 -1.1222
  150SAPE  H15Y16680   0.816   6.170   8.889 -1.3997 -1.1612  1.9506
  150SAPE  C31616681   0.968   6.325   8.838 -0.3285  0.3920  0.0417
  150SAPE  H16X16682   1.024   6.403   8.894 -1.1528  0.7027  0.4419
  150SAPE  H16Y16683   0.901   6.388   8.776 -0.0757 -0.4349 -1.0838
  150SAPE  C31716684   1.055   6.241   8.744  0.5310  0.6378  0.0920
  150SAPE  H17X16685   1.118   6.182   8.814  2.8162  2.6338 -0.1985
  150SAPE  H17Y16686   1.122   6.309   8.685  1.5234  0.0447  0.5302
  150SAPE  C31816687   0.975   6.146   8.652 -0.8640 -0.2833  0.2305
  150SAPE  H18X16688   1.034   6.076   8.589 -0.8508 -0.7757  0.7822
  150SAPE  H18Y16689   0.910   6.197   8.578 -0.8657 -1.1246 -0.3552
  150SAPE  H18Z16690   0.909   6.081   8.714 -1.3863  1.5808  1.6716
  151SAPE     N16691   4.213   3.544  10.597  0.3983  0.0038 -0.7583
  151SAPE   HN116692   4.155   3.602  10.661  0.2682  0.0470 -0.9129
  151SAPE   HN216693   4.147   3.520  10.520 -0.6792 -1.7179  0.6620
  151SAPE   HN316694   4.241   3.451  10.634 -0.2775  0.3810  0.7316
  151SAPE   C1216695   4.328   3.605  10.523  0.1542  0.2953  0.7535
  151SAPE  H12A16696   4.399   3.644  10.599  1.4331 -1.4737  0.4837
  151SAPE  H12B16697   4.284   3.695  10.474  0.5771  0.0016 -0.1731
  151SAPE   C1116698   4.395   3.505  10.430  0.5926 -0.2683 -0.3797
  151SAPE  H11A16699   4.486   3.559  10.397  1.0862 -2.2708 -2.3532
  151SAPE  H11B16700   4.328   3.483  10.344 -0.5511 -0.1485  0.4668
  151SAPE     P16701   4.547   3.301  10.486 -0.0285 -0.1520 -0.2329
  151SAPE   O1316702   4.637   3.341  10.371 -0.3038  0.5471  0.6519
  151SAPE   O1416703   4.604   3.293  10.625 -0.1794 -0.3214 -0.2825
  151SAPE   O1216704   4.419   3.385  10.495  0.2881  0.3409  0.0889
  151SAPE   O1116705   4.491   3.160  10.450 -0.2047 -0.1132  0.3687
  151SAPE    C116706   4.389   3.130  10.364  0.8620  0.9797  0.5955
  151SAPE    HA16707   4.340   3.039  10.406 -1.0479  0.3003 -2.9086
  151SAPE    HB16708   4.309   3.206  10.348 -1.0715 -1.1979 -0.4637
  151SAPE    C216709   4.449   3.094  10.224  0.3115 -0.0264 -0.3746
  151SAPE    HS16710   4.524   3.167  10.186  1.3377  0.2818  2.1377
  151SAPE   O2116711   4.350   3.065  10.118 -0.0346  0.4174 -0.9236
  151SAPE   C2116712   4.293   3.172  10.074 -0.3951 -0.1853 -0.3672
  151SAPE   O2216713   4.304   3.282  10.121  0.2114 -0.0143 -0.1300
  151SAPE   C2216714   4.197   3.129   9.954 -0.5501  0.4719  0.0755
  151SAPE   H2R16715   4.262   3.063   9.893  0.4978  2.7754 -1.3657
  151SAPE   H2S16716   4.116   3.069  10.002  1.0676 -3.6748 -2.1972
  151SAPE    C316717   4.534   2.966  10.253  0.2448 -0.4367  0.0507
  151SAPE    HX16718   4.480   2.886  10.308 -0.4283 -0.1300 -0.1599
  151SAPE    HY16719   4.611   2.993  10.328 -2.4000  0.0800  2.7022
  151SAPE   O3116720   4.596   2.916  10.133 -0.3996  0.3906  0.2242
  151SAPE   C3116721   4.534   2.809  10.082  0.2583  0.5611 -0.2754
  151SAPE   O3216722   4.448   2.745  10.140 -0.2078 -0.1858  0.5637
  151SAPE   C3216723   4.594   2.766   9.951  0.4828 -0.2310 -0.6574
  151SAPE   H2X16724   4.702   2.751   9.973  0.5355 -2.0854 -2.0785
  151SAPE   H2Y16725   4.577   2.841   9.870 -3.0881 -0.8108 -0.5233
  151SAPE   C2316726   4.132   3.247   9.874  0.0698 -0.5312 -0.6557
  151SAPE   H3R16727   4.114   3.331   9.945  1.4196 -0.2254 -0.6696
  151SAPE   H3S16728   4.034   3.210   9.836 -0.6615  0.3795  0.3092
  151SAPE   C2416729   4.230   3.288   9.762 -0.5474  0.3243 -0.2686
  151SAPE   H4R16730   4.318   3.333   9.812  0.1118 -0.7100 -0.4728
  151SAPE   H4S16731   4.181   3.376   9.715  0.1769 -0.0884 -1.8325
  151SAPE   C2516732   4.264   3.181   9.655 -0.1129 -0.2214  0.2629
  151SAPE   H5R16733   4.311   3.087   9.688 -3.9883 -2.0884  0.6903
  151SAPE   C2616734   4.251   3.189   9.518 -0.0014 -0.0897  0.3136
  151SAPE   H6R16735   4.279   3.103   9.456  1.4767 -1.2937  2.5733
  151SAPE   C2716736   4.198   3.298   9.443 -0.3991 -0.3591 -0.1946
  151SAPE   H7R16737   4.151   3.379   9.503 -1.5126 -0.6890 -0.6057
  151SAPE   H7S16738   4.119   3.271   9.370 -0.8106 -0.0954  0.1476
  151SAPE   C2816739   4.315   3.358   9.376  0.4460  0.2002  0.5739
  151SAPE   H8R16740   4.376   3.409   9.452  0.7158 -0.5707  0.8724
  151SAPE   C2916741   4.357   3.359   9.244  0.4040  0.0707  0.5027
  151SAPE   H9R16742   4.446   3.417   9.215 -0.6451  2.0845  1.2632
  151SAPE  C21016743   4.276   3.288   9.136  0.5988  0.6055 -0.4720
  151SAPE  H10R16744   4.190   3.229   9.175  1.6565 -0.3781  0.4067
  151SAPE  H10S16745   4.342   3.216   9.083  0.5643 -0.4769  0.9155
  151SAPE  C21116746   4.219   3.399   9.054  0.2611 -0.3547 -0.6735
  151SAPE  H11R16747   4.156   3.471   9.108  1.1925 -0.3611  0.4384
  151SAPE  C21216748   4.244   3.427   8.921  0.3294 -0.4111 -0.2992
  151SAPE  H12R16749   4.182   3.501   8.869  1.1505  1.5517  1.4713
  151SAPE  C21316750   4.332   3.333   8.841 -0.3493  0.7268 -0.1454
  151SAPE  H13R16751   4.281   3.234   8.831 -1.0457  1.4605 -5.6421
  151SAPE  H13S16752   4.418   3.307   8.905  1.8354 -1.4662 -3.7880
  151SAPE  C21416753   4.382   3.388   8.707 -0.5544 -0.4979 -0.0522
  151SAPE  H14R16754   4.454   3.471   8.716 -3.7481  2.5198 -1.2061
  151SAPE  C21516755   4.347   3.355   8.581 -0.7301 -0.6640  0.2661
  151SAPE  H15R16756   4.403   3.412   8.505  1.6039 -0.0645  2.3608
  151SAPE  C21616757   4.255   3.242   8.542  0.2516 -0.1150  0.2246
  151SAPE  H16R16758   4.187   3.208   8.622 -1.0774 -0.0160 -0.8394
  151SAPE  H16S16759   4.313   3.156   8.502  0.4192  1.2305 -2.6033
  151SAPE  C21716760   4.164   3.293   8.423 -0.2288 -0.7093  0.0658
  151SAPE  H17R16761   4.231   3.359   8.363 -0.2372  0.6668  1.5234
  151SAPE  H17S16762   4.089   3.363   8.466 -2.1325 -1.1550 -2.4164
  151SAPE  C21816763   4.086   3.195   8.334  0.1135  0.7129 -0.7507
  151SAPE  H18R16764   4.040   3.261   8.257  0.0883  1.7560  0.1467
  151SAPE  H18S16765   4.003   3.147   8.390 -0.4130  0.8809 -1.3663
  151SAPE  C21916766   4.167   3.090   8.263  0.1627 -0.1314  0.3041
  151SAPE  H19R16767   4.102   3.035   8.191  1.2532  0.9966 -1.5542
  151SAPE  H19S16768   4.202   3.013   8.336  0.2663 -0.4365 -0.0644
  151SAPE  C22016769   4.281   3.152   8.177 -0.5158  0.1158  0.3321
  151SAPE  H20R16770   4.342   3.214   8.246 -1.2568 -1.3671  2.4040
  151SAPE  H20S16771   4.239   3.223   8.102  0.8970  2.3641  1.6212
  151SAPE  H20T16772   4.345   3.074   8.131  3.8787  3.2856  0.7630
  151SAPE   C3316773   4.529   2.630   9.894 -0.5642 -0.5799  0.3047
  151SAPE   H3X16774   4.422   2.634   9.923 -0.3149  1.2527  1.1103
  151SAPE   H3Y16775   4.574   2.538   9.937  0.1461 -0.4547 -0.1737
  151SAPE   C3416776   4.533   2.624   9.736 -1.2271  0.0782 -0.5968
  151SAPE   H4X16777   4.501   2.524   9.699 -2.7568  0.1243  0.5354
  151SAPE   H4Y16778   4.636   2.632   9.694 -1.3677  0.8880 -0.7952
  151SAPE   C3516779   4.452   2.729   9.660  0.6867 -0.2331 -0.5918
  151SAPE   H5X16780   4.481   2.835   9.679  0.6899 -0.4719  0.7507
  151SAPE   H5Y16781   4.345   2.722   9.691  0.9193  2.7944  1.1187
  151SAPE   C3616782   4.465   2.731   9.507 -0.4524 -0.4777  0.2392
  151SAPE   H6X16783   4.422   2.636   9.467  1.9826 -1.4659 -0.1360
  151SAPE   H6Y16784   4.574   2.737   9.488 -0.0333 -0.1665  2.6572
  151SAPE   C3716785   4.391   2.856   9.435 -0.6552  0.2054  0.1518
  151SAPE   H7X16786   4.426   2.944   9.494 -0.6489  1.6557 -1.9554
  151SAPE   H7Y16787   4.284   2.844   9.462 -0.9608 -0.1295 -1.1818
  151SAPE   C3816788   4.422   2.867   9.292 -0.4504  0.4560 -0.1397
  151SAPE   H8X16789   4.530   2.884   9.272 -0.3947  0.3101  0.0361
  151SAPE   H8Y16790   4.373   2.952   9.240 -1.9659 -1.7253 -2.4245
  151SAPE   C3916791   4.370   2.756   9.205 -0.3113 -0.6369  0.2640
  151SAPE   H9X16792   4.265   2.726   9.229  0.1884 -1.3631  1.5858
  151SAPE   H9Y16793   4.424   2.661   9.227  1.4975  0.0698 -1.0061
  151SAPE  C31016794   4.394   2.773   9.053  0.2699 -0.5302 -0.3220
  151SAPE  H10X16795   4.498   2.809   9.044 -0.1811  1.4357  1.7531
  151SAPE  H10Y16796   4.334   2.864   9.032  0.0363 -0.3435  1.0650
  151SAPE  C31116797   4.373   2.648   8.957  0.6248  0.2029 -0.2250
  151SAPE  H11X16798   4.268   2.619   8.978 -0.1681  1.0993 -2.7970
  151SAPE  H11Y16799   4.437   2.558   8.970  0.2710  0.1180  0.9995
  151SAPE  C31216800   4.381   2.694   8.806  0.1032 -0.2249  0.0869
  151SAPE  H12X16801   4.480   2.743   8.791  0.1666 -0.7206 -1.1904
  151SAPE  H12Y16802   4.304   2.772   8.788  1.5771  0.8485 -1.7308
  151SAPE  C31316803   4.359   2.586   8.696  0.3928 -0.0897 -0.4401
  151SAPE  H13X16804   4.258   2.548   8.720 -0.3668  1.7076 -0.6689
  151SAPE  H13Y16805   4.436   2.507   8.703 -0.6649 -1.0355  0.6417
  151SAPE  C31416806   4.357   2.641   8.551  0.6104 -0.0194  0.4191
  151SAPE  H14X16807   4.417   2.733   8.537 -1.6127  1.7000  1.8886
  151SAPE  H14Y16808   4.252   2.665   8.524  0.8248  1.6912  1.0490
  151SAPE  C31516809   4.400   2.542   8.439  0.3615 -0.1797  0.1375
  151SAPE  H15X16810   4.509   2.534   8.460  0.4196  0.9213  0.2657
  151SAPE  H15Y16811   4.381   2.591   8.342 -1.0015 -1.4842 -0.2810
  151SAPE  C31616812   4.347   2.404   8.444  0.7597 -0.7250  0.7092
  151SAPE  H16X16813   4.237   2.408   8.432  0.5792 -1.2939  2.0341
  151SAPE  H16Y16814   4.377   2.358   8.541 -0.7177 -1.9464  0.6144
  151SAPE  C31716815   4.410   2.312   8.338  0.2245  0.1896 -0.9202
  151SAPE  H17X16816   4.383   2.326   8.231  2.3480  0.3535 -1.4642
  151SAPE  H17Y16817   4.370   2.213   8.369 -0.2347  0.2937 -1.1817
  151SAPE  C31816818   4.564   2.314   8.340  0.3316  0.5536  0.2122
  151SAPE  H18X16819   4.598   2.405   8.286  0.1577  1.1397  1.0812
  151SAPE  H18Y16820   4.600   2.218   8.296  0.8957  1.6122 -1.6566
  151SAPE  H18Z16821   4.604   2.316   8.443 -0.3181  2.4207  0.4435
  152SAPE     N16822   6.012   1.801  10.703  0.3499 -0.6591 -0.1777
  152SAPE   HN116823   6.050   1.779  10.609  2.5101  0.3874  0.4182
  152SAPE   HN216824   6.055   1.890  10.734 -2.2493  0.8137 -0.6418
  152SAPE   HN316825   6.034   1.719  10.763 -0.1338  0.7150  1.9302
  152SAPE   C1216826   5.866   1.832  10.697  0.0763 -0.3943  0.7071
  152SAPE  H12A16827   5.830   1.854  10.799  0.7416  0.2011  0.8171
  152SAPE  H12B16828   5.813   1.737  10.672 -2.1451  1.4186 -1.7701
  152SAPE   C1116829   5.835   1.940  10.593  0.2792 -0.3378  0.3588
  152SAPE  H11A16830   5.725   1.947  10.574  0.3939  0.2255 -0.1357
  152SAPE  H11B16831   5.878   1.898  10.500 -0.2125 -0.2675  0.0962
  152SAPE     P16832   6.015   2.132  10.576 -0.8802 -0.2980  0.4537
  152SAPE   O1316833   6.011   2.277  10.621 -0.4782  0.5351 -0.1445
  152SAPE   O1416834   6.125   2.049  10.613 -0.3435  0.5715  0.1380
  152SAPE   O1216835   5.882   2.068  10.628 -0.3559 -0.1632  0.2284
  152SAPE   O1116836   6.005   2.114  10.420 -0.4712 -0.0961 -0.0447
  152SAPE    C116837   6.059   2.207  10.326 -0.2454 -0.5888  0.6309
  152SAPE    HA16838   5.987   2.212  10.242 -1.7626 -1.8041  1.8422
  152SAPE    HB16839   6.070   2.309  10.369 -1.4377 -0.3364  0.3493
  152SAPE    C216840   6.191   2.149  10.265  0.2717  0.5110  0.1249
  152SAPE    HS16841   6.248   2.110  10.352  0.8833 -0.9225 -0.8973
  152SAPE   O2116842   6.262   2.253  10.194 -0.2666 -0.7139  0.3639
  152SAPE   C2116843   6.318   2.340  10.282  0.0708  0.1200 -0.5977
  152SAPE   O2216844   6.317   2.333  10.402 -0.1659 -0.6677  0.3088
  152SAPE   C2216845   6.368   2.463  10.208 -0.0042 -0.3217  0.2027
  152SAPE   H2R16846   6.421   2.428  10.117  2.9421 -1.0613  2.1218
  152SAPE   H2S16847   6.279   2.524  10.183 -1.4670 -1.6163  2.1665
  152SAPE    C316848   6.164   2.035  10.160  0.5066 -0.5677 -0.1505
  152SAPE    HX16849   6.111   2.086  10.076  1.0422 -0.0715 -0.1916
  152SAPE    HY16850   6.093   1.967  10.211  0.4171 -0.4783 -0.1541
  152SAPE   O3116851   6.273   1.963  10.108 -0.0493 -0.0424  0.4538
  152SAPE   C3116852   6.324   1.869  10.186  0.8323  0.2557  0.0861
  152SAPE   O3216853   6.292   1.851  10.302  0.5639  0.2451 -0.7542
  152SAPE   C3216854   6.433   1.791  10.105  0.4678  0.0906  0.4245
  152SAPE   H2X16855   6.374   1.700  10.078 -3.6844  3.0248 -0.9878
  152SAPE   H2Y16856   6.519   1.769  10.172  1.9086 -0.9559 -1.7286
  152SAPE   C2316857   6.464   2.543  10.300 -0.1224  0.1798 -0.4242
  152SAPE   H3R16858   6.549   2.483  10.340 -1.3930 -1.3875  0.0044
  152SAPE   H3S16859   6.401   2.566  10.388 -0.7644  0.6945 -1.0220
  152SAPE   C2416860   6.514   2.661  10.224  1.5786  0.6127  0.3573
  152SAPE   H4R16861   6.576   2.719  10.296  2.2868 -1.1463  1.1912
  152SAPE   H4S16862   6.430   2.719  10.182  1.1936  0.1511  0.4870
  152SAPE   C2516863   6.605   2.619  10.106  0.4702 -0.2238 -0.6781
  152SAPE   H5R16864   6.694   2.559  10.132  2.1436  2.3576 -0.1855
  152SAPE   C2616865   6.590   2.641   9.969 -0.2315 -0.2971 -0.2974
  152SAPE   H6R16866   6.655   2.590   9.897 -1.0171  1.2017 -2.0940
  152SAPE   C2716867   6.468   2.715   9.913 -0.2758  0.3881 -0.2080
  152SAPE   H7R16868   6.507   2.802   9.856 -4.8281  0.8561 -2.8443
  152SAPE   H7S16869   6.407   2.757   9.995  0.2089  0.8965 -0.1063
  152SAPE   C2816870   6.391   2.636   9.813  0.4675  0.3089  0.6709
  152SAPE   H8R16871   6.318   2.567   9.858  2.7955 -3.3032 -0.9062
  152SAPE   C2916872   6.404   2.636   9.676  0.1634  0.2143  0.1515
  152SAPE   H9R16873   6.347   2.569   9.610 -1.3264  1.7159 -0.1163
  152SAPE  C21016874   6.497   2.716   9.592 -0.1290 -0.2190  0.0316
  152SAPE  H10R16875   6.600   2.675   9.601  0.2682  1.2355  2.8117
  152SAPE  H10S16876   6.485   2.816   9.639 -0.1812 -1.0533  1.8712
  152SAPE  C21116877   6.465   2.719   9.440  0.6154 -0.4736  0.4127
  152SAPE  H11R16878   6.421   2.811   9.400 -0.4285 -0.1148  2.3388
  152SAPE  C21216879   6.504   2.634   9.346  0.1272 -0.2439  0.7234
  152SAPE  H12R16880   6.464   2.651   9.245  0.4079 -0.8377  0.5142
  152SAPE  C21316881   6.579   2.508   9.378 -0.8612  1.1860 -0.6574
  152SAPE  H13R16882   6.554   2.473   9.481  2.8295 -1.9239 -0.7140
  152SAPE  H13S16883   6.683   2.542   9.393  0.4069 -3.3077  1.6285
  152SAPE  C21416884   6.555   2.395   9.284  0.0819  0.4159  0.2055
  152SAPE  H14R16885   6.577   2.421   9.179 -0.9521 -1.6725 -0.5567
  152SAPE  C21516886   6.549   2.264   9.314  0.5903 -0.1884 -0.0298
  152SAPE  H15R16887   6.526   2.194   9.232 -0.2100  0.1790 -0.1294
  152SAPE  C21616888   6.546   2.208   9.451  0.0878  0.2648 -0.8918
  152SAPE  H16R16889   6.638   2.240   9.504  0.2188  0.5626 -1.2983
  152SAPE  H16S16890   6.559   2.098   9.438 -1.0955 -0.3659  2.7417
  152SAPE  C21716891   6.407   2.226   9.514  0.5860 -0.4460 -0.4842
  152SAPE  H17R16892   6.332   2.191   9.440  0.9477 -1.3201 -0.4459
  152SAPE  H17S16893   6.371   2.330   9.527  0.3704 -0.6763  0.9376
  152SAPE  C21816894   6.387   2.151   9.647 -1.1464 -0.2106  0.0202
  152SAPE  H18R16895   6.464   2.191   9.718 -1.5668  0.4729  0.0957
  152SAPE  H18S16896   6.402   2.042   9.633 -0.9326 -0.1920  0.1038
  152SAPE  C21916897   6.253   2.169   9.712  0.1684  0.0900  0.5588
  152SAPE  H19R16898   6.234   2.278   9.726  1.1095  0.0767  2.0306
  152SAPE  H19S16899   6.265   2.115   9.809 -0.1534  0.6838  0.9323
  152SAPE  C22016900   6.128   2.104   9.642 -0.2738 -0.3681  0.4660
  152SAPE  H20R16901   6.044   2.119   9.714 -0.8020  1.4499 -0.5087
  152SAPE  H20S16902   6.144   1.995   9.631 -0.3344 -0.2824 -0.4903
  152SAPE  H20T16903   6.116   2.154   9.543 -0.5135 -1.6254 -0.1429
  152SAPE   C3316904   6.477   1.861   9.978  0.4830 -0.2082 -0.1710
  152SAPE   H3X16905   6.502   1.967   9.999 -1.4693  0.0072  1.1965
  152SAPE   H3Y16906   6.411   1.860   9.888 -0.2563 -2.2878  0.3781
  152SAPE   C3416907   6.612   1.803   9.925 -0.1907 -0.1668 -0.5860
  152SAPE   H4X16908   6.598   1.693   9.924  2.8461 -0.6465  1.8758
  152SAPE   H4Y16909   6.699   1.819   9.992  0.6007  1.6968 -2.0147
  152SAPE   C3516910   6.633   1.864   9.786 -0.2347 -0.0711  0.3787
  152SAPE   H5X16911   6.651   1.973   9.798 -0.1530  0.0612 -0.8634
  152SAPE   H5Y16912   6.549   1.840   9.716  0.6334  0.6976 -0.9520
  152SAPE   C3616913   6.765   1.808   9.714 -0.1481 -0.1997 -0.8707
  152SAPE   H6X16914   6.762   1.698   9.731 -3.2328  0.0211  0.3710
  152SAPE   H6Y16915   6.853   1.862   9.755 -0.0555 -3.3760  3.3960
  152SAPE   C3716916   6.775   1.845   9.566 -0.8788  0.2200 -0.1609
  152SAPE   H7X16917   6.760   1.955   9.568  0.1587  0.3693 -0.2682
  152SAPE   H7Y16918   6.687   1.809   9.508 -1.6726  0.9937  0.5497
  152SAPE   C3816919   6.904   1.802   9.490 -0.1091  0.1287 -0.3562
  152SAPE   H8X16920   6.969   1.724   9.536 -0.1477 -0.0636 -0.6245
  152SAPE   H8Y16921   6.976   1.886   9.491 -0.9755  0.8900 -1.6798
  152SAPE   C3916922   6.883   1.784   9.338  0.0478  0.1154 -0.5737
  152SAPE   H9X16923   6.831   1.871   9.292 -0.0536  0.9892  1.1791
  152SAPE   H9Y16924   6.835   1.688   9.308 -0.9921  0.8039 -1.1327
  152SAPE  C31016925   7.020   1.783   9.260 -0.3395 -0.2240  1.3319
  152SAPE  H10X16926   7.091   1.735   9.331  0.7888  0.6694  0.8232
  152SAPE  H10Y16927   7.059   1.886   9.250  1.6818 -0.9690  1.2528
  152SAPE  C31116928   6.995   1.697   9.128 -0.1743 -0.5055 -0.3105
  152SAPE  H11X16929   6.971   1.597   9.170 -1.3609  0.6251  1.7816
  152SAPE  H11Y16930   7.093   1.706   9.078 -0.6561  0.0925 -1.1438
  152SAPE  C31216931   6.876   1.735   9.040 -0.1827  0.6667 -0.3748
  152SAPE  H12X16932   6.895   1.838   9.002  2.2376  0.0885 -0.7884
  152SAPE  H12Y16933   6.782   1.723   9.099 -0.0753 -1.1115 -0.5402
  152SAPE  C31316934   6.865   1.645   8.912 -0.0089 -0.2666  0.1365
  152SAPE  H13X16935   6.837   1.543   8.945 -1.4918  0.5440  1.5016
  152SAPE  H13Y16936   6.969   1.632   8.875 -0.2865 -0.8698 -0.4315
  152SAPE  C31416937   6.775   1.690   8.801  0.5597  0.6261  0.6819
  152SAPE  H14X16938   6.813   1.642   8.708 -2.9054  1.0897 -1.0535
  152SAPE  H14Y16939   6.798   1.799   8.793  1.5986  0.4623  1.3045
  152SAPE  C31516940   6.627   1.675   8.824 -0.3400  0.4872 -0.1672
  152SAPE  H15X16941   6.588   1.735   8.908 -0.3499 -0.8892  0.8304
  152SAPE  H15Y16942   6.595   1.572   8.853  0.0387  0.9617  2.0259
  152SAPE  C31616943   6.544   1.703   8.702 -0.5808 -0.5471  0.5050
  152SAPE  H16X16944   6.568   1.634   8.617 -1.3568  0.8385 -0.8603
  152SAPE  H16Y16945   6.560   1.806   8.662  1.2445  0.2105  3.0797
  152SAPE  C31716946   6.403   1.670   8.715  0.1761  0.1026 -0.2405
  152SAPE  H17X16947   6.369   1.701   8.816 -1.5211 -2.6204  0.0702
  152SAPE  H17Y16948   6.381   1.561   8.721 -0.0986  0.1828  0.2855
  152SAPE  C31816949   6.312   1.737   8.604 -0.3549  0.1695  0.4539
  152SAPE  H18X16950   6.352   1.841   8.607  2.5200 -0.7737 -2.5622
  152SAPE  H18Y16951   6.208   1.743   8.642 -0.3126 -1.3244  0.8354
  152SAPE  H18Z16952   6.306   1.694   8.502 -0.6197 -1.2656  1.0647
  153SAPE     N16953   6.239   4.063  10.977  0.0857 -0.3219 -0.1165
  153SAPE   HN116954   6.150   4.109  10.951  1.0844  1.9981  0.4282
  153SAPE   HN216955   6.247   4.055  11.080 -0.3666 -1.0460 -0.1354
  153SAPE   HN316956   6.312   4.115  10.924  0.7998 -1.5837 -0.4077
  153SAPE   C1216957   6.216   3.919  10.929  0.2858  0.7736  0.1472
  153SAPE  H12A16958   6.118   3.889  10.970  0.9396  0.5003  1.5522
  153SAPE  H12B16959   6.298   3.868  10.984 -0.8395 -0.3452  0.7801
  153SAPE   C1116960   6.221   3.903  10.776 -0.3893  0.3459  0.2949
  153SAPE  H11A16961   6.144   3.973  10.736  0.3086  1.0125  0.0973
  153SAPE  H11B16962   6.193   3.799  10.750  3.0772 -0.5640 -0.0405
  153SAPE     P16963   6.370   4.016  10.591  0.3220  0.2865  0.3917
  153SAPE   O1316964   6.266   4.122  10.602  0.1765  0.6041  0.0718
  153SAPE   O1416965   6.511   4.059  10.577 -0.4522  0.2668 -0.0212
  153SAPE   O1216966   6.356   3.933  10.726  0.4644 -0.5926 -0.2528
  153SAPE   O1116967   6.332   3.902  10.489 -0.1281 -0.6743  0.4713
  153SAPE    C116968   6.191   3.877  10.455  0.0543 -0.1648  0.4862
  153SAPE    HA16969   6.138   3.842  10.546  0.0443  1.5274  1.1467
  153SAPE    HB16970   6.142   3.970  10.418 -0.4400  0.0859  1.7510
  153SAPE    C216971   6.166   3.769  10.345 -0.6911  1.2827  0.0322
  153SAPE    HS16972   6.211   3.669  10.367  2.5495  1.7367 -3.8501
  153SAPE   O2116973   6.231   3.823  10.228  0.5368 -0.2582  0.2610
  153SAPE   C2116974   6.357   3.788  10.212  0.0256  0.4748  0.0278
  153SAPE   O2216975   6.425   3.711  10.274  0.0342  0.0725 -0.3797
  153SAPE   C2216976   6.405   3.839  10.070 -0.2180 -0.1222 -0.4011
  153SAPE   H2R16977   6.492   3.777  10.039  0.3106  0.1646  0.4841
  153SAPE   H2S16978   6.325   3.817   9.996  0.4546 -0.1769 -1.1186
  153SAPE    C316979   6.010   3.753  10.325 -0.6491  0.1313  0.2269
  153SAPE    HX16980   5.967   3.853  10.343 -0.1083  0.3279  0.4498
  153SAPE    HY16981   5.977   3.694  10.413 -0.1806  0.0797  0.3716
  153SAPE   O3116982   5.961   3.702  10.200  0.3507  0.1780  0.7648
  153SAPE   C3116983   5.987   3.573  10.168  0.3532  0.4745 -0.8299
  153SAPE   O3216984   6.049   3.494  10.236  0.0374 -0.1556 -0.8474
  153SAPE   C3216985   5.938   3.536  10.027 -0.3685 -0.5694  0.4433
  153SAPE   H2X16986   5.828   3.533  10.038 -0.5977  0.3697 -1.3537
  153SAPE   H2Y16987   5.966   3.429  10.017  1.3663 -0.0885  0.0150
  153SAPE   C2316988   6.442   3.988  10.070 -0.6089 -0.7089  0.7041
  153SAPE   H3R16989   6.514   4.012   9.989 -0.6865  0.5582  1.0013
  153SAPE   H3S16990   6.482   4.023  10.168  1.1368 -0.7702  0.0348
  153SAPE   C2416991   6.315   4.069  10.033  0.1849  0.2623 -0.3362
  153SAPE   H4R16992   6.247   4.064  10.121 -1.4111 -0.4379 -1.5729
  153SAPE   H4S16993   6.264   4.025   9.945 -1.4652 -0.1527  0.7936
  153SAPE   C2516994   6.336   4.217  10.015  0.1009 -0.1350 -0.2644
  153SAPE   H5R16995   6.315   4.274  10.107 -0.5479 -1.2784  0.3079
  153SAPE   C2616996   6.387   4.277   9.909 -0.2052 -0.5821 -0.5384
  153SAPE   H6R16997   6.388   4.387   9.906 -1.6428 -0.5071  0.9886
  153SAPE   C2716998   6.426   4.209   9.783  0.0213 -0.5117 -0.0589
  153SAPE   H7R16999   6.472   4.110   9.804 -1.9359 -1.1482  1.2959
  153SAPE   H7S17000   6.505   4.273   9.737  1.5711 -1.9121  0.6114
  153SAPE   C2817001   6.319   4.174   9.681 -0.7069 -0.0874 -0.4615
  153SAPE   H8R17002   6.219   4.172   9.728 -0.6727  0.8652 -0.3414
  153SAPE   C2917003   6.344   4.154   9.547 -0.8870 -0.0283  0.1709
  153SAPE   H9R17004   6.257   4.139   9.482 -1.7396 -0.8345  1.4546
  153SAPE  C21017005   6.477   4.155   9.475 -1.0612  0.4790  0.3606
  153SAPE  H10R17006   6.488   4.076   9.397  1.0146  0.1875  0.9174
  153SAPE  H10S17007   6.551   4.113   9.545 -0.6795 -2.4262 -1.7075
  153SAPE  C21117008   6.520   4.291   9.436 -0.7535 -0.4673  0.2640
  153SAPE  H11R17009   6.560   4.351   9.519  2.3055 -0.6716 -1.0224
  153SAPE  C21217010   6.478   4.353   9.318  0.2434 -0.2064 -0.1929
  153SAPE  H12R17011   6.519   4.454   9.307 -3.2969  1.3277  0.2420
  153SAPE  C21317012   6.393   4.286   9.210 -0.0473 -0.7329 -0.3839
  153SAPE  H13R17013   6.405   4.176   9.205 -1.1379 -0.8322 -1.0672
  153SAPE  H13S17014   6.432   4.319   9.111 -0.4412 -1.2446 -0.7149
  153SAPE  C21417015   6.244   4.306   9.229  0.1473 -0.8950  0.1849
  153SAPE  H14R17016   6.207   4.276   9.328 -2.7535 -1.2711 -0.9567
  153SAPE  C21517017   6.152   4.366   9.146 -0.4979  1.0833  0.0029
  153SAPE  H15R17018   6.049   4.380   9.180 -0.6713 -2.4309  1.1172
  153SAPE  C21617019   6.190   4.427   9.008 -0.2542  0.0184  1.1667
  153SAPE  H16R17020   6.297   4.447   8.988  0.0208 -0.6516  1.9331
  153SAPE  H16S17021   6.134   4.515   8.971 -0.4804 -0.5375  0.1838
  153SAPE  C21717022   6.156   4.321   8.899 -0.3941 -0.2978 -0.6457
  153SAPE  H17R17023   6.182   4.218   8.932  2.8642  0.5916 -0.2384
  153SAPE  H17S17024   6.218   4.353   8.812  0.9653 -0.4186  0.2768
  153SAPE  C21817025   6.013   4.340   8.843  0.7623 -0.1851 -0.8536
  153SAPE  H18R17026   6.002   4.438   8.793 -0.6849 -0.0644 -0.3325
  153SAPE  H18S17027   5.935   4.333   8.921 -1.1718  0.2313 -2.7060
  153SAPE  C21917028   5.976   4.225   8.744 -0.1824  0.2219  0.3004
  153SAPE  H19R17029   5.871   4.228   8.711  0.2630  0.3124 -1.1154
  153SAPE  H19S17030   5.985   4.134   8.807 -1.0366 -0.2843 -0.3167
  153SAPE  C22017031   6.069   4.215   8.621 -0.3725 -0.5753 -0.1641
  153SAPE  H20R17032   6.035   4.129   8.559 -0.3345 -2.6775  2.6349
  153SAPE  H20S17033   6.170   4.182   8.654 -0.6077  1.4570  2.7602
  153SAPE  H20T17034   6.075   4.312   8.567 -3.3785 -0.8053 -0.9610
  153SAPE   C3317035   6.003   3.627   9.915 -0.7447  0.4017  0.3729
  153SAPE   H3X17036   6.005   3.734   9.947  1.0696  1.3114 -2.6206
  153SAPE   H3Y17037   5.935   3.626   9.827  0.4446 -2.0475 -0.5498
  153SAPE   C3417038   6.148   3.587   9.877  0.3296 -0.4410 -0.1853
  153SAPE   H4X17039   6.146   3.480   9.844 -0.4569 -1.1749  2.1691
  153SAPE   H4Y17040   6.201   3.595   9.974 -3.2658  2.1071  1.6365
  153SAPE   C3517041   6.208   3.691   9.781 -0.0306  0.2070 -0.3628
  153SAPE   H5X17042   6.316   3.671   9.767  0.0924  0.5376  0.1035
  153SAPE   H5Y17043   6.213   3.796   9.819 -0.2064  0.6991 -1.6485
  153SAPE   C3617044   6.144   3.692   9.643  0.5067  0.2870 -0.2663
  153SAPE   H6X17045   6.034   3.706   9.640 -0.2317 -4.3102  1.0922
  153SAPE   H6Y17046   6.157   3.589   9.604 -0.0431 -0.9925  2.7641
  153SAPE   C3717047   6.205   3.788   9.541  0.3846 -0.1762  0.0879
  153SAPE   H7X17048   6.311   3.762   9.522  0.7340  1.3814 -0.1659
  153SAPE   H7Y17049   6.206   3.883   9.599 -0.8603 -1.7644  2.8469
  153SAPE   C3817050   6.135   3.778   9.406 -0.5280 -0.6887 -0.1752
  153SAPE   H8X17051   6.123   3.678   9.361 -3.0354  0.0333 -1.1965
  153SAPE   H8Y17052   6.219   3.831   9.355 -0.2305 -0.0863  0.9023
  153SAPE   C3917053   6.000   3.849   9.412  0.2524 -0.3538  0.1911
  153SAPE   H9X17054   6.014   3.946   9.465 -1.5291  0.4084 -0.6997
  153SAPE   H9Y17055   5.937   3.793   9.483 -1.6711 -0.2805 -1.4029
  153SAPE  C31017056   5.937   3.872   9.279  0.1026 -0.4619 -0.0968
  153SAPE  H10X17057   5.853   3.943   9.292  0.2312 -0.1526 -0.9317
  153SAPE  H10Y17058   5.894   3.776   9.244  1.9942 -0.8151 -1.5259
  153SAPE  C31117059   6.034   3.915   9.165  0.0868 -0.6674  0.8270
  153SAPE  H11X17060   6.102   3.830   9.146 -0.6583 -1.0239 -0.3241
  153SAPE  H11Y17061   6.093   4.005   9.193  0.5321 -1.3115  1.9602
  153SAPE  C31217062   5.946   3.954   9.037  0.2170 -0.7492 -0.4613
  153SAPE  H12X17063   6.033   3.982   8.973 -0.2517 -1.0900 -1.2633
  153SAPE  H12Y17064   5.885   4.045   9.052  0.5658 -0.1652 -2.4103
  153SAPE  C31317065   5.863   3.833   8.985  0.3847  0.1800 -0.0378
  153SAPE  H13X17066   5.761   3.852   9.023  0.9705  1.6442  0.8161
  153SAPE  H13Y17067   5.913   3.742   9.026 -0.6037  0.7456  2.5432
  153SAPE  C31417068   5.858   3.827   8.831  0.4448  0.4300 -0.1974
  153SAPE  H14X17069   5.889   3.721   8.819 -1.0199  0.1524 -1.6297
  153SAPE  H14Y17070   5.924   3.900   8.780  0.0783  0.5030 -0.5694
  153SAPE  C31517071   5.713   3.834   8.775  0.8071 -0.3293 -0.0278
  153SAPE  H15X17072   5.653   3.923   8.803 -1.1701 -1.4427 -0.6166
  153SAPE  H15Y17073   5.665   3.749   8.828 -2.4959  1.4800  0.0068
  153SAPE  C31617074   5.692   3.828   8.623 -0.9331  0.1774 -0.2738
  153SAPE  H16X17075   5.588   3.807   8.589 -0.6849 -0.4272 -0.6773
  153SAPE  H16Y17076   5.763   3.753   8.581  0.2836  0.5621  1.0731
  153SAPE  C31717077   5.734   3.948   8.546  0.0923  0.0226  0.2710
  153SAPE  H17X17078   5.845   3.961   8.551  0.0007  0.7788  0.5182
  153SAPE  H17Y17079   5.686   4.036   8.594  1.0088  1.0729 -0.7132
  153SAPE  C31817080   5.686   3.951   8.404  0.0081  0.0847  0.0032
  153SAPE  H18X17081   5.723   3.871   8.336  0.4163  1.5484 -1.5360
  153SAPE  H18Y17082   5.695   4.051   8.356  0.9663 -0.9554 -2.0776
  153SAPE  H18Z17083   5.578   3.925   8.407 -0.0627  0.2924 -0.5408
  154SAPE     N17084   0.003   3.177  10.902  0.5478 -0.3852  0.3372
  154SAPE   HN117085  -0.025   3.110  10.827  0.5326 -0.6101  0.5404
  154SAPE   HN217086  -0.047   3.157  10.991  0.2724 -0.6976  0.1165
  154SAPE   HN317087  -0.023   3.270  10.866  0.5653 -1.0221 -1.3619
  154SAPE   C1217088   0.153   3.172  10.924  0.5363  0.6875 -0.0736
  154SAPE  H12A17089   0.164   3.066  10.953  0.4595 -0.0213 -2.5068
  154SAPE  H12B17090   0.162   3.239  11.012  0.1536  0.2314  0.3190
  154SAPE   C1117091   0.247   3.216  10.804 -0.1223  0.7404 -0.6356
  154SAPE  H11A17092   0.271   3.136  10.731 -3.0303 -1.6886  0.9160
  154SAPE  H11B17093   0.345   3.238  10.850  0.3550 -0.5884 -1.0093
  154SAPE     P17094   0.261   3.438  10.662 -0.1036  0.3042 -0.1976
  154SAPE   O1317095   0.182   3.561  10.672 -0.2385 -0.5612  0.8505
  154SAPE   O1417096   0.403   3.436  10.702 -0.8411 -0.1564  0.3227
  154SAPE   O1217097   0.186   3.327  10.745 -0.0569  0.4325  0.3886
  154SAPE   O1117098   0.245   3.371  10.524  0.0303 -0.5015  0.6722
  154SAPE    C117099   0.110   3.356  10.477  0.1584 -0.2299  0.1207
  154SAPE    HA17100   0.100   3.249  10.450 -2.1087 -0.1920  0.7090
  154SAPE    HB17101   0.025   3.372  10.547  0.4558  1.2660  0.1630
  154SAPE    C217102   0.072   3.430  10.345  0.5176  0.7193  0.5257
  154SAPE    HS17103  -0.011   3.368  10.306  1.8832 -2.3905  2.3758
  154SAPE   O2117104   0.190   3.422  10.255 -0.2015 -0.0579  0.3061
  154SAPE   C2117105   0.188   3.333  10.154 -0.2615 -0.0067  1.1090
  154SAPE   O2217106   0.110   3.240  10.141  0.3455  0.0849 -0.5506
  154SAPE   C2217107   0.305   3.367  10.064 -0.7777  0.3656 -0.8889
  154SAPE   H2R17108   0.387   3.403  10.130 -0.1090 -0.0165 -1.5034
  154SAPE   H2S17109   0.346   3.270  10.030  0.5295 -0.0596  1.7652
  154SAPE    C317110   0.027   3.573  10.374  0.4337  0.4247 -0.3832
  154SAPE    HX17111   0.110   3.622  10.430 -0.6436 -0.8522  2.4398
  154SAPE    HY17112  -0.055   3.558  10.448 -1.0085 -2.0305 -2.4028
  154SAPE   O3117113  -0.023   3.647  10.257  0.2516 -0.1095 -0.1999
  154SAPE   C3117114   0.058   3.735  10.203 -0.0806 -0.1614 -0.0840
  154SAPE   O3217115   0.165   3.772  10.248 -0.6076  0.1968  0.0212
  154SAPE   C3217116  -0.005   3.780  10.069 -0.4200  0.7501  0.2790
  154SAPE   H2X17117  -0.067   3.870  10.094  2.2837  2.5810  0.6016
  154SAPE   H2Y17118  -0.072   3.703  10.025 -0.6602  2.6852 -2.9467
  154SAPE   C2317119   0.263   3.464   9.952 -0.1109  0.3619  0.2544
  154SAPE   H3R17120   0.340   3.543   9.941 -1.1621  1.1254 -1.9170
  154SAPE   H3S17121   0.177   3.528   9.982  0.4166  2.4374 -2.5324
  154SAPE   C2417122   0.224   3.400   9.815  0.4677  0.1315  0.2732
  154SAPE   H4R17123   0.168   3.479   9.760  0.8556  1.1359  1.2998
  154SAPE   H4S17124   0.145   3.331   9.852  2.0726 -1.0106  1.6424
  154SAPE   C2517125   0.339   3.330   9.737  0.4872  0.1034  0.1573
  154SAPE   H5R17126   0.398   3.256   9.793 -0.8884 -0.4726  0.8840
  154SAPE   C2617127   0.349   3.344   9.602 -0.7018  0.4566  0.2460
  154SAPE   H6R17128   0.420   3.282   9.546  0.2333  1.4396  0.3226
  154SAPE   C2717129   0.262   3.425   9.502 -0.6204 -0.2795 -0.0659
  154SAPE   H7R17130   0.318   3.517   9.479  2.4851 -1.9748  0.4333
  154SAPE   H7S17131   0.163   3.453   9.544 -0.7036 -0.5001 -0.1137
  154SAPE   C2817132   0.243   3.342   9.370  0.2592  0.2993  0.1454
  154SAPE   H8R17133   0.306   3.253   9.361 -1.0749 -0.7387  0.8915
  154SAPE   C2917134   0.151   3.359   9.268 -0.2782 -0.7101 -0.2296
  154SAPE   H9R17135   0.162   3.286   9.186 -0.8046 -1.4316  0.3350
  154SAPE  C21017136   0.048   3.468   9.264 -0.3234 -0.3654 -0.4013
  154SAPE  H10R17137   0.029   3.504   9.367 -0.3593 -0.1542 -0.4803
  154SAPE  H10S17138  -0.050   3.426   9.233 -2.0012  1.4865  2.1949
  154SAPE  C21117139   0.098   3.585   9.184  0.4055  0.3775  0.3595
  154SAPE  H11R17140   0.136   3.673   9.237  2.4234 -0.3618  0.1844
  154SAPE  C21217141   0.090   3.602   9.050  0.4798 -0.1284 -0.4887
  154SAPE  H12R17142   0.125   3.693   8.998  3.2794  0.0680  1.6340
  154SAPE  C21317143   0.025   3.498   8.966 -0.0144  0.0019 -0.2070
  154SAPE  H13R17144  -0.047   3.436   9.024  0.1832 -0.0235  0.0169
  154SAPE  H13S17145   0.107   3.428   8.939 -2.0544 -2.8412  0.6628
  154SAPE  C21417146  -0.048   3.556   8.848  0.6738  0.3092 -0.0668
  154SAPE  H14R17147  -0.154   3.572   8.873  0.2508  2.7812 -3.0745
  154SAPE  C21517148   0.004   3.602   8.735  0.6191 -0.1406  0.3458
  154SAPE  H15R17149  -0.062   3.642   8.656  2.1051 -0.2787 -0.9869
  154SAPE  C21617150   0.144   3.606   8.696 -0.0057  0.4424 -0.1510
  154SAPE  H16R17151   0.212   3.612   8.784 -0.9577  1.7296  0.5059
  154SAPE  H16S17152   0.179   3.688   8.630  2.8480  3.4755  4.8486
  154SAPE  C21717153   0.168   3.479   8.612 -0.2092 -0.2632 -0.4235
  154SAPE  H17R17154   0.081   3.436   8.557  1.4024 -0.6520 -2.7595
  154SAPE  H17S17155   0.202   3.400   8.683  0.0288  0.1173 -0.1095
  154SAPE  C21817156   0.276   3.492   8.510  0.4010  0.8901  0.2117
  154SAPE  H18R17157   0.342   3.402   8.507 -0.9701 -0.0556 -1.8688
  154SAPE  H18S17158   0.326   3.591   8.525  0.4728  0.9335 -0.3187
  154SAPE  C21917159   0.222   3.497   8.363  0.0185 -1.1299 -0.8041
  154SAPE  H19R17160   0.137   3.569   8.356  0.0971 -0.4160  4.0203
  154SAPE  H19S17161   0.179   3.398   8.337 -0.1959 -1.1064 -0.5393
  154SAPE  C22017162   0.332   3.531   8.265 -0.5511 -0.2022  0.3197
  154SAPE  H20R17163   0.431   3.486   8.289  0.5904  1.0482 -1.8952
  154SAPE  H20S17164   0.346   3.641   8.269  3.0709 -0.6093  1.0408
  154SAPE  H20T17165   0.301   3.497   8.164  0.7124 -1.1212  0.2342
  154SAPE   C3317166   0.109   3.823   9.973 -0.7799 -0.1553  0.7635
  154SAPE   H3X17167   0.206   3.774   9.996 -0.5130 -0.4273 -0.8897
  154SAPE   H3Y17168   0.142   3.928   9.983  0.3330 -0.5828  1.5674
  154SAPE   C3417169   0.079   3.790   9.824  0.3681 -0.3563 -0.1627
  154SAPE   H4X17170  -0.028   3.818   9.811  0.4362 -0.1829 -0.3653
  154SAPE   H4Y17171   0.089   3.680   9.819  0.6421 -0.4159  1.4716
  154SAPE   C3517172   0.179   3.854   9.727  0.2514 -0.6129 -0.3613
  154SAPE   H5X17173   0.282   3.829   9.760 -0.7207 -2.1557  1.6151
  154SAPE   H5Y17174   0.158   3.963   9.724  0.0297 -0.5915  1.3344
  154SAPE   C3617175   0.156   3.798   9.588 -0.5302 -0.4201  0.1185
  154SAPE   H6X17176   0.049   3.777   9.566 -0.4812  0.5111 -1.0285
  154SAPE   H6Y17177   0.212   3.703   9.578  1.5738  0.7858  0.0946
  154SAPE   C3717178   0.203   3.889   9.473  0.2699 -0.1071 -0.3178
  154SAPE   H7X17179   0.167   3.993   9.458 -1.3098 -0.8779 -2.1260
  154SAPE   H7Y17180   0.169   3.837   9.381 -1.2460  0.4250 -0.0674
  154SAPE   C3817181   0.358   3.892   9.463  0.6936 -0.0595  0.3672
  154SAPE   H8X17182   0.400   3.790   9.446  0.3347  0.1143 -1.5920
  154SAPE   H8Y17183   0.400   3.946   9.550  0.0660 -1.7127  1.7375
  154SAPE   C3917184   0.414   3.983   9.345  0.3387  0.0556 -0.1379
  154SAPE   H9X17185   0.523   3.998   9.355  0.0270 -0.2279  4.7966
  154SAPE   H9Y17186   0.365   4.080   9.368  0.4149 -0.0874  0.6361
  154SAPE  C31017187   0.393   3.937   9.202  0.9026  0.8445 -0.4697
  154SAPE  H10X17188   0.284   3.949   9.182  0.9284  0.5758 -0.7865
  154SAPE  H10Y17189   0.423   3.831   9.183  0.2832  0.4290  0.8164
  154SAPE  C31117190   0.472   4.019   9.094 -0.4428 -0.9743 -0.0067
  154SAPE  H11X17191   0.429   3.997   8.994 -1.0313 -1.4246  0.3387
  154SAPE  H11Y17192   0.579   3.987   9.096 -0.0492  0.2570 -0.7830
  154SAPE  C31217193   0.456   4.169   9.112  0.5692  0.3461  0.1843
  154SAPE  H12X17194   0.488   4.207   9.211  0.1225  1.8474 -0.2287
  154SAPE  H12Y17195   0.350   4.202   9.107 -0.0018 -1.3913  0.6906
  154SAPE  C31317196   0.533   4.245   9.002 -0.0892  0.0926  0.5400
  154SAPE  H13X17197   0.643   4.244   9.015 -0.0430 -2.2473  0.1689
  154SAPE  H13Y17198   0.512   4.354   8.997  1.0518  0.3011  0.1589
  154SAPE  C31417199   0.499   4.188   8.863  0.6082  0.9756  0.2996
  154SAPE  H14X17200   0.393   4.220   8.852  1.0207  1.6129 -2.3927
  154SAPE  H14Y17201   0.512   4.080   8.842 -1.6619  1.1466 -2.4210
  154SAPE  C31517202   0.587   4.259   8.760 -0.9709 -0.3669 -0.1648
  154SAPE  H15X17203   0.688   4.215   8.761 -0.8010 -0.0101 -0.9661
  154SAPE  H15Y17204   0.599   4.367   8.784  0.3993 -0.6722  0.5393
  154SAPE  C31617205   0.542   4.239   8.612  0.0425 -1.1186 -0.3682
  154SAPE  H16X17206   0.457   4.308   8.590  1.2711  0.9677  1.1820
  154SAPE  H16Y17207   0.504   4.135   8.602  1.0226 -1.4195 -0.9620
  154SAPE  C31717208   0.667   4.250   8.519  0.3489 -0.5706  0.3874
  154SAPE  H17X17209   0.651   4.210   8.417 -1.0517 -1.8994  1.1120
  154SAPE  H17Y17210   0.748   4.185   8.560  0.7542 -1.5054 -1.8148
  154SAPE  C31817211   0.714   4.399   8.497 -0.1051 -0.2268 -0.3552
  154SAPE  H18X17212   0.807   4.416   8.440  0.2826  0.8984  0.5753
  154SAPE  H18Y17213   0.739   4.443   8.597  1.0433  2.6827 -1.8631
  154SAPE  H18Z17214   0.627   4.453   8.454  0.5028 -0.4237 -1.8506
  155SAPE     N17215   1.201   4.239  10.840  0.1610  0.3235  0.4707
  155SAPE   HN117216   1.148   4.152  10.861  2.3823 -1.1000  0.3618
  155SAPE   HN217217   1.138   4.300  10.784 -1.1860 -4.2707 -3.3095
  155SAPE   HN317218   1.278   4.213  10.775  0.8296  2.6721  0.2712
  155SAPE   C1217219   1.249   4.299  10.966 -0.5929 -0.5200 -1.3654
  155SAPE  H12A17220   1.326   4.235  11.014 -0.5363  0.4961 -0.0788
  155SAPE  H12B17221   1.160   4.291  11.033  0.3668 -1.3668 -0.1628
  155SAPE   C1117222   1.321   4.430  10.936  0.1642 -0.4353 -0.5294
  155SAPE  H11A17223   1.415   4.406  10.883 -0.0042  1.0571 -1.5300
  155SAPE  H11B17224   1.358   4.489  11.023 -1.9175  2.3904 -1.5143
  155SAPE     P17225   1.296   4.626  10.776  0.7710  0.3861  0.1650
  155SAPE   O1317226   1.187   4.718  10.732 -0.4668  0.1223 -0.5126
  155SAPE   O1417227   1.412   4.679  10.844 -0.2454  0.0520  0.0948
  155SAPE   O1217228   1.234   4.507  10.862  0.4149 -0.0659  0.7210
  155SAPE   O1117229   1.338   4.546  10.654 -0.3210  0.7545  0.3034
  155SAPE    C117230   1.247   4.481  10.559 -0.3617 -0.0937 -0.1401
  155SAPE    HA17231   1.241   4.372  10.577  0.0437  0.2219  2.1190
  155SAPE    HB17232   1.143   4.520  10.564  0.1481  1.2565  0.3842
  155SAPE    C217233   1.290   4.484  10.402 -0.5741 -0.2982 -0.4879
  155SAPE    HS17234   1.401   4.491  10.399 -0.5838 -0.1567 -0.5205
  155SAPE   O2117235   1.230   4.603  10.348  0.5907 -0.1501 -0.1840
  155SAPE   C2117236   1.302   4.719  10.354  0.5271 -0.6335 -0.0423
  155SAPE   O2217237   1.411   4.731  10.404  0.0264 -0.2345  0.0841
  155SAPE   C2217238   1.223   4.833  10.283 -0.2726  0.0626  0.4917
  155SAPE   H2R17239   1.143   4.859  10.356 -1.1025  0.8790 -0.6881
  155SAPE   H2S17240   1.297   4.916  10.277 -0.9263  0.5311 -1.4046
  155SAPE    C317241   1.248   4.354  10.322 -0.3623  0.4091 -0.1468
  155SAPE    HX17242   1.141   4.331  10.337  0.2825 -2.7788 -0.2042
  155SAPE    HY17243   1.309   4.272  10.365 -2.2256 -0.0877  1.6318
  155SAPE   O3117244   1.276   4.380  10.184  0.6283 -0.3815 -0.5143
  155SAPE   C3117245   1.403   4.357  10.135  0.9901 -0.7416 -0.5261
  155SAPE   O3217246   1.492   4.303  10.194 -0.3606 -0.1062  0.5134
  155SAPE   C3217247   1.409   4.437  10.006 -0.0636 -0.3632  0.5720
  155SAPE   H2X17248   1.403   4.545  10.033  0.8667  0.0513 -0.8416
  155SAPE   H2Y17249   1.318   4.416   9.946  1.5891  0.1855 -2.2089
  155SAPE   C2317250   1.187   4.800  10.132  0.0967  0.2339 -0.3973
  155SAPE   H3R17251   1.143   4.698  10.123  0.0853  0.2382 -0.3910
  155SAPE   H3S17252   1.285   4.795  10.081  0.0397  2.5378 -0.7973
  155SAPE   C2417253   1.085   4.897  10.071  0.0356  0.5158 -0.3458
  155SAPE   H4R17254   1.120   4.996  10.110 -1.0880  0.8947 -0.2840
  155SAPE   H4S17255   0.989   4.862  10.114 -0.2244  0.7725 -0.7132
  155SAPE   C2517256   1.080   4.900   9.916  0.2030 -0.2429  0.0161
  155SAPE   H5R17257   0.990   4.859   9.868 -0.4656  1.7746 -0.4993
  155SAPE   C2617258   1.163   4.955   9.826 -1.1220  0.0973 -1.0647
  155SAPE   H6R17259   1.132   4.963   9.721 -2.8768  2.6507 -0.3872
  155SAPE   C2717260   1.288   5.027   9.863  0.1450  0.1735 -0.3012
  155SAPE   H7R17261   1.311   5.009   9.970  1.2748  1.2612 -0.3597
  155SAPE   H7S17262   1.284   5.134   9.835 -1.9377  0.3162  0.4263
  155SAPE   C2817263   1.400   4.950   9.788  0.2808 -0.5904 -0.3509
  155SAPE   H8R17264   1.445   4.861   9.835 -1.0227 -0.4238  1.2511
  155SAPE   C2917265   1.451   4.974   9.665 -0.5101 -0.7010  0.6176
  155SAPE   H9R17266   1.542   4.926   9.628 -1.9350 -1.4236 -2.0573
  155SAPE  C21017267   1.395   5.094   9.587  0.3523 -0.1135  0.7356
  155SAPE  H10R17268   1.289   5.110   9.617 -0.9913 -3.0967 -2.0499
  155SAPE  H10S17269   1.408   5.066   9.481 -0.0554  1.2832  0.3199
  155SAPE  C21117270   1.476   5.219   9.608 -0.0428 -1.2382 -0.1091
  155SAPE  H11R17271   1.581   5.198   9.634  0.6520  1.7262 -0.3656
  155SAPE  C21217272   1.449   5.346   9.561  0.0585  0.3013  0.1145
  155SAPE  H12R17273   1.516   5.431   9.577  0.2121 -0.0629  1.4831
  155SAPE  C21317274   1.328   5.380   9.474  0.8823 -0.8997  0.0452
  155SAPE  H13R17275   1.322   5.490   9.465 -1.8476 -0.8098  2.2624
  155SAPE  H13S17276   1.237   5.342   9.526  1.5007 -1.4647  0.7100
  155SAPE  C21417277   1.312   5.318   9.332  0.9417 -0.2217 -0.0209
  155SAPE  H14R17278   1.254   5.226   9.321  1.3633 -0.5456  0.4500
  155SAPE  C21517279   1.347   5.382   9.220 -0.7614  0.6586 -0.0517
  155SAPE  H15R17280   1.321   5.330   9.127  0.9112 -1.9183  0.8661
  155SAPE  C21617281   1.405   5.518   9.213  0.9381 -0.0915  0.2009
  155SAPE  H16R17282   1.478   5.536   9.294  0.9337 -1.4385  0.5157
  155SAPE  H16S17283   1.315   5.581   9.228  2.7912  2.3987  1.1546
  155SAPE  C21717284   1.483   5.554   9.085 -0.5588  0.6849  0.5094
  155SAPE  H17R17285   1.578   5.495   9.085 -1.4666 -0.8167  0.0728
  155SAPE  H17S17286   1.509   5.660   9.103 -3.0550  0.9272  3.1636
  155SAPE  C21817287   1.412   5.529   8.947 -0.2572 -0.1826  0.6480
  155SAPE  H18R17288   1.419   5.420   8.928 -3.6597 -0.4207  0.4312
  155SAPE  H18S17289   1.458   5.572   8.855 -2.2968  0.4440 -0.0991
  155SAPE  C21917290   1.268   5.585   8.941 -0.5620 -0.1871  0.2081
  155SAPE  H19R17291   1.273   5.690   8.978 -0.5031 -1.2935  3.4805
  155SAPE  H19S17292   1.211   5.527   9.017  0.2654  0.5778  1.4399
  155SAPE  C22017293   1.198   5.575   8.803  0.1363 -0.3409  0.0506
  155SAPE  H20R17294   1.102   5.631   8.809  0.5288  0.2503  0.8483
  155SAPE  H20S17295   1.172   5.468   8.787  0.9769 -0.3119 -1.4778
  155SAPE  H20T17296   1.265   5.621   8.729  0.4406  1.0575  1.1726
  155SAPE   C3317297   1.530   4.405   9.928 -1.1402 -0.1633 -0.6732
  155SAPE   H3X17298   1.624   4.408   9.988 -1.6386  1.1946  0.0535
  155SAPE   H3Y17299   1.548   4.469   9.839  0.1764 -1.0572 -1.0693
  155SAPE   C3417300   1.529   4.266   9.863  0.6040 -0.5864  0.5489
  155SAPE   H4X17301   1.449   4.283   9.787  0.1506 -0.8415  0.9715
  155SAPE   H4Y17302   1.480   4.195   9.933  0.3720 -0.8261  0.1509
  155SAPE   C3517303   1.662   4.223   9.799 -0.3829 -0.1448 -0.0759
  155SAPE   H5X17304   1.722   4.166   9.872 -2.3736 -0.7191  1.1510
  155SAPE   H5Y17305   1.731   4.309   9.786  2.3782 -2.0633  1.4822
  155SAPE   C3617306   1.633   4.165   9.665 -0.4915  0.3711  0.5059
  155SAPE   H6X17307   1.566   4.230   9.604 -2.1275 -1.3459  0.4225
  155SAPE   H6Y17308   1.583   4.066   9.674 -1.4878  0.8144 -0.0648
  155SAPE   C3717309   1.758   4.154   9.582  0.6878  0.2232  0.0867
  155SAPE   H7X17310   1.806   4.055   9.595  0.5538  0.0947 -0.3771
  155SAPE   H7Y17311   1.834   4.233   9.602 -1.1544  1.6105  1.8865
  155SAPE   C3817312   1.712   4.160   9.438  0.4236 -0.2117  0.1828
  155SAPE   H8X17313   1.654   4.253   9.419  2.3548  0.8467 -0.6648
  155SAPE   H8Y17314   1.636   4.084   9.410  0.5159 -0.1410 -0.2712
  155SAPE   C3917315   1.832   4.141   9.344  0.2530  0.9789  0.7517
  155SAPE   H9X17316   1.864   4.035   9.343 -0.3253  0.8028 -0.2191
  155SAPE   H9Y17317   1.905   4.212   9.389  0.4895  1.7952 -0.8729
  155SAPE  C31017318   1.805   4.181   9.198  0.6401 -0.1497  0.2523
  155SAPE  H10X17319   1.792   4.291   9.189 -1.8492 -0.4794 -0.4632
  155SAPE  H10Y17320   1.718   4.123   9.160  0.5101  0.2639 -0.0854
  155SAPE  C31117321   1.923   4.160   9.107 -0.5278 -0.1428 -0.4051
  155SAPE  H11X17322   1.979   4.068   9.134  2.0528  0.9108 -1.9745
  155SAPE  H11Y17323   2.003   4.233   9.131 -0.2400 -0.9157  1.0273
  155SAPE  C31217324   1.879   4.166   8.960 -0.3472  0.4203  0.0175
  155SAPE  H12X17325   1.826   4.259   8.930 -1.7061  0.0215  1.1081
  155SAPE  H12Y17326   1.805   4.085   8.948 -0.5849  0.7605 -0.7847
  155SAPE  C31317327   1.998   4.157   8.863 -0.4677 -0.5236 -0.3150
  155SAPE  H13X17328   2.028   4.050   8.866 -1.7200 -0.9680 -2.4149
  155SAPE  H13Y17329   2.081   4.214   8.909 -0.5433 -1.5001  1.0567
  155SAPE  C31417330   1.959   4.217   8.731  0.4372  0.2468 -0.0718
  155SAPE  H14X17331   1.946   4.328   8.733 -0.5155  0.1123  1.0684
  155SAPE  H14Y17332   1.860   4.183   8.694  0.3317 -0.6101  0.9747
  155SAPE  C31517333   2.079   4.218   8.630 -0.2340 -0.0861 -0.3192
  155SAPE  H15X17334   2.039   4.178   8.534  2.5150 -1.9088 -0.7600
  155SAPE  H15Y17335   2.161   4.146   8.652 -3.6311 -3.6763  1.1576
  155SAPE  C31617336   2.145   4.352   8.592  0.9538 -0.2905  0.8507
  155SAPE  H16X17337   2.237   4.326   8.536  1.1589  0.8138  0.6626
  155SAPE  H16Y17338   2.162   4.406   8.687  0.6543  1.1799  0.0879
  155SAPE  C31717339   2.067   4.436   8.495 -0.4010  0.1151  0.5777
  155SAPE  H17X17340   1.962   4.454   8.528 -0.1650  0.7936  0.9657
  155SAPE  H17Y17341   2.045   4.393   8.395  0.4134  2.1014 -0.4805
  155SAPE  C31817342   2.128   4.576   8.457 -0.3968  0.6982 -0.1947
  155SAPE  H18X17343   2.132   4.648   8.541  0.1658  2.2548 -1.5516
  155SAPE  H18Y17344   2.062   4.623   8.381  0.0614 -1.0178 -1.6929
  155SAPE  H18Z17345   2.225   4.563   8.406 -0.3748 -0.3428  0.0951
  156SAPE     N17346   5.246   2.976  10.353  0.1871 -0.3203  0.2100
  156SAPE   HN117347   5.315   2.965  10.430 -1.2214 -1.4241  1.3360
  156SAPE   HN217348   5.274   2.904  10.285 -1.9160  0.4589 -1.5321
  156SAPE   HN317349   5.262   3.073  10.318 -0.3748 -0.4767 -0.4684
  156SAPE   C1217350   5.105   2.939  10.403  1.3390  0.2975 -0.7090
  156SAPE  H12A17351   5.039   2.933  10.314 -0.8525 -0.3961  0.9290
  156SAPE  H12B17352   5.073   3.013  10.479  1.2745  0.9657 -1.3806
  156SAPE   C1117353   5.113   2.795  10.462 -0.8246 -0.2605  1.1882
  156SAPE  H11A17354   5.023   2.750  10.507 -0.3331 -1.8619  0.6238
  156SAPE  H11B17355   5.187   2.801  10.544 -1.2276  2.3700  1.4007
  156SAPE     P17356   5.212   2.563  10.405  0.1956 -0.0255  0.2114
  156SAPE   O1317357   5.280   2.572  10.539  0.0922  0.3835  0.0882
  156SAPE   O1417358   5.099   2.469  10.397  0.3106  0.5275  0.0658
  156SAPE   O1217359   5.172   2.707  10.359 -0.7201  0.2647  0.8179
  156SAPE   O1117360   5.331   2.524  10.310 -0.5854  0.1914  0.2152
  156SAPE    C117361   5.457   2.589  10.303  0.4017 -0.1569  0.9632
  156SAPE    HA17362   5.461   2.697  10.329 -0.4415 -0.3793  2.0529
  156SAPE    HB17363   5.527   2.548  10.378  1.2920 -1.4634 -0.5594
  156SAPE    C217364   5.511   2.576  10.155  0.1905  0.3499 -0.3048
  156SAPE    HS17365   5.597   2.646  10.147  1.8491 -1.5591  0.3226
  156SAPE   O2117366   5.407   2.593  10.061  0.3959 -0.0862 -0.0952
  156SAPE   C2117367   5.328   2.695  10.073  0.6049  0.5290  0.7081
  156SAPE   O2217368   5.348   2.799  10.137 -0.6602  0.3895  0.3178
  156SAPE   C2217369   5.194   2.642  10.009 -0.7750 -0.3247  0.8735
  156SAPE   H2R17370   5.202   2.614   9.902  0.4971 -0.0168  0.8924
  156SAPE   H2S17371   5.176   2.549  10.069 -0.3377  0.3449  2.0660
  156SAPE    C317372   5.577   2.435  10.132 -0.2829  0.0871  0.0724
  156SAPE    HX17373   5.486   2.372  10.121 -1.7476  2.3722 -1.5196
  156SAPE    HY17374   5.630   2.404  10.224  0.5730 -3.8015 -1.6614
  156SAPE   O3117375   5.647   2.433   9.999 -0.0985  0.0757 -0.4645
  156SAPE   C3117376   5.765   2.488   9.997  0.2262 -0.1440  0.4530
  156SAPE   O3217377   5.820   2.545  10.092  0.1187  0.3200  0.0416
  156SAPE   C3217378   5.818   2.479   9.851 -0.4508  0.2741  0.4016
  156SAPE   H2X17379   5.768   2.555   9.787 -3.3612 -0.0353  2.1945
  156SAPE   H2Y17380   5.798   2.378   9.809  0.4841  0.4846 -0.5628
  156SAPE   C2317381   5.076   2.743  10.018  0.0273 -0.5141 -0.0854
  156SAPE   H3R17382   5.093   2.822  10.094  0.4763 -1.5237  0.8812
  156SAPE   H3S17383   4.984   2.694  10.056 -0.1917 -1.1790 -1.4431
  156SAPE   C2417384   5.040   2.797   9.873 -0.0032 -0.2567 -0.0144
  156SAPE   H4R17385   4.940   2.845   9.872  0.1906  0.1969  1.4585
  156SAPE   H4S17386   5.017   2.718   9.798  1.5867 -0.5129 -0.2602
  156SAPE   C2517387   5.143   2.899   9.827  0.5413 -0.1428  0.3415
  156SAPE   H5R17388   5.172   2.971   9.905  0.6109 -0.4598  0.6052
  156SAPE   C2617389   5.208   2.905   9.707  0.1051 -1.0997  0.0416
  156SAPE   H6R17390   5.286   2.982   9.696  0.1335 -0.9871  0.9923
  156SAPE   C2717391   5.210   2.807   9.597 -0.2189  0.2436  0.6990
  156SAPE   H7R17392   5.202   2.703   9.635 -0.3184 -0.2304 -0.5999
  156SAPE   H7S17393   5.302   2.824   9.537 -0.7578  0.6095 -0.0357
  156SAPE   C2817394   5.093   2.829   9.503  0.2816  0.3590  0.1162
  156SAPE   H8R17395   4.994   2.820   9.550  0.4470 -1.4932  0.1672
  156SAPE   C2917396   5.097   2.853   9.370 -0.0725 -0.1170 -0.3994
  156SAPE   H9R17397   5.009   2.878   9.309  1.3084  0.8372 -2.0404
  156SAPE  C21017398   5.220   2.859   9.275  0.7039  0.4623 -0.2077
  156SAPE  H10R17399   5.303   2.912   9.326  0.2306  0.0528  0.9904
  156SAPE  H10S17400   5.193   2.922   9.188 -2.7699 -0.5619  0.0790
  156SAPE  C21117401   5.273   2.728   9.224  0.6652  0.5029 -0.2809
  156SAPE  H11R17402   5.244   2.636   9.277 -0.8534  0.6753 -0.7816
  156SAPE  C21217403   5.344   2.724   9.112  0.6311 -0.2093  0.3956
  156SAPE  H12R17404   5.400   2.632   9.088 -1.6701 -1.7081  0.6597
  156SAPE  C21317405   5.368   2.849   9.024  0.3278  0.1151 -0.1236
  156SAPE  H13R17406   5.469   2.827   8.983  0.4834 -0.4086  0.5157
  156SAPE  H13S17407   5.381   2.932   9.097  1.6093  0.1355 -0.3640
  156SAPE  C21417408   5.258   2.871   8.919 -1.0578  0.2131 -0.4050
  156SAPE  H14R17409   5.156   2.836   8.940 -1.9891  1.2014 -3.0886
  156SAPE  C21517410   5.276   2.931   8.801  0.8098  0.4035  0.0147
  156SAPE  H15R17411   5.189   2.954   8.736 -0.6019 -2.8418  0.6332
  156SAPE  C21617412   5.395   2.987   8.732 -0.3565  0.0457 -0.3465
  156SAPE  H16R17413   5.420   2.913   8.653 -0.0984 -1.2772  0.9434
  156SAPE  H16S17414   5.483   2.999   8.799 -0.3557  1.1835 -0.5417
  156SAPE  C21717415   5.359   3.119   8.664  0.3742 -0.1391 -0.1931
  156SAPE  H17R17416   5.358   3.203   8.737  0.8117 -1.2022  1.0627
  156SAPE  H17S17417   5.255   3.113   8.624  0.2505  1.9789 -0.2169
  156SAPE  C21817418   5.472   3.147   8.562  0.2223 -0.6055  0.7899
  156SAPE  H18R17419   5.488   3.055   8.501 -2.2597 -2.7771  3.2935
  156SAPE  H18S17420   5.570   3.165   8.611  0.6821 -3.0581  0.8389
  156SAPE  C21917421   5.445   3.273   8.473  0.6133 -0.5100 -0.1640
  156SAPE  H19R17422   5.456   3.363   8.537 -0.2114  0.8726 -1.9017
  156SAPE  H19S17423   5.340   3.265   8.437  0.5396  0.0178 -0.0822
  156SAPE  C22017424   5.532   3.294   8.352 -0.7085  0.4252  0.7629
  156SAPE  H20R17425   5.639   3.272   8.371 -0.7945 -1.0285 -0.3780
  156SAPE  H20S17426   5.529   3.401   8.323 -0.2578 -0.2418 -1.8062
  156SAPE  H20T17427   5.502   3.227   8.270 -0.0109  0.3644  0.5571
  156SAPE   C3317428   5.972   2.505   9.829 -0.2202 -0.0524  0.4100
  156SAPE   H3X17429   6.022   2.408   9.848 -0.0409  0.2784  1.6964
  156SAPE   H3Y17430   6.004   2.576   9.908 -0.7216  1.5385 -0.7826
  156SAPE   C3417431   6.012   2.563   9.691 -0.2825  0.2221  0.5106
  156SAPE   H4X17432   6.121   2.584   9.691 -0.7099  2.6874 -0.5188
  156SAPE   H4Y17433   5.970   2.665   9.672  2.4796  1.2708 -0.2056
  156SAPE   C3517434   5.962   2.468   9.585  0.5477  0.1116 -0.0613
  156SAPE   H5X17435   5.853   2.468   9.566  1.0190 -2.4197 -3.2813
  156SAPE   H5Y17436   5.988   2.362   9.608 -0.1402 -0.5722 -2.2838
  156SAPE   C3617437   6.031   2.492   9.450  0.1261  0.4713 -0.1901
  156SAPE   H6X17438   5.992   2.407   9.391  2.3860 -0.9191  0.2941
  156SAPE   H6Y17439   6.142   2.489   9.453  0.1776  0.6451 -1.5444
  156SAPE   C3717440   5.981   2.624   9.373 -0.5187  0.6698 -0.0022
  156SAPE   H7X17441   5.958   2.708   9.442  1.4237  1.4103 -0.2252
  156SAPE   H7Y17442   5.889   2.602   9.314  0.0752  2.6875 -1.7516
  156SAPE   C3817443   6.089   2.682   9.281 -0.3204 -0.0521  0.1449
  156SAPE   H8X17444   6.125   2.594   9.224  0.7922  0.2302  0.4054
  156SAPE   H8Y17445   6.168   2.716   9.350 -0.3669 -1.9976  1.1810
  156SAPE   C3917446   6.058   2.804   9.192  0.2232  0.5150  0.5698
  156SAPE   H9X17447   6.011   2.886   9.251  3.1503  0.9341  2.4152
  156SAPE   H9Y17448   5.984   2.768   9.117  0.6982 -0.1781  0.4290
  156SAPE  C31017449   6.181   2.868   9.117 -0.3516  0.2890  0.4933
  156SAPE  H10X17450   6.240   2.778   9.088 -2.0148 -0.9428  0.8425
  156SAPE  H10Y17451   6.235   2.925   9.195  0.2308 -0.2915  0.5166
  156SAPE  C31117452   6.131   2.961   9.007 -0.2911 -0.4330  0.0418
  156SAPE  H11X17453   6.082   3.043   9.063  0.4822 -0.3541  0.6103
  156SAPE  H11Y17454   6.054   2.901   8.954 -0.5315 -1.7038  1.8039
  156SAPE  C31217455   6.244   3.009   8.916 -0.3435 -0.3418  0.3407
  156SAPE  H12X17456   6.284   2.917   8.869  2.8982  0.9135  0.4743
  156SAPE  H12Y17457   6.324   3.044   8.985  0.3355 -0.7743 -0.2198
  156SAPE  C31317458   6.187   3.103   8.808 -0.7360  0.6743 -0.5621
  156SAPE  H13X17459   6.269   3.166   8.768 -1.3403  1.3609 -0.7323
  156SAPE  H13Y17460   6.118   3.180   8.850 -0.1168  1.9901 -1.8957
  156SAPE  C31417461   6.132   3.040   8.681  0.1684  0.1346 -0.0677
  156SAPE  H14X17462   6.049   2.970   8.704  0.7593 -0.9374 -1.1444
  156SAPE  H14Y17463   6.213   2.995   8.620 -0.1972  0.1795 -0.5931
  156SAPE  C31517464   6.083   3.148   8.584  1.2010 -0.4230 -0.3962
  156SAPE  H15X17465   6.058   3.112   8.482 -1.1771  0.9392 -0.3152
  156SAPE  H15Y17466   6.158   3.228   8.562  0.1951 -0.4551 -4.3713
  156SAPE  C31617467   5.955   3.210   8.640  0.1629  0.2335 -0.3941
  156SAPE  H16X17468   5.967   3.268   8.733  0.1845 -0.7445  0.2167
  156SAPE  H16Y17469   5.883   3.127   8.659  0.4769 -0.4730 -2.1170
  156SAPE  C31717470   5.886   3.303   8.539 -0.2193  0.5289 -0.8043
  156SAPE  H17X17471   5.834   3.245   8.459 -0.2971 -0.0115 -0.3679
  156SAPE  H17Y17472   5.961   3.369   8.493  1.1236 -0.0116  0.5697
  156SAPE  C31817473   5.780   3.390   8.596  0.0287  0.2083 -0.0352
  156SAPE  H18X17474   5.737   3.441   8.507  0.0886 -1.2096 -0.8966
  156SAPE  H18Y17475   5.823   3.468   8.661  1.8574 -1.3335  0.6357
  156SAPE  H18Z17476   5.693   3.344   8.648 -0.7738  1.0384 -0.6249
  157SAPE     N17477   4.960   2.283  10.689 -0.0272  0.1595 -0.7437
  157SAPE   HN117478   4.932   2.383  10.683 -0.8487 -0.0608 -0.6346
  157SAPE   HN217479   4.891   2.231  10.748 -0.9580 -0.1203 -2.0631
  157SAPE   HN317480   5.052   2.272  10.737 -0.5984  0.8454  0.5334
  157SAPE   C1217481   4.957   2.193  10.567  0.7446 -0.2536 -0.2879
  157SAPE  H12A17482   4.930   2.094  10.609 -0.0510 -0.0980 -0.4329
  157SAPE  H12B17483   5.053   2.190  10.510 -0.4490 -1.2671 -2.2925
  157SAPE   C1117484   4.847   2.227  10.466 -0.5496  0.2047 -0.5258
  157SAPE  H11A17485   4.839   2.165  10.374  1.4258  0.7881 -1.1170
  157SAPE  H11B17486   4.873   2.328  10.426 -0.3084  0.8686  1.2925
  157SAPE     P17487   4.614   2.331  10.519 -0.2061  0.4877 -0.5457
  157SAPE   O1317488   4.493   2.284  10.594  0.1053 -0.6671 -0.7980
  157SAPE   O1417489   4.670   2.457  10.564  0.3128 -0.2579  0.1905
  157SAPE   O1217490   4.722   2.216  10.534  0.8319 -0.2983  0.6004
  157SAPE   O1117491   4.576   2.340  10.362  0.2023  0.0001  0.5579
  157SAPE    C117492   4.526   2.225  10.297  0.3067 -0.3553 -0.0450
  157SAPE    HA17493   4.599   2.142  10.300 -0.0171 -0.6094  1.3200
  157SAPE    HB17494   4.428   2.199  10.341 -0.5497  0.3294 -1.5130
  157SAPE    C217495   4.485   2.253  10.149 -0.1846  0.4941 -0.2557
  157SAPE    HS17496   4.429   2.165  10.112  1.3904 -0.7587  0.2452
  157SAPE   O2117497   4.603   2.291  10.071 -0.0696  0.4007  0.1824
  157SAPE   C2117498   4.665   2.193  10.019  0.6483  0.1494  0.3433
  157SAPE   O2217499   4.638   2.072  10.027 -0.0549 -0.2357 -0.1916
  157SAPE   C2217500   4.772   2.245   9.929  0.7007  0.1719  0.4973
  157SAPE   H2R17501   4.799   2.343   9.974  0.2731 -0.1335  1.4491
  157SAPE   H2S17502   4.855   2.172   9.929 -1.2465 -2.1369 -1.2915
  157SAPE    C317503   4.390   2.374  10.156 -0.1210 -0.3689 -0.2401
  157SAPE    HX17504   4.449   2.461  10.194 -1.3260 -0.6980  2.4672
  157SAPE    HY17505   4.307   2.339  10.221  0.0218  1.7879  1.1767
  157SAPE   O3117506   4.330   2.414  10.030  0.9772 -0.6534 -0.5639
  157SAPE   C3117507   4.229   2.333   9.986 -0.3687  0.0765 -0.3750
  157SAPE   O3217508   4.190   2.236  10.044 -0.1191  0.2771  0.2840
  157SAPE   C3217509   4.177   2.388   9.851  0.8573 -0.7059 -0.4096
  157SAPE   H2X17510   4.198   2.497   9.858  2.8229 -0.9284 -2.2953
  157SAPE   H2Y17511   4.067   2.373   9.840  0.7994  0.2301 -1.1437
  157SAPE   C2317512   4.710   2.272   9.782 -0.3239  0.0241 -0.1328
  157SAPE   H3R17513   4.652   2.365   9.803  0.1556  0.4071 -0.5101
  157SAPE   H3S17514   4.640   2.192   9.747 -0.4710  0.4460 -0.8052
  157SAPE   C2417515   4.801   2.309   9.674 -0.7139 -0.6579  0.3329
  157SAPE   H4R17516   4.731   2.310   9.588 -0.8210  0.7316  0.4255
  157SAPE   H4S17517   4.865   2.222   9.648  0.9237  0.3467  0.9320
  157SAPE   C2517518   4.892   2.431   9.693  0.0730  0.0464  0.3592
  157SAPE   H5R17519   4.940   2.437   9.792 -0.8071  1.0972  0.7307
  157SAPE   C2617520   4.927   2.511   9.594  0.4463  0.6310 -0.3695
  157SAPE   H6R17521   4.982   2.605   9.608  1.4415 -0.1804  1.3198
  157SAPE   C2717522   4.890   2.486   9.444 -0.1705  0.3686 -0.5262
  157SAPE   H7R17523   4.859   2.380   9.431 -0.7458  0.6971 -1.8370
  157SAPE   H7S17524   4.988   2.492   9.393  1.7757  0.6098  3.0671
  157SAPE   C2817525   4.793   2.585   9.380 -0.6427  0.6792 -0.2080
  157SAPE   H8R17526   4.722   2.629   9.452  0.9082  2.7941  0.0703
  157SAPE   C2917527   4.779   2.624   9.251  0.2255  0.1222  0.1997
  157SAPE   H9R17528   4.695   2.692   9.231 -2.3670 -3.1645 -0.4173
  157SAPE  C21017529   4.858   2.585   9.130 -0.3510 -1.1002 -0.0384
  157SAPE  H10R17530   4.932   2.503   9.147  0.8557 -0.0682 -0.2306
  157SAPE  H10S17531   4.923   2.667   9.093 -2.0503  0.8494  1.1918
  157SAPE  C21117532   4.762   2.519   9.031 -0.0722  0.6191 -0.1481
  157SAPE  H11R17533   4.686   2.456   9.079 -1.0404  2.2179  0.4496
  157SAPE  C21217534   4.748   2.548   8.897  0.7380 -0.9820 -0.0070
  157SAPE  H12R17535   4.679   2.486   8.838  1.9962 -3.2980  0.8995
  157SAPE  C21317536   4.841   2.636   8.818  0.2047  0.3944  0.4285
  157SAPE  H13R17537   4.884   2.710   8.889  0.8242 -0.0146  0.4859
  157SAPE  H13S17538   4.784   2.709   8.757 -0.0091  1.5448  1.9782
  157SAPE  C21417539   4.941   2.558   8.741  0.0145 -0.3020 -0.4954
  157SAPE  H14R17540   4.949   2.451   8.767  0.0918 -0.7032 -2.0941
  157SAPE  C21517541   5.013   2.600   8.633  0.2693 -0.2284  0.5545
  157SAPE  H15R17542   5.085   2.529   8.591  0.4653  0.0220  0.4693
  157SAPE  C21617543   5.023   2.731   8.559 -0.8598 -0.2057 -0.2355
  157SAPE  H16R17544   4.979   2.820   8.610 -3.2231 -2.0649  1.1116
  157SAPE  H16S17545   4.963   2.723   8.466  0.8492  1.3265 -1.4889
  157SAPE  C21717546   5.168   2.766   8.509  0.1000  0.3488 -0.3091
  157SAPE  H17R17547   5.217   2.690   8.444 -1.0116 -0.7332  0.1048
  157SAPE  H17S17548   5.232   2.783   8.598 -1.2286  1.1707  0.5118
  157SAPE  C21817549   5.162   2.884   8.421  0.0574  0.1504 -0.4227
  157SAPE  H18R17550   5.147   2.973   8.486 -0.6162 -0.5737  0.4211
  157SAPE  H18S17551   5.084   2.864   8.344 -0.1277  0.1909 -0.2463
  157SAPE  C21917552   5.293   2.906   8.340 -0.0541  0.7870 -0.1788
  157SAPE  H19R17553   5.318   2.810   8.291 -1.2633  1.1487 -1.5367
  157SAPE  H19S17554   5.374   2.916   8.416  0.8244 -1.3633 -0.7838
  157SAPE  C22017555   5.278   3.021   8.245 -0.1821 -0.3343  0.4883
  157SAPE  H20R17556   5.380   3.036   8.205 -1.4225  1.9076 -2.0584
  157SAPE  H20S17557   5.260   3.114   8.303  1.0504  0.4765 -0.4111
  157SAPE  H20T17558   5.204   3.003   8.163  0.1364 -0.9958  0.3500
  157SAPE   C3317559   4.242   2.325   9.723  0.1508  1.0132 -0.3876
  157SAPE   H3X17560   4.210   2.220   9.705 -1.4262  1.2745  0.8328
  157SAPE   H3Y17561   4.353   2.321   9.721  0.0891 -2.4578 -0.2559
  157SAPE   C3417562   4.182   2.401   9.596 -0.2607 -0.0355  0.1456
  157SAPE   H4X17563   4.213   2.507   9.585 -0.5937 -0.1409 -2.0478
  157SAPE   H4Y17564   4.072   2.395   9.606 -0.3677  0.3652 -0.7268
  157SAPE   C3517565   4.221   2.324   9.468 -0.5278 -0.1558 -0.1705
  157SAPE   H5X17566   4.173   2.225   9.458 -0.4389 -0.0950 -1.2400
  157SAPE   H5Y17567   4.332   2.321   9.457 -0.4495  0.2619  0.4727
  157SAPE   C3617568   4.167   2.390   9.331  0.1613  0.1082 -0.2990
  157SAPE   H6X17569   4.222   2.482   9.303  0.0306  0.4894  0.6711
  157SAPE   H6Y17570   4.068   2.430   9.360  0.0655 -0.5438  0.2925
  157SAPE   C3717571   4.156   2.290   9.210 -0.3568 -0.0472  0.0938
  157SAPE   H7X17572   4.077   2.214   9.231  0.2949 -0.6319  0.4596
  157SAPE   H7Y17573   4.259   2.249   9.200 -1.0285 -1.8479  0.4103
  157SAPE   C3817574   4.103   2.364   9.081  0.1931 -0.3930 -0.0679
  157SAPE   H8X17575   4.144   2.467   9.074 -1.9789  0.4159 -1.2632
  157SAPE   H8Y17576   3.993   2.377   9.086  0.3616  1.4235 -0.7384
  157SAPE   C3917577   4.123   2.284   8.960 -0.3367  0.6187 -0.4784
  157SAPE   H9X17578   4.060   2.320   8.876  0.6179  0.7603 -1.1379
  157SAPE   H9Y17579   4.089   2.181   8.985  0.7833  0.2380 -0.4929
  157SAPE  C31017580   4.271   2.255   8.916  0.6844  0.4683  0.3310
  157SAPE  H10X17581   4.308   2.174   8.983 -0.1975 -1.1160 -1.0684
  157SAPE  H10Y17582   4.335   2.345   8.926  0.0766  1.0646 -1.0780
  157SAPE  C31117583   4.290   2.213   8.777  0.3923 -0.4014  0.0433
  157SAPE  H11X17584   4.252   2.290   8.706  2.7099 -1.2779 -2.2347
  157SAPE  H11Y17585   4.230   2.121   8.764  0.0200 -0.1423 -0.0931
  157SAPE  C31217586   4.440   2.177   8.738  0.2804 -0.1152  0.0049
  157SAPE  H12X17587   4.513   2.256   8.766  0.1075  0.3604 -0.8750
  157SAPE  H12Y17588   4.449   2.153   8.630 -0.2423  0.4898 -0.1785
  157SAPE  C31317589   4.489   2.048   8.804  0.5180  0.4594  0.6467
  157SAPE  H13X17590   4.405   1.980   8.830  0.1799  0.8833  0.6721
  157SAPE  H13Y17591   4.533   2.081   8.900 -0.5432 -1.5381  1.8375
  157SAPE  C31417592   4.602   1.979   8.729  0.6691 -0.4753  0.3163
  157SAPE  H14X17593   4.579   1.978   8.620  0.0041 -1.9849  0.4548
  157SAPE  H14Y17594   4.594   1.873   8.761  0.0272 -0.3371  0.6189
  157SAPE  C31517595   4.744   2.023   8.772 -0.5232  0.0683 -0.0560
  157SAPE  H15X17596   4.809   1.935   8.754  0.4153  0.7649 -0.1386
  157SAPE  H15Y17597   4.740   2.027   8.883  1.1235  0.4889  0.0003
  157SAPE  C31617598   4.806   2.143   8.694 -1.2567  0.7111  0.0958
  157SAPE  H16X17599   4.901   2.176   8.741 -0.6381 -0.4427 -0.3316
  157SAPE  H16Y17600   4.730   2.223   8.707 -1.7077  0.4067 -0.6312
  157SAPE  C31717601   4.832   2.105   8.551 -0.1473  0.8395  0.3817
  157SAPE  H17X17602   4.827   2.197   8.489 -0.5479 -0.6748 -1.9144
  157SAPE  H17Y17603   4.749   2.041   8.514  0.7482 -0.8950  1.2897
  157SAPE  C31817604   4.967   2.028   8.530  0.3207  0.1168  0.0433
  157SAPE  H18X17605   4.953   1.924   8.568 -0.4644  0.0573 -0.4069
  157SAPE  H18Y17606   5.045   2.081   8.590  0.2084  1.4713 -0.9830
  157SAPE  H18Z17607   4.995   2.054   8.426  0.5126 -0.4600 -0.0515
  158SAPE     N17608   5.413   2.731  10.717 -0.2514 -0.3039 -0.5153
  158SAPE   HN117609   5.362   2.727  10.807  1.2480  1.0729  0.4341
  158SAPE   HN217610   5.380   2.820  10.674  1.6411  0.8400  0.2889
  158SAPE   HN317611   5.374   2.658  10.655 -0.6071  0.4952 -1.2510
  158SAPE   C1217612   5.564   2.725  10.737 -0.5684 -0.6071 -0.1590
  158SAPE  H12A17613   5.582   2.628  10.790 -1.1898 -0.5292  0.1891
  158SAPE  H12B17614   5.595   2.800  10.813  0.0766 -3.4283  2.4793
  158SAPE   C1117615   5.645   2.741  10.602  1.0059 -0.0356 -0.0746
  158SAPE  H11A17616   5.594   2.696  10.514  1.9177 -1.2532 -0.0011
  158SAPE  H11B17617   5.735   2.676  10.605  0.8905 -0.2338 -0.8547
  158SAPE     P17618   5.594   2.976  10.501  0.1343  0.2243  0.0070
  158SAPE   O1317619   5.455   2.941  10.532 -0.1173 -0.2143  0.1694
  158SAPE   O1417620   5.636   3.119  10.514 -0.1309  0.4165  0.3195
  158SAPE   O1217621   5.687   2.880  10.589  0.1032 -0.3300 -0.1090
  158SAPE   O1117622   5.636   2.913  10.365 -0.4667  0.2593 -0.2460
  158SAPE    C117623   5.764   2.869  10.337 -0.5655  0.6113 -0.6908
  158SAPE    HA17624   5.842   2.874  10.416 -0.2843 -0.3230 -0.8977
  158SAPE    HB17625   5.749   2.760  10.320  0.8918 -0.3148  3.2188
  158SAPE    C217626   5.817   2.955  10.216 -0.1418 -0.3730  0.8859
  158SAPE    HS17627   5.801   3.060  10.248 -3.4278 -0.6188  0.3125
  158SAPE   O2117628   5.738   2.928  10.096  0.1586  0.2582  0.4139
  158SAPE   C2117629   5.660   3.029  10.062  0.5836 -0.5383  0.0300
  158SAPE   O2217630   5.657   3.141  10.112  0.1550 -0.3902 -0.2291
  158SAPE   C2217631   5.577   2.982   9.935 -0.2446 -0.2756 -0.4688
  158SAPE   H2R17632   5.474   2.953   9.964  0.7054 -1.9034  1.3935
  158SAPE   H2S17633   5.590   3.068   9.867  0.7256 -1.3881 -1.7005
  158SAPE    C317634   5.976   2.942  10.188  0.2648 -0.5343  0.1479
  158SAPE    HX17635   5.998   2.835  10.171  2.5547 -0.0487 -0.0233
  158SAPE    HY17636   6.033   2.981  10.274  0.6428 -0.3319 -0.1909
  158SAPE   O3117637   6.016   3.016  10.078  0.2062 -0.3398 -0.2518
  158SAPE   C3117638   6.028   2.953   9.963  0.8835 -0.2547  0.1348
  158SAPE   O3217639   5.985   2.847   9.935 -0.1951 -0.1164 -0.0805
  158SAPE   C3217640   6.091   3.049   9.864 -0.2373 -0.0920  0.6971
  158SAPE   H2X17641   6.168   3.115   9.910  0.0138  0.1805 -0.1019
  158SAPE   H2Y17642   6.020   3.113   9.808 -1.0208 -0.8939  0.7697
  158SAPE   C2317643   5.632   2.858   9.869  0.7428  0.1099  0.4658
  158SAPE   H3R17644   5.576   2.770   9.905 -0.0847  0.1107 -0.7991
  158SAPE   H3S17645   5.742   2.847   9.882  0.9292 -0.0609 -1.1087
  158SAPE   C2417646   5.599   2.862   9.720 -0.1129  0.1091 -0.8338
  158SAPE   H4R17647   5.508   2.925   9.709 -0.2581 -0.0303 -0.4434
  158SAPE   H4S17648   5.568   2.759   9.693  0.1905  0.2024 -1.5517
  158SAPE   C2517649   5.722   2.905   9.651 -0.0266 -0.5491  0.1866
  158SAPE   H5R17650   5.808   2.907   9.719 -1.8137  0.1719  2.4631
  158SAPE   C2617651   5.739   2.906   9.521 -0.3391  0.3128  0.3232
  158SAPE   H6R17652   5.836   2.943   9.484 -0.9566  1.7316  0.0952
  158SAPE   C2717653   5.630   2.862   9.426  0.3601  0.4311  0.1605
  158SAPE   H7R17654   5.563   2.948   9.402  1.1800  1.0665  0.1074
  158SAPE   H7S17655   5.561   2.786   9.467 -0.0203  1.9178  2.3634
  158SAPE   C2817656   5.685   2.813   9.296 -0.6655  0.5727  0.5356
  158SAPE   H8R17657   5.699   2.704   9.293 -0.4819  0.5574  1.7248
  158SAPE   C2917658   5.717   2.884   9.187  0.8117  0.3680  0.3620
  158SAPE   H9R17659   5.765   2.834   9.102 -0.4884 -1.2320  0.5439
  158SAPE  C21017660   5.716   3.036   9.182  0.6213 -0.2757 -0.3681
  158SAPE  H10R17661   5.802   3.079   9.236  0.0069  0.2104  0.2315
  158SAPE  H10S17662   5.618   3.067   9.224  0.8213  0.1534 -0.2191
  158SAPE  C21117663   5.727   3.085   9.045 -0.7282 -1.0917 -0.0666
  158SAPE  H11R17664   5.653   3.032   8.984 -1.2007  1.5610 -1.8715
  158SAPE  C21217665   5.786   3.188   8.989  0.5634 -0.3626 -0.2679
  158SAPE  H12R17666   5.762   3.208   8.884 -0.3239 -1.7792 -0.3520
  158SAPE  C21317667   5.877   3.288   9.052 -0.1154 -0.1069 -0.1489
  158SAPE  H13R17668   5.968   3.286   8.987 -0.1319  1.0216 -0.2184
  158SAPE  H13S17669   5.916   3.255   9.150  2.7059  0.2690 -1.0856
  158SAPE  C21417670   5.809   3.424   9.053  0.9338 -0.2078 -1.0697
  158SAPE  H14R17671   5.754   3.460   8.964 -0.1784  1.2910  0.2040
  158SAPE  C21517672   5.782   3.506   9.158  0.2564  0.6822 -1.1524
  158SAPE  H15R17673   5.729   3.599   9.133 -0.0946  1.4321  2.1686
  158SAPE  C21617674   5.829   3.487   9.306  0.1421 -0.0497  0.2943
  158SAPE  H16R17675   5.899   3.568   9.338 -0.0893  0.9149 -1.6044
  158SAPE  H16S17676   5.878   3.389   9.328  1.7046  0.4920 -0.6240
  158SAPE  C21717677   5.706   3.503   9.387  0.1048  0.6994  0.0598
  158SAPE  H17R17678   5.616   3.450   9.351 -0.2458  0.1576  1.7381
  158SAPE  H17S17679   5.666   3.607   9.382  1.1940  1.1808  1.0622
  158SAPE  C21817680   5.731   3.480   9.542 -0.3052 -0.0100 -0.5302
  158SAPE  H18R17681   5.639   3.516   9.593  1.2392  0.1538  2.2242
  158SAPE  H18S17682   5.819   3.538   9.577 -0.4770  0.2302 -0.4980
  158SAPE  C21917683   5.766   3.342   9.598  0.0547  0.1062  0.5143
  158SAPE  H19R17684   5.852   3.300   9.541  0.4483 -1.1896  2.0371
  158SAPE  H19S17685   5.677   3.278   9.583 -1.5025  2.3764 -0.1648
  158SAPE  C22017686   5.801   3.336   9.749  0.4734 -0.0028 -0.3294
  158SAPE  H20R17687   5.720   3.370   9.817 -0.1108 -0.8479 -0.5934
  158SAPE  H20S17688   5.892   3.398   9.764  0.3326  0.6540 -2.0249
  158SAPE  H20T17689   5.838   3.235   9.776  1.5509  0.3793 -0.3702
  158SAPE   C3317690   6.184   2.990   9.753 -0.0890  0.1300 -0.1496
  158SAPE   H3X17691   6.135   2.896   9.720  0.7495 -0.5040  0.4107
  158SAPE   H3Y17692   6.277   2.953   9.801  0.0680  1.3800  0.5356
  158SAPE   C3417693   6.209   3.067   9.620 -0.2216 -0.5546  0.3563
  158SAPE   H4X17694   6.296   3.018   9.571 -0.0656 -1.0054  1.0609
  158SAPE   H4Y17695   6.241   3.172   9.637  0.1851 -0.7423  0.7823
  158SAPE   C3517696   6.088   3.063   9.526 -0.2462  0.6596 -0.4696
  158SAPE   H5X17697   5.994   3.044   9.582  0.4498  0.7549  0.7596
  158SAPE   H5Y17698   6.095   2.965   9.475  0.2812 -0.6886  2.1114
  158SAPE   C3617699   6.077   3.180   9.432  0.2197  0.3431 -0.6426
  158SAPE   H6X17700   6.059   3.277   9.484 -1.1746  0.3132 -1.0556
  158SAPE   H6Y17701   5.986   3.175   9.369  0.7822 -2.0324 -1.3243
  158SAPE   C3717702   6.201   3.192   9.335  0.0467  0.1096  0.2126
  158SAPE   H7X17703   6.215   3.104   9.268 -1.5337  1.5869 -2.1248
  158SAPE   H7Y17704   6.297   3.200   9.391  0.1622 -1.9836  0.3402
  158SAPE   C3817705   6.188   3.314   9.247 -0.5411 -0.8392 -0.1388
  158SAPE   H8X17706   6.185   3.406   9.309  1.4704  0.9742 -2.6324
  158SAPE   H8Y17707   6.103   3.321   9.177 -1.0740 -3.6127  0.1556
  158SAPE   C3917708   6.318   3.316   9.161  0.0190  0.2454  0.1507
  158SAPE   H9X17709   6.304   3.237   9.084  0.9381  1.8571 -1.7197
  158SAPE   H9Y17710   6.402   3.286   9.228 -0.2093 -1.7551 -0.4146
  158SAPE  C31017711   6.343   3.448   9.099 -0.3167 -1.2773  0.3409
  158SAPE  H10X17712   6.453   3.467   9.091 -0.8099  2.1863  1.2336
  158SAPE  H10Y17713   6.303   3.524   9.169  1.3680 -0.3758  0.3504
  158SAPE  C31117714   6.278   3.468   8.956 -0.1910  0.5770 -0.5005
  158SAPE  H11X17715   6.171   3.440   8.962  0.3546 -1.7321 -1.0935
  158SAPE  H11Y17716   6.329   3.401   8.883 -0.8641  0.9620 -1.3299
  158SAPE  C31217717   6.292   3.612   8.899 -0.2041  0.0837  0.5907
  158SAPE  H12X17718   6.394   3.607   8.855 -1.1253  1.6383 -1.8606
  158SAPE  H12Y17719   6.284   3.686   8.982  1.9371 -0.1925  1.0738
  158SAPE  C31317720   6.198   3.636   8.773  0.9402  0.1398 -0.0946
  158SAPE  H13X17721   6.090   3.627   8.797  0.9248 -0.4071 -0.3624
  158SAPE  H13Y17722   6.224   3.570   8.688  0.2580  0.3755 -0.4840
  158SAPE  C31417723   6.207   3.781   8.722  0.0190  0.2353 -0.2869
  158SAPE  H14X17724   6.193   3.840   8.815 -0.1105  1.1770 -0.9008
  158SAPE  H14Y17725   6.121   3.812   8.659  0.1078  1.0749  0.0072
  158SAPE  C31517726   6.344   3.820   8.674 -0.6876 -0.9214 -0.2431
  158SAPE  H15X17727   6.357   3.772   8.575  1.1809 -0.5132 -0.2129
  158SAPE  H15Y17728   6.425   3.780   8.738 -1.3070  0.9181  1.7769
  158SAPE  C31617729   6.354   3.969   8.647 -0.2421  0.3324  0.1597
  158SAPE  H16X17730   6.325   4.044   8.724  0.5889  2.2215 -1.3297
  158SAPE  H16Y17731   6.290   3.994   8.561  0.1724 -0.2199 -0.3127
  158SAPE  C31717732   6.490   4.013   8.603 -0.2471  0.4768  0.0549
  158SAPE  H17X17733   6.563   3.952   8.660  0.4019  2.0728  0.9820
  158SAPE  H17Y17734   6.509   4.118   8.636 -2.0135  0.6883  0.4334
  158SAPE  C31817735   6.521   4.012   8.452 -0.1117  1.0628 -0.7795
  158SAPE  H18X17736   6.605   4.073   8.413  0.5858 -0.6844 -2.0788
  158SAPE  H18Y17737   6.428   4.042   8.400 -0.2861  1.6568 -0.1308
  158SAPE  H18Z17738   6.547   3.912   8.411 -0.1828  0.6372  0.1901
  159SAPE     N17739   4.656   0.408   6.511 -0.1796  0.4878 -0.5534
  159SAPE   HN117740   4.734   0.382   6.447 -0.0484  0.2192 -0.2869
  159SAPE   HN217741   4.594   0.327   6.530 -1.6894  1.6994 -0.2059
  159SAPE   HN317742   4.602   0.488   6.473 -1.9317 -0.0666  0.6864
  159SAPE   C1217743   4.726   0.458   6.637  0.3020 -0.3571 -0.4409
  159SAPE  H12A17744   4.650   0.498   6.708 -0.7630 -0.4355 -1.5191
  159SAPE  H12B17745   4.794   0.543   6.617 -0.8759  0.3901 -1.3482
  159SAPE   C1117746   4.802   0.343   6.696 -0.4365  0.3464 -0.3338
  159SAPE  H11A17747   4.731   0.263   6.728  0.0860 -0.8180 -2.0033
  159SAPE  H11B17748   4.858   0.375   6.786 -0.5606 -1.0544  0.2524
  159SAPE     P17749   5.041   0.339   6.567 -0.0452  0.2280 -0.2184
  159SAPE   O1317750   5.072   0.270   6.440 -0.7404 -0.1529 -0.8038
  159SAPE   O1417751   5.054   0.488   6.577  0.4412 -0.5592  0.3630
  159SAPE   O1217752   4.896   0.293   6.607  0.8438 -0.5655 -0.3665
  159SAPE   O1117753   5.124   0.277   6.687 -0.1571  0.4183 -0.5860
  159SAPE    C117754   5.165   0.138   6.685 -0.5395  0.2950 -0.2612
  159SAPE    HA17755   5.154   0.096   6.583 -1.8794 -1.1577  0.4512
  159SAPE    HB17756   5.272   0.131   6.713 -0.9331  0.0205  1.2424
  159SAPE    C217757   5.083   0.052   6.786 -0.5250  0.1144  0.3198
  159SAPE    HS17758   5.006   0.006   6.720 -0.4420 -1.5305  1.3204
  159SAPE   O2117759   5.049   0.139   6.891  0.8400  0.0750 -0.2674
  159SAPE   C2117760   4.954   0.089   6.964  0.3691 -0.5464 -0.4711
  159SAPE   O2217761   4.896  -0.013   6.944  0.3750  0.3258 -0.6456
  159SAPE   C2217762   4.918   0.190   7.076 -0.7676 -0.7025  0.6218
  159SAPE   H2R17763   5.007   0.221   7.134  0.6981 -2.0096 -0.8583
  159SAPE   H2S17764   4.879   0.281   7.025 -0.2557 -0.5275  0.5342
  159SAPE    C317765   5.161  -0.074   6.834  0.2096 -0.6238  0.1314
  159SAPE    HX17766   5.193  -0.115   6.736 -2.0371 -2.0667 -0.0425
  159SAPE    HY17767   5.089  -0.141   6.887 -2.8563  3.7998  1.8731
  159SAPE   O3117768   5.289  -0.042   6.899 -0.4534  0.0086  0.2063
  159SAPE   C3117769   5.295  -0.058   7.032 -0.1409 -0.1114 -0.0302
  159SAPE   O3217770   5.203  -0.072   7.106  0.4734  0.5540 -0.1764
  159SAPE   C3217771   5.439  -0.022   7.070 -0.0004  0.8167 -0.0065
  159SAPE   H2X17772   5.448   0.087   7.052  2.1938  0.4609 -1.1833
  159SAPE   H2Y17773   5.511  -0.073   7.003  0.2295 -1.7032  2.0476
  159SAPE   C2317774   4.806   0.149   7.170 -0.2018  0.5068 -0.2065
  159SAPE   H3R17775   4.823   0.048   7.214  1.0286 -0.4778 -2.8675
  159SAPE   H3S17776   4.714   0.144   7.107 -0.2706  1.9424 -0.2314
  159SAPE   C2417777   4.783   0.244   7.288 -0.1629  0.4329 -0.4294
  159SAPE   H4R17778   4.697   0.196   7.339  1.6519 -0.1180  2.1786
  159SAPE   H4S17779   4.760   0.348   7.256 -1.2549  1.4396  3.3351
  159SAPE   C2517780   4.888   0.267   7.391 -0.3310  0.0234  0.6183
  159SAPE   H5R17781   4.987   0.247   7.349 -0.8116  0.0683 -0.5519
  159SAPE   C2617782   4.875   0.290   7.516 -0.8315 -0.0173 -0.3607
  159SAPE   H6R17783   4.967   0.303   7.574 -0.4593 -0.3336 -0.8819
  159SAPE   C2717784   4.742   0.307   7.592  0.4683  0.9172  0.0627
  159SAPE   H7R17785   4.657   0.306   7.521  0.1907 -3.0124  0.3123
  159SAPE   H7S17786   4.751   0.412   7.627  0.1097  0.6207  1.0706
  159SAPE   C2817787   4.705   0.217   7.711 -0.5601 -0.0583 -0.1005
  159SAPE   H8R17788   4.628   0.142   7.685  0.2327 -1.1832  0.7427
  159SAPE   C2917789   4.752   0.219   7.838  0.3617 -0.0294  0.0941
  159SAPE   H9R17790   4.711   0.136   7.897 -2.0221  0.0638 -1.3711
  159SAPE  C21017791   4.842   0.315   7.903 -0.3327 -0.0204 -0.4749
  159SAPE  H10R17792   4.778   0.387   7.958  0.3632  0.4276 -0.2454
  159SAPE  H10S17793   4.884   0.377   7.820  0.4611 -0.5617 -0.4839
  159SAPE  C21117794   4.962   0.251   7.968  0.6520  0.4126 -0.2850
  159SAPE  H11R17795   5.000   0.164   7.913 -0.1233 -0.3492  0.3724
  159SAPE  C21217796   5.033   0.296   8.074 -0.4999  0.2658 -0.5070
  159SAPE  H12R17797   5.122   0.236   8.099  2.0889  2.9024 -3.1192
  159SAPE  C21317798   5.001   0.413   8.158  0.5305 -0.0391 -0.0299
  159SAPE  H13R17799   4.962   0.487   8.084 -1.0973  1.0486  1.8696
  159SAPE  H13S17800   5.096   0.455   8.195 -1.3132  2.0011  2.5731
  159SAPE  C21417801   4.909   0.373   8.267  0.5664 -0.0868 -0.3942
  159SAPE  H14R17802   4.811   0.341   8.229  0.9435 -2.4101  0.5607
  159SAPE  C21517803   4.936   0.375   8.398  0.2359  0.1424  0.5322
  159SAPE  H15R17804   4.866   0.329   8.470 -1.2666 -0.1628 -1.0994
  159SAPE  C21617805   5.061   0.423   8.460 -0.1972 -0.3086 -0.2622
  159SAPE  H16R17806   5.113   0.494   8.392 -0.4331 -0.3113 -0.4439
  159SAPE  H16S17807   5.134   0.341   8.476 -0.7857 -0.6712  0.6113
  159SAPE  C21717808   5.054   0.494   8.598  0.0938  0.3803  0.2253
  159SAPE  H17R17809   4.997   0.589   8.593  0.9873  1.0262  1.8808
  159SAPE  H17S17810   5.157   0.526   8.626  0.0226  1.1642 -0.3726
  159SAPE  C21817811   4.990   0.398   8.702  0.3739 -0.7102 -0.0435
  159SAPE  H18R17812   5.029   0.294   8.698  1.7762 -0.2581  1.1568
  159SAPE  H18S17813   4.879   0.398   8.700  0.2754  0.1155  2.7604
  159SAPE  C21917814   5.014   0.463   8.839  0.3558 -0.6331 -1.1281
  159SAPE  H19R17815   4.986   0.570   8.828 -1.7612 -1.2860 -2.4046
  159SAPE  H19S17816   5.122   0.448   8.862  0.2197 -0.0073 -0.0801
  159SAPE  C22017817   4.943   0.403   8.958 -0.7059  0.0355  0.3712
  159SAPE  H20R17818   4.971   0.462   9.048 -0.5272 -0.7759  0.8552
  159SAPE  H20S17819   4.983   0.300   8.974 -2.2740 -0.4649  1.1218
  159SAPE  H20T17820   4.832   0.399   8.951 -0.5770 -1.9705 -0.8611
  159SAPE   C3317821   5.485  -0.052   7.214 -0.5529  0.2486 -0.1854
  159SAPE   H3X17822   5.499  -0.162   7.223  2.6306  0.6635  0.7184
  159SAPE   H3Y17823   5.408  -0.025   7.289  0.5776 -1.6749  1.7135
  159SAPE   C3417824   5.617   0.020   7.239  0.5453  0.3270  0.2073
  159SAPE   H4X17825   5.595   0.129   7.247  1.1179  0.4545  0.1145
  159SAPE   H4Y17826   5.673  -0.004   7.146 -0.0060 -0.1301 -0.0079
  159SAPE   C3517827   5.702  -0.019   7.361 -0.0990 -0.2951  0.3780
  159SAPE   H5X17828   5.782   0.058   7.369  0.6591 -1.1327  0.9362
  159SAPE   H5Y17829   5.740  -0.121   7.340  0.5627  0.0071  0.1056
  159SAPE   C3617830   5.625  -0.005   7.493  0.5309  0.1494  0.1874
  159SAPE   H6X17831   5.532  -0.065   7.497  1.2392 -1.0594 -0.9896
  159SAPE   H6Y17832   5.584   0.098   7.505  0.0092 -0.0076 -0.2311
  159SAPE   C3717833   5.712  -0.029   7.615 -0.6200 -0.7679  1.0386
  159SAPE   H7X17834   5.799   0.037   7.597 -0.3498 -1.4003 -0.0338
  159SAPE   H7Y17835   5.757  -0.131   7.603  1.6171  0.2920  0.1057
  159SAPE   C3817836   5.646  -0.024   7.747  0.1872 -0.3646 -1.1100
  159SAPE   H8X17837   5.568  -0.102   7.760  0.5184 -0.3526  1.3519
  159SAPE   H8Y17838   5.588   0.070   7.761 -1.1934 -1.3893  0.3932
  159SAPE   C3917839   5.758  -0.018   7.859 -1.3629 -0.3940 -0.3045
  159SAPE   H9X17840   5.817   0.075   7.848  0.7846 -1.8800 -1.6087
  159SAPE   H9Y17841   5.819  -0.109   7.843  0.0092 -0.0549  2.7331
  159SAPE  C31017842   5.692  -0.013   8.002 -0.1299  0.2556 -0.0425
  159SAPE  H10X17843   5.773  -0.067   8.057 -0.4555 -0.7316 -0.5114
  159SAPE  H10Y17844   5.601  -0.077   8.000  0.2120 -0.2731  0.8877
  159SAPE  C31117845   5.646   0.127   8.050  0.3871 -0.1247 -0.5771
  159SAPE  H11X17846   5.566   0.169   7.986 -1.3887  0.1071  1.7426
  159SAPE  H11Y17847   5.729   0.196   8.021  1.7906 -1.1235  0.9717
  159SAPE  C31217848   5.621   0.140   8.199 -0.2064 -1.0298  0.1001
  159SAPE  H12X17849   5.531   0.079   8.226 -1.1173  0.7432  1.1769
  159SAPE  H12Y17850   5.587   0.245   8.214  2.7448 -0.3984  2.7771
  159SAPE  C31317851   5.744   0.119   8.287 -0.0677 -0.0869 -0.6084
  159SAPE  H13X17852   5.811   0.204   8.261  2.4057 -1.8823 -0.2998
  159SAPE  H13Y17853   5.805   0.029   8.261 -0.2929 -1.0187  2.0086
  159SAPE  C31417854   5.733   0.119   8.445  0.3781 -1.2344  0.0795
  159SAPE  H14X17855   5.694   0.021   8.481 -2.3122 -0.4061 -0.4247
  159SAPE  H14Y17856   5.660   0.188   8.493  1.5041 -0.0701  0.1268
  159SAPE  C31517857   5.872   0.132   8.517 -0.0432 -0.8659 -0.1161
  159SAPE  H15X17858   5.895   0.241   8.520  0.0925 -0.8837 -0.4468
  159SAPE  H15Y17859   5.943   0.078   8.450 -0.9838  1.2176 -2.9048
  159SAPE  C31617860   5.872   0.082   8.666 -0.5481 -0.5532  0.0601
  159SAPE  H16X17861   5.852  -0.025   8.687 -0.9551  0.0825  3.1679
  159SAPE  H16Y17862   5.782   0.128   8.713  0.3542  1.7300 -0.3950
  159SAPE  C31717863   5.989   0.123   8.741 -0.5933  0.5520  0.2513
  159SAPE  H17X17864   5.985   0.234   8.744  0.1336  0.5589  1.3571
  159SAPE  H17Y17865   6.075   0.087   8.682  0.8657  1.9742  1.4528
  159SAPE  C31817866   5.991   0.064   8.883 -0.7947 -0.2847 -1.2333
  159SAPE  H18X17867   5.893   0.069   8.935  0.1402 -0.4799  0.5869
  159SAPE  H18Y17868   6.054   0.121   8.955 -1.0633 -0.4862 -0.8359
  159SAPE  H18Z17869   6.021  -0.043   8.892 -0.2359 -0.0605 -0.3340
  160SAPE     N17870   3.682   1.494   6.286  0.5339 -0.0134  0.6920
  160SAPE   HN117871   3.773   1.519   6.243 -0.5218 -1.0666 -2.2387
  160SAPE   HN217872   3.661   1.405   6.236 -1.2432  1.5986 -1.4888
  160SAPE   HN317873   3.602   1.558   6.271  0.5652  0.4292  2.2864
  160SAPE   C1217874   3.694   1.469   6.436 -0.6824  0.5627  0.0880
  160SAPE  H12A17875   3.595   1.426   6.459 -0.5465 -0.8312 -1.8798
  160SAPE  H12B17876   3.722   1.568   6.478  0.6547  0.0160  0.5082
  160SAPE   C1117877   3.780   1.355   6.478 -0.5678  0.6957  0.1562
  160SAPE  H11A17878   3.797   1.367   6.587  0.5426  1.5127 -0.0916
  160SAPE  H11B17879   3.878   1.356   6.425 -0.7825 -2.9181 -0.3985
  160SAPE     P17880   3.758   1.096   6.449  0.0540 -0.0056 -0.3464
  160SAPE   O1317881   3.654   1.005   6.397 -0.4693 -0.0581 -0.6310
  160SAPE   O1417882   3.884   1.100   6.371  0.4402 -0.2824  0.3042
  160SAPE   O1217883   3.702   1.243   6.443 -0.6908  0.3843 -0.5831
  160SAPE   O1117884   3.795   1.070   6.604 -0.4684  0.1728  0.0490
  160SAPE    C117885   3.881   0.976   6.659  0.1923  0.0526 -0.1194
  160SAPE    HA17886   3.818   0.897   6.706  0.1796  0.6712  0.9229
  160SAPE    HB17887   3.940   0.920   6.584  0.3610 -0.8009  0.6415
  160SAPE    C217888   3.971   1.045   6.762 -0.2014 -0.9802 -0.3143
  160SAPE    HS17889   4.047   0.975   6.804  0.1892 -0.4140 -0.0805
  160SAPE   O2117890   3.887   1.100   6.871  0.0718 -0.0608 -0.4743
  160SAPE   C2117891   3.828   1.006   6.949  0.2228 -0.0886 -0.4087
  160SAPE   O2217892   3.846   0.886   6.946  0.2732  0.2001 -0.2852
  160SAPE   C2217893   3.742   1.081   7.046  0.3113 -0.0739 -0.1740
  160SAPE   H2R17894   3.806   1.130   7.123 -2.0095 -1.2882  2.6112
  160SAPE   H2S17895   3.699   1.168   6.993 -0.2121  0.1236  0.5665
  160SAPE    C317896   4.059   1.160   6.694 -0.5203 -0.4735 -0.1040
  160SAPE    HX17897   3.989   1.230   6.645 -0.4619  0.4505  1.1047
  160SAPE    HY17898   4.119   1.124   6.607  0.9002  1.1821  0.1612
  160SAPE   O3117899   4.132   1.248   6.781  0.1855  0.3807  0.4041
  160SAPE   C3117900   4.180   1.363   6.730  0.3047  0.0996 -0.2576
  160SAPE   O3217901   4.188   1.397   6.612  0.3587  0.6403  0.1203
  160SAPE   C3217902   4.254   1.448   6.840  0.3025  0.4253  0.6894
  160SAPE   H2X17903   4.278   1.544   6.789  0.1863  0.1145  0.0338
  160SAPE   H2Y17904   4.350   1.397   6.859 -0.5104 -1.2647  0.3827
  160SAPE   C2317905   3.632   0.996   7.105  0.3379  0.2971 -0.0956
  160SAPE   H3R17906   3.673   0.908   7.159 -3.4056 -1.6854 -0.3354
  160SAPE   H3S17907   3.567   0.961   7.022  0.2312  0.1821  0.0360
  160SAPE   C2417908   3.540   1.056   7.206 -0.4584 -0.2416 -0.1411
  160SAPE   H4R17909   3.464   0.993   7.256  0.7734 -2.8123 -1.4196
  160SAPE   H4S17910   3.473   1.116   7.141 -3.1860 -0.4354  2.3963
  160SAPE   C2517911   3.594   1.150   7.313 -0.6820  0.5823 -0.0201
  160SAPE   H5R17912   3.633   1.250   7.286 -1.0345  1.2553  1.8654
  160SAPE   C2617913   3.609   1.106   7.444  0.6266  0.2435 -0.4645
  160SAPE   H6R17914   3.662   1.175   7.512  1.1280 -0.1505 -0.4513
  160SAPE   C2717915   3.572   0.972   7.513 -0.1392  0.0509  0.2090
  160SAPE   H7R17916   3.633   0.882   7.489 -0.0333  0.6482 -1.8227
  160SAPE   H7S17917   3.468   0.954   7.478 -0.5738  0.4351  1.2663
  160SAPE   C2817918   3.546   0.978   7.660  0.2767  0.1790 -0.0884
  160SAPE   H8R17919   3.484   1.063   7.692  0.7199  0.5323 -0.1561
  160SAPE   C2917920   3.591   0.896   7.751  0.0256  0.2497 -0.1093
  160SAPE   H9R17921   3.559   0.924   7.852  0.0702  1.7634 -0.5042
  160SAPE  C21017922   3.686   0.777   7.738  0.1854  0.0227  0.5530
  160SAPE  H10R17923   3.762   0.791   7.818  0.8469  2.5416 -0.4799
  160SAPE  H10S17924   3.730   0.787   7.637  0.0922  1.4336  0.6344
  160SAPE  C21117925   3.627   0.643   7.752  0.7682  0.4333 -0.5558
  160SAPE  H11R17926   3.604   0.594   7.657  1.8874  2.0495 -1.6788
  160SAPE  C21217927   3.614   0.575   7.867  0.1208 -0.2274  0.0069
  160SAPE  H12R17928   3.573   0.473   7.861  0.2845 -0.2431 -0.9375
  160SAPE  C21317929   3.661   0.616   8.000 -1.0387 -0.5591  0.1455
  160SAPE  H13R17930   3.578   0.650   8.065  0.0229  1.0953  0.6741
  160SAPE  H13S17931   3.711   0.715   8.001 -0.4648 -0.8335  1.9705
  160SAPE  C21417932   3.741   0.518   8.083 -0.0067 -0.4572  0.1594
  160SAPE  H14R17933   3.721   0.411   8.068  0.6957 -0.9249  2.4096
  160SAPE  C21517934   3.837   0.552   8.174 -0.1307 -0.4849  0.5396
  160SAPE  H15R17935   3.887   0.473   8.233 -0.6896  0.4748  2.3514
  160SAPE  C21617936   3.878   0.692   8.209  0.1220 -0.5102  0.3003
  160SAPE  H16R17937   3.869   0.703   8.319  1.6210 -2.1125  0.6127
  160SAPE  H16S17938   3.813   0.771   8.166 -1.0098 -1.0328  1.0060
  160SAPE  C21717939   4.022   0.724   8.166  0.0331 -0.0124  0.0250
  160SAPE  H17R17940   4.087   0.645   8.208 -0.1022 -0.9383 -1.4421
  160SAPE  H17S17941   4.051   0.806   8.234 -1.7681 -1.0516  2.1176
  160SAPE  C21817942   4.039   0.744   8.020  0.4711 -0.3759  0.2550
  160SAPE  H18R17943   3.971   0.823   7.982  1.3942 -0.8979 -2.5791
  160SAPE  H18S17944   4.002   0.653   7.969 -0.4261  0.5675 -0.8240
  160SAPE  C21917945   4.186   0.772   7.985  0.4958  0.9617 -0.4724
  160SAPE  H19R17946   4.261   0.709   8.038 -0.5587  0.0940 -0.0045
  160SAPE  H19S17947   4.214   0.877   8.010 -0.2878  1.6385 -2.3228
  160SAPE  C22017948   4.206   0.770   7.836  0.0077  0.1849  0.3125
  160SAPE  H20R17949   4.312   0.796   7.813 -1.0737  4.3629 -0.4082
  160SAPE  H20S17950   4.143   0.840   7.776 -0.4525 -0.7410 -0.3063
  160SAPE  H20T17951   4.186   0.671   7.789  1.7866 -0.4095  0.7661
  160SAPE   C3317952   4.168   1.444   6.970  0.4421 -0.7890  0.1001
  160SAPE   H3X17953   4.060   1.448   6.942  0.3820  0.4815  0.4423
  160SAPE   H3Y17954   4.186   1.541   7.022  2.0148 -1.0525  0.0478
  160SAPE   C3417955   4.188   1.323   7.061 -0.5486  0.1335  0.6519
  160SAPE   H4X17956   4.286   1.341   7.111  0.5896 -0.6803 -1.2552
  160SAPE   H4Y17957   4.196   1.237   6.992 -0.3566 -1.0957  2.1786
  160SAPE   C3517958   4.077   1.295   7.161 -0.7678 -0.1149  0.1249
  160SAPE   H5X17959   4.084   1.187   7.184  0.9858 -0.4949 -2.1006
  160SAPE   H5Y17960   3.981   1.306   7.107  0.6255  2.2799 -1.9665
  160SAPE   C3617961   4.085   1.376   7.287 -0.0151  0.4457 -0.3358
  160SAPE   H6X17962   4.083   1.483   7.256 -0.4821  0.0758 -1.6214
  160SAPE   H6Y17963   4.185   1.353   7.331 -0.7910 -1.9179  0.2458
  160SAPE   C3717964   3.986   1.333   7.393 -0.9529 -0.1042 -0.1211
  160SAPE   H7X17965   3.991   1.225   7.419 -0.6450 -0.1455 -0.3577
  160SAPE   H7Y17966   3.888   1.361   7.350 -0.4131 -1.3546 -2.2164
  160SAPE   C3817967   3.998   1.410   7.516  0.1843 -0.5763  0.4271
  160SAPE   H8X17968   3.982   1.518   7.497  2.2435 -0.1357  1.1030
  160SAPE   H8Y17969   4.105   1.393   7.543  1.3048 -0.3552 -3.5496
  160SAPE   C3917970   3.906   1.376   7.634  1.0857 -0.4443  0.3894
  160SAPE   H9X17971   3.811   1.336   7.592  0.7283  0.0786  0.6958
  160SAPE   H9Y17972   3.900   1.475   7.683 -0.6150 -1.3055  1.9955
  160SAPE  C31017973   3.948   1.273   7.744 -0.4745  0.0360 -0.1107
  160SAPE  H10X17974   4.054   1.299   7.766 -0.2835  0.8148 -1.8545
  160SAPE  H10Y17975   3.933   1.170   7.703 -3.6233  1.1090 -1.8442
  160SAPE  C31117976   3.869   1.270   7.875 -0.5101 -0.2955 -0.3549
  160SAPE  H11X17977   3.762   1.245   7.858 -0.1883 -2.0121  0.0474
  160SAPE  H11Y17978   3.881   1.365   7.931  0.1253  0.3509 -1.5799
  160SAPE  C31217979   3.921   1.161   7.959  0.5726 -0.1898  0.2992
  160SAPE  H12X17980   4.029   1.177   7.981  0.8110 -0.8609 -0.3484
  160SAPE  H12Y17981   3.916   1.062   7.909 -2.2685 -0.0432  0.2132
  160SAPE  C31317982   3.832   1.147   8.087  0.0829  0.4951  0.1097
  160SAPE  H13X17983   3.807   1.248   8.126 -0.1788  0.2358  0.6300
  160SAPE  H13Y17984   3.896   1.097   8.164  1.4749 -0.6981 -1.7925
  160SAPE  C31417985   3.694   1.068   8.068  0.4372  0.4640 -1.0786
  160SAPE  H14X17986   3.719   0.991   7.992 -0.2401 -0.0876 -0.7503
  160SAPE  H14Y17987   3.617   1.134   8.022 -0.3219  0.8208  0.6825
  160SAPE  C31517988   3.636   1.018   8.199 -0.3841 -0.5188 -0.3853
  160SAPE  H15X17989   3.621   1.099   8.273  2.3007 -0.0973 -0.2568
  160SAPE  H15Y17990   3.702   0.943   8.249 -1.7084 -0.8704  0.8971
  160SAPE  C31617991   3.503   0.943   8.193 -0.0752 -0.5009  0.1948
  160SAPE  H16X17992   3.520   0.869   8.112  0.5180 -1.9489  1.6180
  160SAPE  H16Y17993   3.410   1.001   8.172 -0.1613 -0.3590  0.9652
  160SAPE  C31717994   3.469   0.861   8.319 -0.0261  0.1697 -0.0039
  160SAPE  H17X17995   3.457   0.930   8.405  0.7603 -0.1236  0.3447
  160SAPE  H17Y17996   3.552   0.798   8.356  0.0743 -0.2218 -0.8641
  160SAPE  C31817997   3.345   0.773   8.306 -0.2384  0.2682  0.0184
  160SAPE  H18X17998   3.324   0.698   8.386 -0.4606  1.6355  1.2473
  160SAPE  H18Y17999   3.339   0.710   8.215  1.9925 -0.6456  0.4615
  160SAPE  H18Z18000   3.259   0.843   8.300  0.0335  0.6303  0.3655
  161SAPE     N18001   6.211   6.264   6.071  0.2115 -0.1712  0.6799
  161SAPE   HN118002   6.207   6.362   6.037 -2.6553 -1.0150 -1.6502
  161SAPE   HN218003   6.113   6.252   6.103  0.1050  1.3907  0.9872
  161SAPE   HN318004   6.279   6.263   6.149  0.5161 -0.5055  0.4121
  161SAPE   C1218005   6.259   6.160   5.968  0.2431 -0.8610  0.4662
  161SAPE  H12A18006   6.363   6.184   5.937  0.1375 -1.0819 -0.0764
  161SAPE  H12B18007   6.197   6.170   5.876 -1.0707 -2.0062  1.2248
  161SAPE   C1118008   6.233   6.021   6.026  0.3286  0.0383 -0.0006
  161SAPE  H11A18009   6.251   5.942   5.950  2.0748  1.1360 -0.7576
  161SAPE  H11B18010   6.127   6.007   6.057 -0.0784  2.6476 -0.0397
  161SAPE     P18011   6.322   5.858   6.208 -0.5660 -0.1245 -0.0470
  161SAPE   O1318012   6.291   5.751   6.109 -0.0715 -0.1428  0.2237
  161SAPE   O1418013   6.444   5.838   6.280  0.0218  0.2298  0.1608
  161SAPE   O1218014   6.330   5.999   6.131 -0.0157  0.1671 -1.1109
  161SAPE   O1118015   6.196   5.874   6.298 -0.0102 -0.0838 -0.8084
  161SAPE    C118016   6.167   6.000   6.363 -0.2704  0.7256  0.0058
  161SAPE    HA18017   6.195   6.084   6.296 -0.3428 -0.5618 -1.6731
  161SAPE    HB18018   6.062   6.013   6.396 -0.8714 -0.2010 -1.4848
  161SAPE    C218019   6.256   6.012   6.492 -0.7929  0.7814 -0.1105
  161SAPE    HS18020   6.364   6.019   6.467 -0.3427  2.3678  2.1539
  161SAPE   O2118021   6.224   5.895   6.567 -0.8322 -0.1608  0.3922
  161SAPE   C2118022   6.315   5.852   6.644 -1.1390 -0.0253 -0.6070
  161SAPE   O2218023   6.436   5.882   6.641 -0.4376 -0.0790  0.2683
  161SAPE   C2218024   6.251   5.746   6.735  0.2633 -0.5631  0.5409
  161SAPE   H2R18025   6.161   5.792   6.781  0.7943  0.2994  0.7319
  161SAPE   H2S18026   6.231   5.650   6.682  0.3681  0.1788 -0.8488
  161SAPE    C318027   6.221   6.141   6.578 -0.5227 -0.1705  0.4257
  161SAPE    HX18028   6.120   6.122   6.622 -1.0688  0.0284 -0.7178
  161SAPE    HY18029   6.223   6.228   6.508  2.8862 -0.6430 -0.1564
  161SAPE   O3118030   6.308   6.161   6.694 -0.0443  0.2382  0.3896
  161SAPE   C3118031   6.428   6.209   6.653  0.5295 -0.0938  0.5908
  161SAPE   O3218032   6.453   6.243   6.537 -0.1576 -0.4826  0.2569
  161SAPE   C3218033   6.514   6.229   6.775 -0.3435 -0.0625  0.3715
  161SAPE   H2X18034   6.476   6.313   6.837  0.6047  0.0966  0.7589
  161SAPE   H2Y18035   6.619   6.248   6.744 -0.0347  1.9402  2.5303
  161SAPE   C2318036   6.355   5.702   6.844 -0.3196  0.1471 -0.0416
  161SAPE   H3R18037   6.393   5.783   6.910 -1.7342  2.4357 -1.9582
  161SAPE   H3S18038   6.448   5.661   6.799 -1.1109 -2.8417  0.9062
  161SAPE   C2418039   6.279   5.602   6.927 -0.6674  0.9991 -0.1790
  161SAPE   H4R18040   6.213   5.539   6.863 -0.9535 -0.9860  1.9809
  161SAPE   H4S18041   6.208   5.648   6.999 -0.0835  0.6433  0.6209
  161SAPE   C2518042   6.372   5.507   6.994 -0.4970  0.1907 -0.4454
  161SAPE   H5R18043   6.422   5.435   6.927 -0.4638 -1.6734  1.5170
  161SAPE   C2618044   6.390   5.504   7.128 -0.3911 -0.5203  0.5788
  161SAPE   H6R18045   6.464   5.440   7.178  0.4217  0.1169  0.2157
  161SAPE   C2718046   6.317   5.600   7.221  0.3526  0.2147 -0.2728
  161SAPE   H7R18047   6.221   5.559   7.258 -0.0400  1.5053  0.1805
  161SAPE   H7S18048   6.297   5.701   7.179  1.1032  0.2985 -0.4380
  161SAPE   C2818049   6.406   5.621   7.341  1.0138 -0.1773  0.0034
  161SAPE   H8R18050   6.512   5.615   7.312  1.5130 -3.2300  2.2492
  161SAPE   C2918051   6.375   5.641   7.469  0.4543  0.0482 -0.3270
  161SAPE   H9R18052   6.456   5.652   7.542 -1.7027  0.7321  2.0124
  161SAPE  C21018053   6.233   5.646   7.520 -0.0838  0.2939  0.6798
  161SAPE  H10R18054   6.160   5.583   7.465 -0.2675 -0.9947  2.3662
  161SAPE  H10S18055   6.191   5.749   7.519 -0.2538  0.2231 -0.1153
  161SAPE  C21118056   6.243   5.603   7.667  0.3949  0.2837  0.1249
  161SAPE  H11R18057   6.309   5.518   7.692 -0.2727 -0.3725 -0.3312
  161SAPE  C21218058   6.171   5.644   7.772 -0.6993 -0.1085 -0.0110
  161SAPE  H12R18059   6.202   5.615   7.873  0.3698  0.9282 -0.0355
  161SAPE  C21318060   6.074   5.763   7.776  0.5036  0.6687 -0.1589
  161SAPE  H13R18061   6.013   5.755   7.869 -0.1363  2.3756 -0.4101
  161SAPE  H13S18062   5.991   5.761   7.702 -2.4861 -1.1524  3.1160
  161SAPE  C21418063   6.132   5.903   7.770 -0.2194 -1.0693 -0.0540
  161SAPE  H14R18064   6.227   5.913   7.716  1.8859 -0.1459  3.6308
  161SAPE  C21518065   6.097   6.009   7.850 -0.2454 -0.6716  0.6002
  161SAPE  H15R18066   6.132   6.107   7.814  2.0092 -1.6259  0.1387
  161SAPE  C21618067   5.981   6.014   7.947  0.1290 -0.2728 -0.4615
  161SAPE  H16R18068   5.916   5.924   7.949  0.3831 -0.4182  2.7413
  161SAPE  H16S18069   5.921   6.104   7.921 -0.9621 -0.5288  1.0796
  161SAPE  C21718070   6.029   6.037   8.092 -0.4623 -0.1364  0.4477
  161SAPE  H17R18071   6.072   6.140   8.092 -0.4803 -0.1301  0.1169
  161SAPE  H17S18072   6.117   5.973   8.115 -0.1868  0.2242  0.4094
  161SAPE  C21818073   5.917   6.030   8.193 -0.5664  0.5658 -0.2111
  161SAPE  H18R18074   5.903   5.920   8.198  0.4803  0.4678  0.7990
  161SAPE  H18S18075   5.821   6.074   8.159 -0.9114  1.5221  1.9581
  161SAPE  C21918076   5.964   6.074   8.334 -0.2499 -0.0669 -0.2505
  161SAPE  H19R18077   5.999   6.179   8.334 -2.3927  0.6711  0.3324
  161SAPE  H19S18078   6.058   6.023   8.362 -0.9794 -0.1502  2.0992
  161SAPE  C22018079   5.853   6.066   8.437 -0.2947  0.5103  0.6258
  161SAPE  H20R18080   5.887   6.128   8.523 -1.6008  2.8939 -0.5244
  161SAPE  H20S18081   5.836   5.963   8.473  0.6812  0.7665  1.8711
  161SAPE  H20T18082   5.763   6.114   8.394  0.9530  1.7709 -0.6697
  161SAPE   C3318083   6.516   6.105   6.872 -0.5585  0.0939  0.2713
  161SAPE   H3X18084   6.597   6.036   6.842  0.9754  1.5879  0.9214
  161SAPE   H3Y18085   6.423   6.043   6.873 -0.3940 -0.1749 -0.5527
  161SAPE   C3418086   6.544   6.144   7.021 -0.4678 -0.2462 -0.1252
  161SAPE   H4X18087   6.477   6.224   7.058  0.9003  0.5677  0.6575
  161SAPE   H4Y18088   6.652   6.163   7.040 -0.3456 -1.0096 -0.0314
  161SAPE   C3518089   6.515   6.030   7.119  0.2477  0.0909  0.3185
  161SAPE   H5X18090   6.586   5.946   7.105  2.2316  1.6845  0.5519
  161SAPE   H5Y18091   6.416   5.985   7.093  0.0880  0.2082  0.7235
  161SAPE   C3618092   6.509   6.062   7.266 -0.2192 -0.1051  0.0102
  161SAPE   H6X18093   6.431   6.139   7.285 -0.3169  0.0708 -1.0866
  161SAPE   H6Y18094   6.610   6.101   7.289 -0.6512  1.7069 -1.0602
  161SAPE   C3718095   6.490   5.943   7.372 -0.4553 -0.3138  0.1662
  161SAPE   H7X18096   6.577   5.875   7.359  0.0110  0.6923 -2.2196
  161SAPE   H7Y18097   6.406   5.881   7.335  0.7469 -1.4835 -0.6328
  161SAPE   C3818098   6.457   5.988   7.512  0.3573 -0.7888 -0.2147
  161SAPE   H8X18099   6.468   5.905   7.585 -1.5756 -0.4411  0.4935
  161SAPE   H8Y18100   6.352   6.025   7.509 -0.0554 -2.0276 -2.7680
  161SAPE   C3918101   6.549   6.100   7.567 -0.5115  0.1723  0.3508
  161SAPE   H9X18102   6.533   6.183   7.495 -0.1300 -0.1199 -0.0697
  161SAPE   H9Y18103   6.655   6.071   7.578 -0.6687 -0.6868 -0.2990
  161SAPE  C31018104   6.509   6.155   7.703  0.5654 -0.2883  0.1028
  161SAPE  H10X18105   6.398   6.163   7.699  0.6552  2.1148  1.7407
  161SAPE  H10Y18106   6.557   6.255   7.712  0.4047 -0.2175  0.1766
  161SAPE  C31118107   6.543   6.063   7.818 -0.2354  0.1481  0.8069
  161SAPE  H11X18108   6.652   6.047   7.809  0.0076  2.0843  0.0395
  161SAPE  H11Y18109   6.487   5.969   7.803 -0.2194  0.2184  0.3031
  161SAPE  C31218110   6.508   6.117   7.960  0.6749  0.6348  0.0094
  161SAPE  H12X18111   6.401   6.147   7.959  0.3940 -0.3030  1.1336
  161SAPE  H12Y18112   6.568   6.210   7.971 -1.5811  2.0111  0.9427
  161SAPE  C31318113   6.529   6.025   8.080 -0.4603 -0.2587 -0.1455
  161SAPE  H13X18114   6.491   6.095   8.158 -3.4417 -2.7344  0.7256
  161SAPE  H13Y18115   6.638   6.002   8.087 -0.7132 -0.6592  4.0346
  161SAPE  C31418116   6.443   5.902   8.073 -0.7125  0.3768  0.6371
  161SAPE  H14X18117   6.464   5.851   7.977  0.7394  2.1013  0.0101
  161SAPE  H14Y18118   6.338   5.938   8.078 -1.2336 -0.8235 -1.3749
  161SAPE  C31518119   6.473   5.811   8.192 -0.4999  0.9803 -0.4673
  161SAPE  H15X18120   6.578   5.773   8.190 -1.1054 -0.7683 -0.1158
  161SAPE  H15Y18121   6.416   5.716   8.196  0.4793  0.4391  2.0035
  161SAPE  C31618122   6.450   5.870   8.331  0.3751 -0.4218 -0.6312
  161SAPE  H16X18123   6.508   5.965   8.332  0.6490 -0.5822  1.0414
  161SAPE  H16Y18124   6.485   5.807   8.415 -0.4004 -2.6641 -1.9588
  161SAPE  C31718125   6.310   5.914   8.371 -0.4821  0.2899  0.5027
  161SAPE  H17X18126   6.258   5.817   8.391 -0.3059 -0.4176 -2.3077
  161SAPE  H17Y18127   6.266   5.974   8.289 -1.0451  0.1356  0.6876
  161SAPE  C31818128   6.312   6.003   8.501 -0.1763 -0.6091 -0.4102
  161SAPE  H18X18129   6.206   6.010   8.533 -0.1322  0.1140 -0.4038
  161SAPE  H18Y18130   6.369   6.097   8.483 -0.8807 -0.0360  0.3013
  161SAPE  H18Z18131   6.377   5.948   8.572 -0.9092 -1.0590 -0.0835
  162SAPE     N18132   5.453   2.129   6.168  0.3378 -0.4194  0.4738
  162SAPE   HN118133   5.452   2.232   6.184 -1.0393 -0.3058 -0.2291
  162SAPE   HN218134   5.553   2.106   6.182  0.9062  3.0283  2.6869
  162SAPE   HN318135   5.418   2.114   6.071  0.0786 -3.2445  0.9651
  162SAPE   C1218136   5.371   2.058   6.273  0.0732 -0.1030  0.5891
  162SAPE  H12A18137   5.277   2.111   6.299  0.4969  2.3188 -2.4709
  162SAPE  H12B18138   5.430   2.059   6.367  0.1697  0.7938  0.5245
  162SAPE   C1118139   5.321   1.918   6.235 -0.5245  0.3419  0.0804
  162SAPE  H11A18140   5.260   1.885   6.322 -1.8790 -2.6702 -1.9364
  162SAPE  H11B18141   5.408   1.851   6.219 -0.5341  0.0856  1.0654
  162SAPE     P18142   5.112   1.983   6.100  0.5012  0.3665 -0.2648
  162SAPE   O1318143   5.130   2.121   6.043  0.0088  0.4593  0.1258
  162SAPE   O1418144   5.025   1.879   6.036 -0.2211  0.0019  0.4920
  162SAPE   O1218145   5.259   1.923   6.105 -0.1712 -0.2664 -0.4235
  162SAPE   O1118146   5.063   1.995   6.248 -0.4276  0.0551  0.2548
  162SAPE    C118147   4.932   2.002   6.293  0.0568 -0.2555 -0.1880
  162SAPE    HA18148   4.853   1.977   6.219  0.7800 -2.2959 -0.2832
  162SAPE    HB18149   4.932   1.924   6.371  1.5887  0.0946  0.1749
  162SAPE    C218150   4.903   2.138   6.352  0.0976 -0.7068 -0.8329
  162SAPE    HS18151   4.901   2.198   6.259 -0.8270  1.0210  0.2689
  162SAPE   O2118152   5.009   2.175   6.432  0.7197 -0.0658 -0.2642
  162SAPE   C2118153   5.020   2.306   6.451  0.4360  0.7321 -0.3267
  162SAPE   O2218154   4.949   2.395   6.402 -0.5685  0.0925  0.4642
  162SAPE   C2218155   5.133   2.325   6.551  0.1508 -0.2725 -0.0752
  162SAPE   H2R18156   5.223   2.321   6.487 -0.2025 -0.8384 -0.5434
  162SAPE   H2S18157   5.125   2.422   6.604 -1.7437  0.2559 -1.2629
  162SAPE    C318158   4.760   2.133   6.414  0.0694 -0.2703  0.0209
  162SAPE    HX18159   4.765   2.061   6.499  2.9031 -0.4210 -0.2381
  162SAPE    HY18160   4.695   2.075   6.345 -1.3019 -0.4042  1.3837
  162SAPE   O3118161   4.697   2.259   6.452  0.1763  0.2666  0.8533
  162SAPE   C3118162   4.598   2.308   6.381 -0.1493 -0.0920  0.0432
  162SAPE   O3218163   4.548   2.260   6.282  0.0225 -0.6167  0.3000
  162SAPE   C3218164   4.545   2.438   6.435 -0.0934 -0.0773 -0.0038
  162SAPE   H2X18165   4.442   2.439   6.396  0.9757  0.4130 -2.9517
  162SAPE   H2Y18166   4.601   2.518   6.382 -0.5987  0.3780  0.1577
  162SAPE   C2318167   5.138   2.216   6.661  0.1112 -0.7698  0.5041
  162SAPE   H3R18168   5.234   2.223   6.716  0.6171  1.4861 -0.6008
  162SAPE   H3S18169   5.133   2.117   6.612 -1.5251 -0.0852 -0.7470
  162SAPE   C2418170   5.018   2.243   6.756  0.1014  0.3081  0.5782
  162SAPE   H4R18171   4.922   2.235   6.701  0.2667  0.4914  0.2636
  162SAPE   H4S18172   5.021   2.348   6.793 -0.4337 -0.0905  1.7959
  162SAPE   C2518173   5.017   2.144   6.868  0.0212  0.4742  0.2564
  162SAPE   H5R18174   4.987   2.041   6.848 -1.3122  1.1041 -1.1188
  162SAPE   C2618175   5.059   2.165   6.993 -0.4734  0.2444  0.2491
  162SAPE   H6R18176   5.051   2.080   7.062 -1.4373  0.0488 -0.0936
  162SAPE   C2718177   5.099   2.300   7.044 -0.4853 -0.0135 -0.3965
  162SAPE   H7R18178   5.143   2.369   6.968 -0.6434 -0.9885 -1.4001
  162SAPE   H7S18179   5.185   2.289   7.114 -0.2261 -1.1603 -0.8708
  162SAPE   C2818180   4.991   2.392   7.103  0.0625  0.9151 -0.3333
  162SAPE   H8R18181   4.979   2.486   7.047 -1.2401  0.7092 -0.4119
  162SAPE   C2918182   4.920   2.377   7.218  0.2455 -0.3065 -0.0274
  162SAPE   H9R18183   4.846   2.449   7.255  2.3495  2.0363 -0.2695
  162SAPE  C21018184   4.927   2.261   7.312  0.2839 -0.2521 -0.0330
  162SAPE  H10R18185   4.965   2.169   7.264 -1.3985 -1.3838  0.7284
  162SAPE  H10S18186   4.824   2.241   7.351  0.2459  2.7946  1.6154
  162SAPE  C21118187   5.006   2.290   7.437 -0.8354 -0.8535  0.5517
  162SAPE  H11R18188   5.089   2.218   7.450 -0.1173 -0.0657  0.3556
  162SAPE  C21218189   4.978   2.379   7.533 -0.6365  0.3351 -1.2213
  162SAPE  H12R18190   5.053   2.384   7.614 -0.0229 -1.3345 -1.6653
  162SAPE  C21318191   4.865   2.482   7.549  0.9517  0.4863  0.0678
  162SAPE  H13R18192   4.798   2.491   7.461 -0.2719  0.6404  1.0069
  162SAPE  H13S18193   4.908   2.581   7.575  1.2772 -0.0662  1.7165
  162SAPE  C21418194   4.773   2.437   7.666 -0.4465  0.2068  0.9308
  162SAPE  H14R18195   4.764   2.329   7.684 -1.4128 -0.1517 -1.4359
  162SAPE  C21518196   4.700   2.521   7.744 -1.2231 -0.0891  0.4320
  162SAPE  H15R18197   4.629   2.471   7.811 -1.3986  0.7090  0.8491
  162SAPE  C21618198   4.703   2.678   7.730  0.4352 -0.3869 -0.4244
  162SAPE  H16R18199   4.601   2.714   7.705 -0.1030 -0.8875  1.0125
  162SAPE  H16S18200   4.763   2.719   7.646  3.1011 -0.2287  1.4941
  162SAPE  C21718201   4.751   2.745   7.863  0.4992  0.0465  0.0538
  162SAPE  H17R18202   4.705   2.695   7.951  0.7895 -2.6242 -1.2822
  162SAPE  H17S18203   4.727   2.853   7.860 -0.8633 -0.2970 -3.4430
  162SAPE  C21818204   4.898   2.718   7.869 -0.1693  0.0248 -0.7109
  162SAPE  H18R18205   4.946   2.744   7.772 -0.2048  2.0939 -0.2012
  162SAPE  H18S18206   4.916   2.614   7.904  0.3224  1.2652  3.0210
  162SAPE  C21918207   4.966   2.806   7.977 -0.4867  0.4790 -0.0732
  162SAPE  H19R18208   5.072   2.772   7.979 -0.0217  1.9722  1.0813
  162SAPE  H19S18209   4.926   2.774   8.076  0.7264 -0.8515 -0.0032
  162SAPE  C22018210   4.960   2.961   7.958 -0.4220 -0.0993 -0.0975
  162SAPE  H20R18211   5.030   3.017   8.024  1.1637 -1.5786 -0.4903
  162SAPE  H20S18212   4.858   2.995   7.983 -0.2658 -0.8905  1.7450
  162SAPE  H20T18213   4.979   2.988   7.852  1.2108 -0.0849  0.1764
  162SAPE   C3318214   4.559   2.456   6.590  0.4454 -0.6113 -0.1164
  162SAPE   H3X18215   4.521   2.559   6.606  2.3391 -0.1231  1.3526
  162SAPE   H3Y18216   4.664   2.442   6.624  1.0395 -0.0575 -1.6911
  162SAPE   C3418217   4.468   2.364   6.670 -0.8620  0.1799 -0.6303
  162SAPE   H4X18218   4.482   2.259   6.637 -1.9144 -0.6327  1.4542
  162SAPE   H4Y18219   4.364   2.393   6.646 -1.1362 -0.1651  0.1357
  162SAPE   C3518220   4.481   2.348   6.824 -0.2407  0.3490 -0.2003
  162SAPE   H5X18221   4.402   2.284   6.867  1.1135 -1.9078 -0.9717
  162SAPE   H5Y18222   4.470   2.448   6.871  0.2243 -1.8175  4.8441
  162SAPE   C3618223   4.609   2.283   6.868 -1.2270 -0.1048 -0.3147
  162SAPE   H6X18224   4.693   2.340   6.823  0.0684 -0.6531  1.3650
  162SAPE   H6Y18225   4.609   2.179   6.829 -0.0138  0.1545 -1.0556
  162SAPE   C3718226   4.628   2.281   7.024 -0.2601 -0.8712  0.4103
  162SAPE   H7X18227   4.679   2.374   7.057 -3.1685  0.7899  0.4275
  162SAPE   H7Y18228   4.695   2.194   7.036  1.6029  0.5878  0.8192
  162SAPE   C3818229   4.504   2.265   7.117 -0.1226 -0.0524  0.3695
  162SAPE   H8X18230   4.445   2.188   7.063  0.4481 -0.8134  0.8100
  162SAPE   H8Y18231   4.434   2.351   7.121 -0.3969 -0.2260 -0.7121
  162SAPE   C3918232   4.543   2.217   7.260  0.2323 -0.1745  0.0711
  162SAPE   H9X18233   4.613   2.289   7.308 -0.3120 -0.4018  1.2140
  162SAPE   H9Y18234   4.598   2.121   7.258  1.4925  0.5450 -0.6239
  162SAPE  C31018235   4.423   2.217   7.355  0.7681  0.1422 -0.5834
  162SAPE  H10X18236   4.343   2.144   7.331  0.3907  0.0510  0.8536
  162SAPE  H10Y18237   4.378   2.318   7.349  0.0243 -0.0297  1.3814
  162SAPE  C31118238   4.473   2.187   7.499 -0.4181 -0.0466  0.8618
  162SAPE  H11X18239   4.568   2.243   7.511  0.1470  0.0156 -3.3459
  162SAPE  H11Y18240   4.498   2.079   7.509 -0.8541 -0.1134  1.2975
  162SAPE  C31218241   4.359   2.227   7.598 -0.3290  0.0590  0.5084
  162SAPE  H12X18242   4.265   2.176   7.569 -0.4596  0.2085  0.6622
  162SAPE  H12Y18243   4.340   2.335   7.580  1.0250  0.2737  0.3033
  162SAPE  C31318244   4.372   2.201   7.746  0.3487  0.6357  0.8075
  162SAPE  H13X18245   4.277   2.236   7.792  0.0795  0.2150  0.5734
  162SAPE  H13Y18246   4.460   2.258   7.786  3.3060 -0.7543 -3.4594
  162SAPE  C31418247   4.388   2.050   7.791 -0.6755  0.1729  0.8852
  162SAPE  H14X18248   4.475   2.006   7.737 -1.8251  1.8738 -2.5014
  162SAPE  H14Y18249   4.291   2.003   7.764  1.6853 -4.1157 -0.6248
  162SAPE  C31518250   4.410   2.033   7.945  0.1034  0.2334 -0.2913
  162SAPE  H15X18251   4.479   2.107   7.990  1.3514 -0.0664 -1.7072
  162SAPE  H15Y18252   4.456   1.932   7.952  0.4829  0.3430 -1.1826
  162SAPE  C31618253   4.278   2.013   8.026  0.1737 -0.2255 -0.0794
  162SAPE  H16X18254   4.211   1.933   7.988  0.2099 -0.0562 -0.4967
  162SAPE  H16Y18255   4.221   2.107   8.006  2.3178  0.8482 -1.2795
  162SAPE  C31718256   4.291   1.993   8.175 -0.1260  0.5599 -0.1229
  162SAPE  H17X18257   4.348   2.081   8.212 -0.8234  0.4972  1.1296
  162SAPE  H17Y18258   4.358   1.904   8.177 -0.5717  0.1034 -3.5397
  162SAPE  C31818259   4.149   1.971   8.237 -0.0171 -0.4429  0.6225
  162SAPE  H18X18260   4.072   1.918   8.177 -1.4860  1.2754  0.9437
  162SAPE  H18Y18261   4.109   2.073   8.256  1.0794 -0.1885  1.6555
  162SAPE  H18Z18262   4.157   1.918   8.335 -1.8534 -4.0728 -1.0938
  163SAPE     N18263   3.308   0.061   6.639  0.5133  0.2078  0.1976
  163SAPE   HN118264   3.218   0.075   6.690  0.8732  0.2075  0.8431
  163SAPE   HN218265   3.291  -0.007   6.562 -0.3800 -0.1521  0.7006
  163SAPE   HN318266   3.360   0.010   6.714  1.7568  2.1883  0.7084
  163SAPE   C1218267   3.388   0.184   6.612 -0.0175  0.0242 -0.1008
  163SAPE  H12A18268   3.329   0.272   6.577 -1.0996 -0.7271 -0.2070
  163SAPE  H12B18269   3.453   0.156   6.526  1.1932  1.6095  0.2657
  163SAPE   C1118270   3.463   0.219   6.743 -0.4161  0.0812  0.4212
  163SAPE  H11A18271   3.377   0.223   6.813 -0.8187 -4.3184  0.3457
  163SAPE  H11B18272   3.512   0.318   6.746 -1.5229  0.6117  1.2469
  163SAPE     P18273   3.682   0.085   6.739 -0.0640 -0.1852 -0.4229
  163SAPE   O1318274   3.720  -0.059   6.749  0.4286 -0.1465  0.0881
  163SAPE   O1418275   3.722   0.179   6.626  0.3016 -0.4976  0.4209
  163SAPE   O1218276   3.535   0.102   6.788  0.0511 -0.0318 -0.0067
  163SAPE   O1118277   3.748   0.157   6.860  0.0331  0.0175  0.5278
  163SAPE    C118278   3.763   0.087   6.988 -0.2963 -0.3359 -0.0248
  163SAPE    HA18279   3.725  -0.017   6.989  0.9734 -0.8220 -1.2501
  163SAPE    HB18280   3.869   0.068   7.016  0.7195  1.2619 -2.6063
  163SAPE    C218281   3.684   0.170   7.086  0.0728 -0.1951 -0.3718
  163SAPE    HS18282   3.585   0.184   7.037 -1.1907  0.0754  2.1332
  163SAPE   O2118283   3.755   0.295   7.112  0.6824 -0.2412 -0.8069
  163SAPE   C2118284   3.668   0.394   7.150 -0.7002 -0.3349  0.5085
  163SAPE   O2218285   3.549   0.384   7.143 -0.0762 -0.2363 -0.4788
  163SAPE   C2218286   3.750   0.512   7.197  0.3122  0.6063 -0.2406
  163SAPE   H2R18287   3.851   0.503   7.153 -0.7738 -2.1385 -2.2956
  163SAPE   H2S18288   3.715   0.601   7.140  1.0474  1.7032  0.9771
  163SAPE    C318289   3.670   0.092   7.224  0.2954 -0.0782  0.0206
  163SAPE    HX18290   3.774   0.077   7.260  1.3971  1.4058 -2.4251
  163SAPE    HY18291   3.633  -0.012   7.207 -0.8598  0.1075  1.3523
  163SAPE   O3118292   3.589   0.154   7.326  0.3212 -0.0153 -0.6556
  163SAPE   C3118293   3.560   0.101   7.441 -0.4293 -0.8222 -0.2283
  163SAPE   O3218294   3.601  -0.008   7.479  0.7568  0.0403  0.4263
  163SAPE   C3218295   3.474   0.200   7.519 -0.0842 -0.2638 -0.7611
  163SAPE   H2X18296   3.373   0.202   7.472 -0.4071  0.9125 -0.0424
  163SAPE   H2Y18297   3.508   0.305   7.509  1.5876 -0.8454 -1.2891
  163SAPE   C2318298   3.769   0.533   7.348  0.3618  0.2998 -0.4092
  163SAPE   H3R18299   3.684   0.496   7.409  1.3094 -1.3340 -0.0504
  163SAPE   H3S18300   3.779   0.643   7.358 -0.3667  0.2001  1.7569
  163SAPE   C2418301   3.898   0.457   7.408 -0.6097  0.1824  0.3312
  163SAPE   H4R18302   3.991   0.464   7.347  0.5246  3.5339  2.3111
  163SAPE   H4S18303   3.867   0.351   7.420  1.2946 -0.3504  0.7731
  163SAPE   C2518304   3.931   0.521   7.544 -0.4936  0.0391  0.8888
  163SAPE   H5R18305   4.004   0.602   7.546 -0.9579  0.4471  1.3160
  163SAPE   C2618306   3.903   0.458   7.656  0.2013 -0.0737  0.7445
  163SAPE   H6R18307   3.932   0.512   7.748  1.7902 -0.0181  0.2157
  163SAPE   C2718308   3.833   0.327   7.684 -0.8637  0.7431  0.0327
  163SAPE   H7R18309   3.757   0.308   7.606  0.5383 -2.7600 -0.5593
  163SAPE   H7S18310   3.773   0.321   7.778 -0.8372 -1.1259 -0.0567
  163SAPE   C2818311   3.928   0.213   7.688 -0.4366  0.1608  0.3355
  163SAPE   H8R18312   3.990   0.199   7.598 -0.2374 -3.1892  0.9279
  163SAPE   C2918313   3.955   0.130   7.790 -0.2244 -0.5084  0.3897
  163SAPE   H9R18314   4.026   0.047   7.780  2.4097  1.4184  2.5167
  163SAPE  C21018315   3.889   0.132   7.928  0.3398 -0.2598 -0.4596
  163SAPE  H10R18316   3.885   0.233   7.972  1.6344  0.0834 -1.1020
  163SAPE  H10S18317   3.964   0.086   7.996 -0.9118 -1.1012  0.3866
  163SAPE  C21118318   3.753   0.063   7.939  0.2936 -0.3721 -0.0791
  163SAPE  H11R18319   3.726   0.007   7.849 -3.0996 -0.6463  1.0612
  163SAPE  C21218320   3.670   0.074   8.038  0.2207  0.1565 -0.1815
  163SAPE  H12R18321   3.579   0.011   8.034  1.1812 -1.5839  3.4828
  163SAPE  C21318322   3.694   0.148   8.161 -0.4978 -0.3037 -0.2824
  163SAPE  H13R18323   3.781   0.217   8.158  0.7658 -1.8165  0.7851
  163SAPE  H13S18324   3.746   0.060   8.204  0.9702  1.0239  0.7264
  163SAPE  C21418325   3.577   0.194   8.238 -0.0977 -0.0304 -0.0536
  163SAPE  H14R18326   3.552   0.301   8.231  1.2394  0.4038  1.5173
  163SAPE  C21518327   3.484   0.111   8.294  0.2190 -0.0438 -0.1393
  163SAPE  H15R18328   3.395   0.161   8.335  0.4590 -0.4546  0.9045
  163SAPE  C21618329   3.475  -0.041   8.311  0.4332 -0.9633  0.2916
  163SAPE  H16R18330   3.533  -0.089   8.229  1.1930  0.7886 -0.2078
  163SAPE  H16S18331   3.369  -0.076   8.302 -0.8113  2.2471  1.8336
  163SAPE  C21718332   3.510  -0.083   8.451  0.3664 -0.0213  0.0317
  163SAPE  H17R18333   3.443  -0.029   8.521 -0.2888 -1.1588  0.2802
  163SAPE  H17S18334   3.611  -0.052   8.484 -0.5160  1.0359  1.8045
  163SAPE  C21818335   3.510  -0.229   8.492  1.3565 -0.1489 -0.7212
  163SAPE  H18R18336   3.592  -0.273   8.431  1.0685 -1.2882 -0.3052
  163SAPE  H18S18337   3.418  -0.271   8.447 -0.5612  2.6674  0.4341
  163SAPE  C21918338   3.536  -0.245   8.638  0.4531 -0.6714 -0.3940
  163SAPE  H19R18339   3.628  -0.193   8.673  1.0878 -0.5745 -2.1736
  163SAPE  H19S18340   3.546  -0.355   8.654 -0.1792 -0.6844 -0.0620
  163SAPE  C22018341   3.421  -0.201   8.732  0.3373  0.0116  0.3721
  163SAPE  H20R18342   3.413  -0.091   8.727  0.2174  0.0317  0.9799
  163SAPE  H20S18343   3.448  -0.245   8.831  3.1545  2.7335  0.8838
  163SAPE  H20T18344   3.325  -0.250   8.705 -0.7906  2.8017 -0.7647
  163SAPE   C3318345   3.462   0.174   7.671 -0.3682  0.0749  0.3501
  163SAPE   H3X18346   3.554   0.203   7.726  0.3974 -0.6542 -0.5172
  163SAPE   H3Y18347   3.442   0.065   7.686 -1.7775  0.3758  0.7471
  163SAPE   C3418348   3.346   0.248   7.730 -0.0605  0.0790 -0.6314
  163SAPE   H4X18349   3.263   0.221   7.661  0.7426  0.6220 -1.8067
  163SAPE   H4Y18350   3.348   0.357   7.712 -0.8723  0.3899  1.0358
  163SAPE   C3518351   3.309   0.204   7.875  0.3621  0.4326 -0.8489
  163SAPE   H5X18352   3.254   0.276   7.938 -0.3860 -0.9052  0.0590
  163SAPE   H5Y18353   3.398   0.171   7.931 -0.5430  1.8381  1.4890
  163SAPE   C3618354   3.226   0.078   7.888  1.0394 -0.0907 -0.4907
  163SAPE   H6X18355   3.278  -0.004   7.834  2.3765  2.5962 -3.4064
  163SAPE   H6Y18356   3.134   0.096   7.828  1.2926  1.6231 -0.3807
  163SAPE   C3718357   3.200   0.033   8.032 -0.2711 -0.0206 -0.1399
  163SAPE   H7X18358   3.293   0.013   8.090 -0.5899 -0.9130  0.0745
  163SAPE   H7Y18359   3.151  -0.066   8.016  0.4990 -0.9721  3.0433
  163SAPE   C3818360   3.109   0.124   8.105 -0.3722 -0.3192  1.0069
  163SAPE   H8X18361   3.010   0.139   8.057  0.8519  0.6137 -1.3263
  163SAPE   H8Y18362   3.148   0.227   8.121 -2.6084  0.9914 -1.5777
  163SAPE   C3918363   3.060   0.060   8.240 -0.1078  0.0910  0.5568
  163SAPE   H9X18364   3.144   0.020   8.302 -0.0454 -0.4727  0.1055
  163SAPE   H9Y18365   2.995  -0.025   8.212 -1.5434  1.6993 -1.1166
  163SAPE  C31018366   2.985   0.158   8.325  0.9173 -0.0719  0.3079
  163SAPE  H10X18367   2.927   0.093   8.394  0.7450 -1.0811 -0.7830
  163SAPE  H10Y18368   2.912   0.208   8.258  0.4438  1.2812  1.7988
  163SAPE  C31118369   3.076   0.247   8.411  0.2936 -0.0164  0.1395
  163SAPE  H11X18370   3.137   0.316   8.349 -2.2549  1.4930 -0.7308
  163SAPE  H11Y18371   3.135   0.171   8.468  1.6340  1.1441  0.3045
  163SAPE  C31218372   3.007   0.345   8.507 -0.7988 -0.7905  0.4302
  163SAPE  H12X18373   2.952   0.303   8.594  0.1427 -0.2209  1.3128
  163SAPE  H12Y18374   2.946   0.419   8.451  0.2917 -0.0294  0.2340
  163SAPE  C31318375   3.115   0.424   8.578  0.3409  0.2001 -0.3854
  163SAPE  H13X18376   3.178   0.491   8.516  1.5473 -1.3689 -0.8887
  163SAPE  H13Y18377   3.181   0.355   8.635 -2.6032 -1.5250  1.0863
  163SAPE  C31418378   3.051   0.514   8.689  0.0771 -0.4171 -0.3074
  163SAPE  H14X18379   2.998   0.456   8.768 -0.1366 -0.4888 -0.5005
  163SAPE  H14Y18380   2.974   0.577   8.640 -0.5842 -1.3908 -0.5413
  163SAPE  C31518381   3.156   0.605   8.751 -0.1325  0.2488  0.4276
  163SAPE  H15X18382   3.191   0.683   8.681 -0.5701  1.0624  1.1058
  163SAPE  H15Y18383   3.249   0.547   8.771 -1.0311 -1.5307 -0.4258
  163SAPE  C31618384   3.115   0.667   8.890 -0.5785 -0.7958  0.4502
  163SAPE  H16X18385   3.096   0.573   8.946 -0.4683  0.1046  2.0182
  163SAPE  H16Y18386   3.024   0.731   8.883 -0.4440 -0.5495  0.9397
  163SAPE  C31718387   3.221   0.742   8.962 -0.2709 -0.2436  0.7203
  163SAPE  H17X18388   3.226   0.847   8.929 -2.0118  0.2752  2.0241
  163SAPE  H17Y18389   3.313   0.687   8.931 -0.0174  1.1888 -1.0706
  163SAPE  C31818390   3.219   0.739   9.116 -0.6354  0.6412  0.4766
  163SAPE  H18X18391   3.131   0.795   9.155  0.0084  0.2700  2.5071
  163SAPE  H18Y18392   3.322   0.766   9.146  0.4784 -0.4438 -2.2444
  163SAPE  H18Z18393   3.217   0.632   9.148 -0.3483  0.7593  0.8892
  164SAPE     N18394   6.694   4.199   5.892 -0.2433 -0.0767 -0.0130
  164SAPE   HN118395   6.797   4.186   5.894 -0.5838 -3.0265  0.3106
  164SAPE   HN218396   6.679   4.109   5.843  0.9629 -0.5946  0.5547
  164SAPE   HN318397   6.681   4.278   5.826  2.1355 -0.7069 -1.2939
  164SAPE   C1218398   6.636   4.204   6.028  0.2007  0.5928  0.4570
  164SAPE  H12A18399   6.527   4.213   6.006 -0.1977  0.4153  2.2942
  164SAPE  H12B18400   6.656   4.296   6.086 -0.5090  0.3897  1.0319
  164SAPE   C1118401   6.675   4.081   6.101  0.0917  0.9656  0.3237
  164SAPE  H11A18402   6.597   4.008   6.070  0.8264  0.5935 -0.6549
  164SAPE  H11B18403   6.654   4.086   6.210  1.8217  2.1967  0.6211
  164SAPE     P18404   6.937   4.056   6.150 -0.5546  0.4185 -0.0883
  164SAPE   O1318405   6.999   3.923   6.181  0.8699  0.4893  0.3029
  164SAPE   O1418406   7.027   4.146   6.073  0.4220  0.2895 -0.2996
  164SAPE   O1218407   6.801   4.029   6.067  0.1494 -0.1277  0.4096
  164SAPE   O1118408   6.885   4.118   6.285  0.7712 -0.0245 -0.3956
  164SAPE    C118409   6.947   4.236   6.348  0.3149 -0.0748 -0.7163
  164SAPE    HA18410   6.933   4.320   6.276 -1.3279  0.1317 -0.1711
  164SAPE    HB18411   6.887   4.255   6.440 -1.9171 -0.2077 -2.1108
  164SAPE    C218412   7.096   4.218   6.398 -0.3907 -0.5189  0.4396
  164SAPE    HS18413   7.152   4.226   6.302 -0.2565 -1.4111  0.4359
  164SAPE   O2118414   7.123   4.089   6.457  0.3400  0.0668  0.3383
  164SAPE   C2118415   7.249   4.056   6.459  0.0933 -0.5363  0.9397
  164SAPE   O2218416   7.339   4.116   6.403  0.3587 -0.0857 -0.4048
  164SAPE   C2218417   7.246   3.906   6.497  0.2707 -0.0506  0.1101
  164SAPE   H2R18418   7.198   3.887   6.596  0.3873 -1.0692 -0.0197
  164SAPE   H2S18419   7.177   3.854   6.428  0.4857 -0.9016  0.5204
  164SAPE    C318420   7.156   4.350   6.470 -0.1890  0.3851 -0.5396
  164SAPE    HX18421   7.131   4.442   6.413 -0.5023  0.2084 -0.6844
  164SAPE    HY18422   7.267   4.346   6.475 -0.2481  1.2221  2.8289
  164SAPE   O3118423   7.105   4.365   6.604  0.2302 -0.1640 -1.0595
  164SAPE   C3118424   6.998   4.439   6.633  0.2705 -0.6341  0.5831
  164SAPE   O3218425   6.927   4.501   6.555 -0.2913 -0.3828  0.4629
  164SAPE   C3218426   6.964   4.417   6.778 -0.2004 -0.6169 -0.5046
  164SAPE   H2X18427   7.062   4.426   6.830 -1.2457 -0.0372  1.3928
  164SAPE   H2Y18428   6.904   4.326   6.800  0.8640 -0.7405  2.0318
  164SAPE   C2318429   7.390   3.846   6.493  1.1229 -0.2370 -0.5077
  164SAPE   H3R18430   7.457   3.892   6.417  1.1764 -1.3505 -1.1444
  164SAPE   H3S18431   7.375   3.739   6.469  0.7411 -0.3855  0.3787
  164SAPE   C2418432   7.458   3.857   6.629  0.2421 -0.5048  0.2270
  164SAPE   H4R18433   7.439   3.963   6.656 -1.6031 -1.3313  2.3832
  164SAPE   H4S18434   7.568   3.841   6.624  0.1495 -1.2745  0.5011
  164SAPE   C2518435   7.406   3.777   6.751  0.4876  0.3653  0.1344
  164SAPE   H5R18436   7.338   3.694   6.726  2.5485 -1.6299  0.9969
  164SAPE   C2618437   7.429   3.803   6.883 -0.1052 -0.2928 -0.0933
  164SAPE   H6R18438   7.383   3.746   6.965 -0.8448  2.3251  1.3952
  164SAPE   C2718439   7.528   3.906   6.934 -0.2964 -0.2896  0.2280
  164SAPE   H7R18440   7.462   3.965   7.001  1.9613  2.3929  0.1732
  164SAPE   H7S18441   7.559   3.985   6.863 -1.2035  0.3676  0.5638
  164SAPE   C2818442   7.649   3.840   6.993 -0.4964 -0.0203  0.4087
  164SAPE   H8R18443   7.703   3.788   6.912 -0.7054  1.6800 -0.8515
  164SAPE   C2918444   7.687   3.830   7.123 -0.2468 -0.3813  0.4019
  164SAPE   H9R18445   7.773   3.770   7.157 -1.5952 -0.8006  3.2279
  164SAPE  C21018446   7.608   3.890   7.238  0.8649  0.5289  0.5344
  164SAPE  H10R18447   7.562   3.809   7.299  0.0347 -0.1004 -0.8973
  164SAPE  H10S18448   7.520   3.946   7.201 -0.8976 -1.5793  1.4202
  164SAPE  C21118449   7.686   3.972   7.336 -0.2565 -0.2829  0.8328
  164SAPE  H11R18450   7.744   4.052   7.288  0.2149 -1.0600  0.0803
  164SAPE  C21218451   7.681   3.962   7.471  0.4120 -0.2670  0.0818
  164SAPE  H12R18452   7.761   4.017   7.523 -0.0637 -0.5379  1.1274
  164SAPE  C21318453   7.598   3.872   7.555 -0.1377 -0.0738  0.1678
  164SAPE  H13R18454   7.561   3.791   7.489  2.2186 -0.0072 -1.2925
  164SAPE  H13S18455   7.516   3.919   7.614 -1.6875  0.2732 -2.2084
  164SAPE  C21418456   7.675   3.810   7.665 -0.0996  0.6115 -0.3371
  164SAPE  H14R18457   7.785   3.819   7.658  0.0963 -1.3587  0.0227
  164SAPE  C21518458   7.619   3.731   7.763 -0.1843 -0.3069  0.3159
  164SAPE  H15R18459   7.689   3.676   7.828  0.9596  0.6637 -0.0506
  164SAPE  C21618460   7.480   3.689   7.787 -0.9272 -0.0469 -0.5466
  164SAPE  H16R18461   7.413   3.726   7.706  0.9064  2.8424 -0.8222
  164SAPE  H16S18462   7.439   3.737   7.878  2.8360  2.3335  0.0225
  164SAPE  C21718463   7.440   3.541   7.807 -0.0789 -0.0805  0.2579
  164SAPE  H17R18464   7.514   3.502   7.880  0.7752 -0.3418 -0.7214
  164SAPE  H17S18465   7.456   3.480   7.715 -0.1731 -0.5254  0.5342
  164SAPE  C21818466   7.295   3.526   7.861  0.9661  0.1364 -0.1250
  164SAPE  H18R18467   7.223   3.568   7.788  0.2587  0.2645  0.6357
  164SAPE  H18S18468   7.286   3.567   7.964 -0.7282 -2.1031  0.6698
  164SAPE  C21918469   7.266   3.378   7.874  0.2005  0.1644 -0.6684
  164SAPE  H19R18470   7.332   3.334   7.952  0.5849  1.1928 -0.4015
  164SAPE  H19S18471   7.285   3.338   7.772  1.0000  0.3474 -0.5927
  164SAPE  C22018472   7.128   3.334   7.910 -0.0567  0.4846  0.5000
  164SAPE  H20R18473   7.116   3.338   8.020  1.4707 -0.7209  0.7273
  164SAPE  H20S18474   7.114   3.228   7.877  0.3593 -0.1841  2.4164
  164SAPE  H20T18475   7.053   3.392   7.853 -0.2700 -0.7006 -0.4410
  164SAPE   C3318476   6.872   4.520   6.829  0.1351  0.4872  0.8357
  164SAPE   H3X18477   6.776   4.512   6.775  0.0774 -2.5690  1.3511
  164SAPE   H3Y18478   6.904   4.627   6.819 -2.2323  1.1806  0.5205
  164SAPE   C3418479   6.843   4.491   6.981  0.4523 -0.2974  0.2870
  164SAPE   H4X18480   6.781   4.570   7.029  1.3759  0.9496 -0.5211
  164SAPE   H4Y18481   6.943   4.501   7.030  1.5012 -0.0346 -1.8373
  164SAPE   C3518482   6.776   4.354   7.003  0.5812 -0.1323 -0.8320
  164SAPE   H5X18483   6.842   4.265   7.001 -0.9895 -1.3204 -2.3561
  164SAPE   H5Y18484   6.697   4.344   6.924  0.8960 -1.9325 -0.9436
  164SAPE   C3618485   6.715   4.341   7.142  0.3049 -0.7012 -0.0454
  164SAPE   H6X18486   6.645   4.255   7.144 -0.1462 -0.4237 -2.4794
  164SAPE   H6Y18487   6.642   4.423   7.158  0.6849 -0.6387  1.3918
  164SAPE   C3718488   6.813   4.317   7.257 -0.3517  0.0146  0.5442
  164SAPE   H7X18489   6.888   4.398   7.272 -0.0255  0.1432 -1.6451
  164SAPE   H7Y18490   6.870   4.225   7.235 -1.5113 -1.1918  2.4963
  164SAPE   C3818491   6.746   4.295   7.388  0.4110  0.4166 -0.2217
  164SAPE   H8X18492   6.683   4.204   7.381  0.1555  0.5908 -0.1577
  164SAPE   H8Y18493   6.672   4.375   7.409 -0.4344 -0.0254 -1.4647
  164SAPE   C3918494   6.847   4.279   7.508  0.0096  0.1872 -0.3010
  164SAPE   H9X18495   6.912   4.368   7.520 -0.2947  0.2236  1.1582
  164SAPE   H9Y18496   6.915   4.193   7.492 -0.1366 -0.3322  1.7142
  164SAPE  C31018497   6.755   4.260   7.630 -0.2697 -0.1153 -0.2976
  164SAPE  H10X18498   6.697   4.166   7.618  0.0331 -0.1786 -1.3114
  164SAPE  H10Y18499   6.690   4.349   7.639  1.4155  1.1782 -0.6842
  164SAPE  C31118500   6.831   4.259   7.769 -0.2486 -0.5830 -0.1079
  164SAPE  H11X18501   6.902   4.345   7.765  1.0506 -1.6181  0.6277
  164SAPE  H11Y18502   6.896   4.170   7.781  3.4770  1.6716 -2.6125
  164SAPE  C31218503   6.736   4.292   7.882  0.1137  0.3766  0.0264
  164SAPE  H12X18504   6.645   4.228   7.872  0.0817  0.0577  2.2031
  164SAPE  H12Y18505   6.703   4.396   7.861  2.4101  1.3041  0.8635
  164SAPE  C31318506   6.805   4.285   8.015  0.3671 -0.7345 -0.0431
  164SAPE  H13X18507   6.893   4.352   8.026 -1.5769  1.7253  1.1910
  164SAPE  H13Y18508   6.852   4.185   8.019  0.6254 -0.5764  1.0835
  164SAPE  C31418509   6.710   4.299   8.141 -0.0191 -0.8340 -0.0402
  164SAPE  H14X18510   6.755   4.254   8.232  1.7301  0.9822  0.0358
  164SAPE  H14Y18511   6.623   4.239   8.107  0.5248 -0.6400 -1.8669
  164SAPE  C31518512   6.680   4.444   8.170  0.4320  0.8311  0.0999
  164SAPE  H15X18513   6.629   4.495   8.086 -0.9839 -3.4666 -1.7811
  164SAPE  H15Y18514   6.781   4.486   8.190  0.1718  1.5425 -0.0653
  164SAPE  C31618515   6.616   4.460   8.304 -0.1946  0.3562  0.1776
  164SAPE  H16X18516   6.622   4.566   8.338 -0.5716  0.0972  1.0605
  164SAPE  H16Y18517   6.668   4.416   8.392  0.0805 -1.9899 -1.1296
  164SAPE  C31718518   6.477   4.405   8.315 -0.8201  0.8555  0.5972
  164SAPE  H17X18519   6.484   4.294   8.305 -0.3241  1.1421 -2.9918
  164SAPE  H17Y18520   6.404   4.437   8.238 -1.0949  1.2729  1.0332
  164SAPE  C31818521   6.407   4.438   8.453 -0.1065  0.3199 -0.6353
  164SAPE  H18X18522   6.396   4.547   8.470  0.0800 -0.0205  1.8257
  164SAPE  H18Y18523   6.466   4.400   8.538 -0.1527 -0.1251 -0.8014
  164SAPE  H18Z18524   6.308   4.389   8.467 -0.9953  2.2115 -0.0618
  165SAPE     N18525   6.351   0.163   6.125  0.2747  0.2385 -0.0505
  165SAPE   HN118526   6.400   0.140   6.036 -0.9439  0.5825 -0.8278
  165SAPE   HN218527   6.367   0.087   6.194  0.3568  1.8142  1.7004
  165SAPE   HN318528   6.250   0.175   6.103  0.3036 -1.0074 -0.9177
  165SAPE   C1218529   6.421   0.290   6.176 -0.1704 -0.5214 -0.8011
  165SAPE  H12A18530   6.412   0.364   6.094 -1.7938 -0.1290 -0.2954
  165SAPE  H12B18531   6.527   0.265   6.199 -0.4586  0.4457  1.7707
  165SAPE   C1118532   6.355   0.351   6.301 -0.0796 -0.0554 -0.0776
  165SAPE  H11A18533   6.422   0.435   6.328  0.9478 -0.6430 -0.7680
  165SAPE  H11B18534   6.342   0.279   6.385  2.1274  0.4565  0.7469
  165SAPE     P18535   6.099   0.413   6.334  0.3098  0.0496  0.0641
  165SAPE   O1318536   5.994   0.463   6.241 -0.6522  0.0331 -0.4775
  165SAPE   O1418537   6.082   0.283   6.400 -0.1090  0.0572  0.6173
  165SAPE   O1218538   6.235   0.414   6.251 -0.6084  0.5815  0.1415
  165SAPE   O1118539   6.122   0.528   6.444 -0.0433 -0.1449 -0.4596
  165SAPE    C118540   6.031   0.544   6.551 -0.1815 -0.0293  0.0387
  165SAPE    HA18541   5.990   0.646   6.536  1.8938  1.2427  2.6344
  165SAPE    HB18542   5.947   0.471   6.547  0.2824 -0.4678 -2.6186
  165SAPE    C218543   6.103   0.540   6.689  0.2136 -0.6144 -0.2394
  165SAPE    HS18544   6.201   0.590   6.673  1.5209 -3.2312 -0.8036
  165SAPE   O2118545   6.119   0.402   6.717 -0.2216 -0.5858  0.0772
  165SAPE   C2118546   6.236   0.348   6.675  0.1508  0.0757  0.0051
  165SAPE   O2218547   6.321   0.406   6.611 -0.1447  0.1265 -0.4923
  165SAPE   C2218548   6.250   0.212   6.745  0.2712  0.6793  0.1127
  165SAPE   H2R18549   6.197   0.214   6.843 -2.0665 -0.4724 -1.0871
  165SAPE   H2S18550   6.190   0.139   6.686 -0.3886  1.2395  0.0842
  165SAPE    C318551   6.020   0.603   6.799 -0.3672 -0.2604  0.3809
  165SAPE    HX18552   5.923   0.548   6.799 -1.0023  0.8098  1.2739
  165SAPE    HY18553   5.987   0.706   6.773  0.0375 -0.7609 -2.2029
  165SAPE   O3118554   6.083   0.590   6.930  0.2647  0.0690 -0.0031
  165SAPE   C3118555   6.168   0.691   6.961 -0.6728  0.1371  0.1197
  165SAPE   O3218556   6.193   0.785   6.888  0.2511  0.1355  0.0826
  165SAPE   C3218557   6.234   0.662   7.097  0.1402  0.8065  0.3900
  165SAPE   H2X18558   6.342   0.647   7.072  0.5266  2.3066  1.0902
  165SAPE   H2Y18559   6.189   0.575   7.150 -1.2655  1.4893  0.3331
  165SAPE   C2318560   6.394   0.154   6.754  0.0659  0.2182  0.1423
  165SAPE   H3R18561   6.430   0.150   6.649 -0.8901  3.2212 -0.3385
  165SAPE   H3S18562   6.403   0.047   6.784  1.3242  0.2640 -0.0317
  165SAPE   C2418563   6.487   0.233   6.848 -0.1437  0.1683  0.1085
  165SAPE   H4R18564   6.479   0.336   6.807 -2.3039 -0.5813 -1.4373
  165SAPE   H4S18565   6.593   0.203   6.833 -0.9373 -2.3569 -0.7746
  165SAPE   C2518566   6.446   0.232   6.992 -0.2736  0.1870 -0.0602
  165SAPE   H5R18567   6.379   0.151   7.024  1.1598 -2.0761 -2.5794
  165SAPE   C2618568   6.499   0.313   7.086 -0.6183  0.0686 -1.2860
  165SAPE   H6R18569   6.460   0.299   7.188 -0.6623 -0.2059 -1.3422
  165SAPE   C2718570   6.603   0.420   7.057  0.0749  0.3951  0.0785
  165SAPE   H7R18571   6.598   0.452   6.950  2.5371 -1.7712 -0.7324
  165SAPE   H7S18572   6.705   0.376   7.059  0.2198  0.8013  1.7618
  165SAPE   C2818573   6.586   0.536   7.152  0.0217 -0.4503 -0.4541
  165SAPE   H8R18574   6.518   0.619   7.126  1.2441  1.3575  1.9063
  165SAPE   C2918575   6.645   0.554   7.268  0.1731 -0.4453 -0.2234
  165SAPE   H9R18576   6.607   0.645   7.316 -0.8581 -1.1919  0.4036
  165SAPE  C21018577   6.739   0.461   7.344 -0.8664 -0.3654 -0.3605
  165SAPE  H10R18578   6.820   0.431   7.274  0.6388 -0.1228  1.2287
  165SAPE  H10S18579   6.672   0.380   7.380 -1.0242  0.3655  1.0435
  165SAPE  C21118580   6.805   0.515   7.466 -0.7110  0.7002  0.8087
  165SAPE  H11R18581   6.899   0.569   7.447  0.5723 -2.0775 -1.0864
  165SAPE  C21218582   6.777   0.487   7.594  0.0904 -0.0694 -0.1640
  165SAPE  H12R18583   6.828   0.542   7.674  2.3899  0.2659 -1.8009
  165SAPE  C21318584   6.659   0.394   7.642  0.2238 -0.2175 -0.8059
  165SAPE  H13R18585   6.584   0.360   7.567 -0.5109  1.3303 -0.8025
  165SAPE  H13S18586   6.605   0.457   7.717 -0.2255 -0.9409 -0.5147
  165SAPE  C21418587   6.717   0.278   7.719 -0.6417 -0.2971  0.2569
  165SAPE  H14R18588   6.824   0.270   7.697 -0.6164  0.7611 -0.0504
  165SAPE  C21518589   6.653   0.185   7.789 -0.2266 -0.9146  0.2585
  165SAPE  H15R18590   6.712   0.105   7.835  2.0291  1.0890  0.9493
  165SAPE  C21618591   6.509   0.174   7.822  0.2184 -0.8937  0.4889
  165SAPE  H16R18592   6.453   0.093   7.769 -0.2682 -0.9439  1.0710
  165SAPE  H16S18593   6.468   0.274   7.794  0.4614 -0.9878 -0.2291
  165SAPE  C21718594   6.470   0.153   7.969 -0.5604 -0.1285  0.0127
  165SAPE  H17R18595   6.544   0.200   8.038 -1.7170  0.8106  0.6347
  165SAPE  H17S18596   6.474   0.044   7.990 -2.0490  0.0789  1.5142
  165SAPE  C21818597   6.325   0.205   8.009  0.1540 -0.0646  0.2985
  165SAPE  H18R18598   6.299   0.306   7.972 -0.4400 -0.8798 -1.5791
  165SAPE  H18S18599   6.327   0.199   8.120  0.5633 -1.7938  0.2169
  165SAPE  C21918600   6.224   0.112   7.947 -0.3172 -0.1289  0.1739
  165SAPE  H19R18601   6.257   0.010   7.976  1.4016 -0.3441 -2.4078
  165SAPE  H19S18602   6.243   0.132   7.839  2.0031  0.7904  0.7209
  165SAPE  C22018603   6.079   0.135   7.984 -0.1879  0.1858  0.7973
  165SAPE  H20R18604   6.053   0.089   8.082 -0.0962 -1.3857  0.0975
  165SAPE  H20S18605   6.012   0.100   7.902  1.9595  1.9146 -1.8072
  165SAPE  H20T18606   6.063   0.245   7.986 -2.0681 -0.0758  0.6973
  165SAPE   C3318607   6.227   0.786   7.189 -0.8838  0.8607 -0.4226
  165SAPE   H3X18608   6.119   0.811   7.193 -0.7867  1.5748 -1.8188
  165SAPE   H3Y18609   6.284   0.878   7.161  0.5159  0.5181  1.2211
  165SAPE   C3418610   6.263   0.763   7.341 -0.2150  0.3252 -0.2502
  165SAPE   H4X18611   6.284   0.863   7.386 -0.6942 -0.4500  1.7798
  165SAPE   H4Y18612   6.366   0.724   7.328  0.3730  2.2096 -1.4719
  165SAPE   C3518613   6.166   0.683   7.422 -0.1951 -0.4341  0.8940
  165SAPE   H5X18614   6.119   0.595   7.374 -0.6729  0.2003  0.1967
  165SAPE   H5Y18615   6.085   0.751   7.456 -0.6326 -1.4800  1.9649
  165SAPE   C3618616   6.237   0.636   7.548 -0.1953  0.7155 -0.1258
  165SAPE   H6X18617   6.151   0.594   7.605 -0.5321 -0.4009 -1.4316
  165SAPE   H6Y18618   6.275   0.717   7.613 -0.2959  0.1623  0.6322
  165SAPE   C3718619   6.343   0.526   7.518  0.0646 -0.3282 -1.0065
  165SAPE   H7X18620   6.439   0.548   7.570  0.6782 -1.3237 -1.6873
  165SAPE   H7Y18621   6.374   0.510   7.412 -2.2238 -1.8052 -1.4676
  165SAPE   C3818622   6.300   0.386   7.571 -0.6992  0.2278 -0.0289
  165SAPE   H8X18623   6.255   0.403   7.671  0.6359  1.2177  0.4183
  165SAPE   H8Y18624   6.390   0.322   7.582 -0.4030  0.4685 -1.0289
  165SAPE   C3918625   6.198   0.312   7.481  0.6308  0.0844 -0.3963
  165SAPE   H9X18626   6.195   0.358   7.380 -0.0756  0.5938 -0.1516
  165SAPE   H9Y18627   6.101   0.340   7.527  0.8205  0.8144 -0.4256
  165SAPE  C31018628   6.234   0.160   7.475  0.5125 -0.4313  0.0725
  165SAPE  H10X18629   6.248   0.128   7.581  0.6655  1.6252  0.6872
  165SAPE  H10Y18630   6.333   0.142   7.428  0.0403 -0.1071 -1.0591
  165SAPE  C31118631   6.130   0.084   7.398  0.1834  0.0688 -0.5041
  165SAPE  H11X18632   6.030   0.088   7.447  0.4604 -0.2640  0.0885
  165SAPE  H11Y18633   6.163  -0.022   7.401 -0.1369  0.0022  0.7323
  165SAPE  C31218634   6.115   0.119   7.246 -0.9359  0.0409 -0.6147
  165SAPE  H12X18635   6.212   0.097   7.197 -0.3935 -1.0946  0.9472
  165SAPE  H12Y18636   6.074   0.222   7.251 -0.6833  0.0486  1.5252
  165SAPE  C31318637   6.010   0.035   7.172 -0.5633 -0.5037 -0.5117
  165SAPE  H13X18638   6.035   0.045   7.064  2.9020 -0.9177  0.1940
  165SAPE  H13Y18639   5.905   0.071   7.179 -0.6757 -0.0628 -3.7007
  165SAPE  C31418640   5.993  -0.109   7.232  0.0271  0.1272 -0.3850
  165SAPE  H14X18641   5.956  -0.106   7.336 -1.4436  1.1008 -0.9208
  165SAPE  H14Y18642   6.096  -0.150   7.236  0.2388  0.6369 -0.6090
  165SAPE  C31518643   5.904  -0.208   7.144 -0.2322 -0.3629 -0.0627
  165SAPE  H15X18644   5.804  -0.166   7.121 -1.3202 -2.6232  0.4732
  165SAPE  H15Y18645   5.892  -0.303   7.200 -0.3706  1.9808  4.0710
  165SAPE  C31618646   5.967  -0.249   7.009  0.1313 -0.6907 -0.0138
  165SAPE  H16X18647   6.017  -0.161   6.962  1.5858 -1.9290 -0.8489
  165SAPE  H16Y18648   5.891  -0.290   6.940 -2.5245  1.3968  1.6059
  165SAPE  C31718649   6.073  -0.356   7.036 -0.0213 -0.8422  0.1752
  165SAPE  H17X18650   6.024  -0.447   7.076 -0.3727 -1.0938 -0.8150
  165SAPE  H17Y18651   6.151  -0.321   7.108 -1.6312  2.4220  0.3822
  165SAPE  C31818652   6.147  -0.393   6.904 -0.7712 -0.6467  0.1085
  165SAPE  H18X18653   6.217  -0.476   6.927 -1.7218 -1.6665 -0.6256
  165SAPE  H18Y18654   6.192  -0.298   6.870  0.1456 -1.3696 -0.7012
  165SAPE  H18Z18655   6.071  -0.433   6.833 -0.3073 -0.3453 -0.5579
  166SAPE     N18656   0.281   3.736   5.723  0.6409  0.0745 -0.5793
  166SAPE   HN118657   0.244   3.640   5.707  0.7969 -0.0843 -0.0021
  166SAPE   HN218658   0.317   3.768   5.631 -2.7823 -3.0129 -3.1450
  166SAPE   HN318659   0.362   3.733   5.788 -1.1950  2.1813  1.9090
  166SAPE   C1218660   0.172   3.833   5.767 -0.3194  0.3540 -0.5174
  166SAPE  H12A18661   0.117   3.866   5.677  1.4118  0.2706 -1.6315
  166SAPE  H12B18662   0.224   3.923   5.809  1.3600 -0.7000 -0.2661
  166SAPE   C1118663   0.075   3.768   5.867  0.5088  0.5770 -0.6290
  166SAPE  H11A18664  -0.000   3.847   5.889 -0.2919 -1.0651  2.8554
  166SAPE  H11B18665   0.124   3.746   5.964 -1.1436  1.6030  0.4765
  166SAPE     P18666  -0.121   3.596   5.827 -0.1047  0.3948 -0.3639
  166SAPE   O1318667  -0.214   3.681   5.750 -0.0082 -0.1572 -0.0176
  166SAPE   O1418668  -0.115   3.447   5.798 -0.1917 -0.2906  0.0142
  166SAPE   O1218669   0.029   3.644   5.812  0.9586  0.4243 -0.1931
  166SAPE   O1118670  -0.147   3.611   5.978  0.0223 -0.1802  0.0269
  166SAPE    C118671  -0.230   3.712   6.027 -0.2470 -0.3097 -0.6972
  166SAPE    HA18672  -0.188   3.810   5.996 -0.7232  0.3300  0.6286
  166SAPE    HB18673  -0.334   3.698   5.990 -0.8185  3.5984 -0.7835
  166SAPE    C218674  -0.243   3.729   6.180 -0.0459  0.9117  1.0662
  166SAPE    HS18675  -0.301   3.823   6.189 -0.8854  0.7176 -1.7766
  166SAPE   O2118676  -0.110   3.736   6.241  0.5784  0.1948 -0.2642
  166SAPE   C2118677  -0.106   3.817   6.345  0.3570 -0.3264  0.8468
  166SAPE   O2218678  -0.191   3.902   6.367  0.3950  0.2129  0.5254
  166SAPE   C2218679  -0.006   3.782   6.448  0.1773 -0.0813 -0.3176
  166SAPE   H2R18680   0.057   3.699   6.410 -0.5981 -0.0996 -1.5947
  166SAPE   H2S18681   0.055   3.875   6.455  1.5754 -1.2189  4.0385
  166SAPE    C318682  -0.323   3.603   6.232 -0.0131 -0.1789 -0.7681
  166SAPE    HX18683  -0.259   3.518   6.204  1.5950  0.7876 -0.0832
  166SAPE    HY18684  -0.422   3.590   6.182 -0.3164  0.0100 -0.2137
  166SAPE   O3118685  -0.339   3.604   6.376 -0.8096  0.2853 -0.0339
  166SAPE   C3118686  -0.453   3.671   6.420 -0.5443 -0.7289  0.0573
  166SAPE   O3218687  -0.520   3.735   6.347  0.6862  0.0137  0.0796
  166SAPE   C3218688  -0.476   3.644   6.568  0.0809  0.7639  0.7971
  166SAPE   H2X18689  -0.586   3.644   6.573 -0.1056 -1.5071 -2.1142
  166SAPE   H2Y18690  -0.450   3.742   6.614  0.0630  1.2561 -0.2277
  166SAPE   C2318691  -0.064   3.766   6.592  0.1822  0.8023 -1.3254
  166SAPE   H3R18692  -0.105   3.663   6.589 -1.7787  1.4447  1.8856
  166SAPE   H3S18693  -0.137   3.847   6.614 -1.2849 -1.3469  2.1706
  166SAPE   C2418694   0.040   3.767   6.700 -0.6664 -0.0088 -0.0091
  166SAPE   H4R18695   0.111   3.685   6.674  0.5648  1.1576 -0.3618
  166SAPE   H4S18696  -0.019   3.744   6.792 -1.2096  0.1511 -0.3165
  166SAPE   C2518697   0.120   3.898   6.711  0.8708  0.3321 -0.1474
  166SAPE   H5R18698   0.108   3.964   6.623  0.7949 -0.0788 -0.4466
  166SAPE   C2618699   0.186   3.932   6.827 -0.1816 -0.2602  0.1601
  166SAPE   H6R18700   0.255   4.017   6.828 -0.6618  0.1502 -0.7812
  166SAPE   C2718701   0.196   3.849   6.960 -0.2622  0.5039 -0.4076
  166SAPE   H7R18702   0.093   3.817   6.988 -0.1378  1.5015  1.3023
  166SAPE   H7S18703   0.237   3.920   7.036 -2.1855 -1.1789  2.2897
  166SAPE   C2818704   0.288   3.730   6.940  0.2900  0.1050 -0.2014
  166SAPE   H8R18705   0.319   3.707   6.837  0.6123  0.4814 -0.1876
  166SAPE   C2918706   0.334   3.656   7.042  1.1503 -0.0450 -0.0818
  166SAPE   H9R18707   0.394   3.570   7.009 -0.5141 -0.2657 -2.6947
  166SAPE  C21018708   0.292   3.677   7.188  0.9590 -0.5749 -0.0090
  166SAPE  H10R18709   0.279   3.582   7.245 -0.7636  0.0650  0.6935
  166SAPE  H10S18710   0.194   3.728   7.197  1.9941  1.7294 -1.3893
  166SAPE  C21118711   0.396   3.759   7.253  0.0915  0.2060  0.0261
  166SAPE  H11R18712   0.401   3.867   7.233  1.5713 -0.2166 -2.0060
  166SAPE  C21218713   0.498   3.712   7.327  0.6225  0.3181 -0.1308
  166SAPE  H12R18714   0.550   3.786   7.390  0.2587 -1.2284  2.0159
  166SAPE  C21318715   0.528   3.567   7.375 -0.0370  0.0146 -0.8691
  166SAPE  H13R18716   0.638   3.563   7.395 -0.2029  0.3718  0.1362
  166SAPE  H13S18717   0.512   3.494   7.293  0.4142 -0.5014 -0.5029
  166SAPE  C21418718   0.442   3.512   7.484 -0.1639 -0.7871  0.0294
  166SAPE  H14R18719   0.396   3.592   7.544 -0.6748 -1.4174  0.4800
  166SAPE  C21518720   0.417   3.383   7.497  0.1639  0.6656 -0.2264
  166SAPE  H15R18721   0.344   3.352   7.574  1.0622  0.7068  0.6545
  166SAPE  C21618722   0.471   3.270   7.411  0.2224  0.1025  0.3371
  166SAPE  H16R18723   0.487   3.183   7.478  2.0802  1.3331  1.5089
  166SAPE  H16S18724   0.565   3.300   7.361  0.5198  1.2123  1.5330
  166SAPE  C21718725   0.373   3.232   7.299  0.2506 -0.0584 -0.4011
  166SAPE  H17R18726   0.332   3.317   7.240 -0.1942 -0.0332 -0.0598
  166SAPE  H17S18727   0.285   3.186   7.348  0.5304  1.2835  1.4012
  166SAPE  C21818728   0.431   3.157   7.179  0.2933  0.4666 -0.1581
  166SAPE  H18R18729   0.471   3.058   7.211 -0.8343  0.2552  0.6450
  166SAPE  H18S18730   0.513   3.218   7.136  0.0990  0.5759 -0.3782
  166SAPE  C21918731   0.316   3.125   7.081 -0.0079  0.5602  0.5646
  166SAPE  H19R18732   0.261   3.218   7.056 -1.9462 -0.5688  0.5631
  166SAPE  H19S18733   0.228   3.073   7.124 -2.0600  2.5821 -1.0451
  166SAPE  C22018734   0.366   3.048   6.960  0.4587  0.5511 -0.1310
  166SAPE  H20R18735   0.315   2.949   6.965  1.0571  0.1613 -1.4059
  166SAPE  H20S18736   0.475   3.034   6.976  0.1891 -0.8513  0.5624
  166SAPE  H20T18737   0.350   3.102   6.864 -0.0379 -0.7621 -0.8079
  166SAPE   C3318738  -0.422   3.515   6.623  0.6960  0.2769 -0.5180
  166SAPE   H3X18739  -0.327   3.530   6.679 -0.2915 -0.0330  1.2730
  166SAPE   H3Y18740  -0.399   3.442   6.543  1.2971  0.7352 -0.7680
  166SAPE   C3418741  -0.500   3.441   6.723  0.5127 -0.3786  0.1753
  166SAPE   H4X18742  -0.594   3.405   6.677  1.2323  0.0523 -1.6822
  166SAPE   H4Y18743  -0.524   3.502   6.813  0.0478 -0.7228  0.2891
  166SAPE   C3518744  -0.421   3.322   6.777 -0.1562  1.2696  0.5801
  166SAPE   H5X18745  -0.339   3.359   6.841 -1.6646  1.4490  2.4509
  166SAPE   H5Y18746  -0.372   3.267   6.694 -2.1945  1.0583 -0.5294
  166SAPE   C3618747  -0.498   3.220   6.861  0.4185  0.7373 -0.2102
  166SAPE   H6X18748  -0.582   3.170   6.808 -0.8446  0.7612  1.6882
  166SAPE   H6Y18749  -0.524   3.263   6.960  1.2173 -1.3950  0.9549
  166SAPE   C3718750  -0.402   3.102   6.890 -0.4359  0.2840  0.8440
  166SAPE   H7X18751  -0.309   3.149   6.928  0.1107 -1.4280  1.6505
  166SAPE   H7Y18752  -0.384   3.034   6.804 -1.6611 -1.1569  1.7094
  166SAPE   C3818753  -0.450   3.013   7.014 -0.7720 -0.4583 -0.5656
  166SAPE   H8X18754  -0.374   2.933   7.022  1.1222  1.4107  0.8633
  166SAPE   H8Y18755  -0.548   2.961   7.002 -1.9884  1.0957  2.1052
  166SAPE   C3918756  -0.460   3.081   7.147  0.3421 -0.4395 -0.0279
  166SAPE   H9X18757  -0.543   3.155   7.151  0.4320 -0.3038 -0.6969
  166SAPE   H9Y18758  -0.365   3.134   7.172  0.0210  0.3024 -0.3805
  166SAPE  C31018759  -0.489   2.982   7.265  0.2765 -0.2561 -0.4000
  166SAPE  H10X18760  -0.418   2.898   7.261  2.7536  1.8025 -0.7306
  166SAPE  H10Y18761  -0.587   2.935   7.242  1.0094 -2.1490  0.2963
  166SAPE  C31118762  -0.489   3.050   7.407  0.5811  0.2671  0.1494
  166SAPE  H11X18763  -0.560   3.136   7.407  0.2762  0.0646 -2.5434
  166SAPE  H11Y18764  -0.389   3.099   7.413  0.0885  1.6773 -2.2071
  166SAPE  C31218765  -0.500   2.956   7.526  0.2537 -0.9056  1.0929
  166SAPE  H12X18766  -0.403   2.902   7.533 -0.7890 -2.6099  2.5645
  166SAPE  H12Y18767  -0.575   2.877   7.507 -0.3752  0.0036 -0.2787
  166SAPE  C31318768  -0.535   3.021   7.664 -0.5419 -0.1855  0.0295
  166SAPE  H13X18769  -0.627   3.083   7.662 -1.3552 -1.4006 -2.4982
  166SAPE  H13Y18770  -0.449   3.087   7.689 -0.9050 -0.4257  2.0170
  166SAPE  C31418771  -0.560   2.908   7.776  0.7226  0.4425  0.7369
  166SAPE  H14X18772  -0.465   2.851   7.776 -0.5831 -1.7855  0.1661
  166SAPE  H14Y18773  -0.642   2.844   7.738 -0.1510  2.3569 -0.7070
  166SAPE  C31518774  -0.581   2.964   7.916 -0.1928 -0.0032 -0.2484
  166SAPE  H15X18775  -0.663   3.037   7.897 -2.7569 -2.8521 -0.6340
  166SAPE  H15Y18776  -0.496   3.026   7.950 -0.0836  0.1270 -0.7507
  166SAPE  C31618777  -0.602   2.861   8.028  0.0364  0.2569 -0.5684
  166SAPE  H16X18778  -0.545   2.766   8.027 -0.5247 -0.0867 -0.1854
  166SAPE  H16Y18779  -0.712   2.848   8.023 -0.2917  2.6301 -0.4095
  166SAPE  C31718780  -0.562   2.926   8.168 -0.9086 -0.4090 -0.3916
  166SAPE  H17X18781  -0.611   3.026   8.174 -0.2797 -0.1136 -0.0233
  166SAPE  H17Y18782  -0.451   2.935   8.177 -0.8254 -0.4118 -1.3595
  166SAPE  C31818783  -0.636   2.853   8.286 -0.0384 -0.4648 -0.8397
  166SAPE  H18X18784  -0.635   2.905   8.384 -1.4965 -1.1138 -0.4526
  166SAPE  H18Y18785  -0.594   2.752   8.304 -1.9589 -1.3786 -1.3221
  166SAPE  H18Z18786  -0.742   2.834   8.257 -0.5972  0.9166  0.1952
  167SAPE     N18787   0.843   2.475   6.123 -0.4677 -0.2491 -0.0057
  167SAPE   HN118788   0.829   2.372   6.120 -2.1988 -0.0276  0.0355
  167SAPE   HN218789   0.924   2.501   6.062  1.1411 -2.4040  1.1428
  167SAPE   HN318790   0.879   2.499   6.218 -0.4237 -2.4727  0.5594
  167SAPE   C1218791   0.724   2.554   6.079  0.9102  0.7433 -0.3265
  167SAPE  H12A18792   0.689   2.493   5.993  0.3090 -1.8789  1.7329
  167SAPE  H12B18793   0.764   2.653   6.049  2.1417  0.6146  0.8135
  167SAPE   C1118794   0.614   2.557   6.187 -0.9123 -0.3733 -0.2007
  167SAPE  H11A18795   0.562   2.655   6.182 -0.2031  0.0509  0.5922
  167SAPE  H11B18796   0.655   2.549   6.290  0.0528  1.9229 -0.3780
  167SAPE     P18797   0.381   2.459   6.107  0.0242  0.0073 -0.2962
  167SAPE   O1318798   0.366   2.578   6.022  0.3039 -0.1046  0.3072
  167SAPE   O1418799   0.340   2.329   6.053  0.0375  0.2400 -1.0232
  167SAPE   O1218800   0.530   2.451   6.159 -0.6659 -0.0652  0.5626
  167SAPE   O1118801   0.302   2.491   6.243  0.2043  0.3028 -0.2314
  167SAPE    C118802   0.274   2.393   6.345  0.1763 -0.0401 -0.0604
  167SAPE    HA18803   0.179   2.422   6.396 -0.6100 -0.2473 -1.3781
  167SAPE    HB18804   0.264   2.291   6.303 -2.7086  0.0940  0.1732
  167SAPE    C218805   0.367   2.400   6.473 -0.6625  0.2111  0.2909
  167SAPE    HS18806   0.315   2.359   6.562  2.0795 -4.1351  0.0655
  167SAPE   O2118807   0.421   2.528   6.499 -0.9205 -0.1270  0.9261
  167SAPE   C2118808   0.344   2.615   6.564  0.1887  0.2256 -0.3647
  167SAPE   O2218809   0.238   2.586   6.623 -0.4531 -0.8211 -0.7231
  167SAPE   C2218810   0.400   2.754   6.561 -0.4989  0.0802 -0.1921
  167SAPE   H2R18811   0.378   2.796   6.460 -0.5137  1.5890  0.4393
  167SAPE   H2S18812   0.348   2.820   6.633  0.5277 -0.2017  0.8143
  167SAPE    C318813   0.484   2.308   6.459  0.5356 -0.0791  0.2545
  167SAPE    HX18814   0.554   2.351   6.385 -0.0396 -1.0754 -0.8898
  167SAPE    HY18815   0.453   2.217   6.404 -3.4369  1.7149 -0.6705
  167SAPE   O3118816   0.550   2.275   6.584  0.9012 -0.8720  0.4373
  167SAPE   C3118817   0.642   2.364   6.623  0.0499 -0.3290  0.5613
  167SAPE   O3218818   0.687   2.447   6.550  0.1870  0.1043 -0.3387
  167SAPE   C3218819   0.687   2.341   6.771  0.4572 -1.4436  0.0863
  167SAPE   H2X18820   0.797   2.345   6.777  0.5082  2.4621 -1.4311
  167SAPE   H2Y18821   0.660   2.235   6.786 -0.0572 -1.6049 -1.8251
  167SAPE   C2318822   0.552   2.739   6.588  0.3696  0.6127  0.1417
  167SAPE   H3R18823   0.601   2.744   6.489  1.8460 -2.3231  0.6941
  167SAPE   H3S18824   0.576   2.639   6.629 -2.5816 -0.4948 -0.6691
  167SAPE   C2418825   0.603   2.850   6.684 -0.3387 -0.0169  0.3471
  167SAPE   H4R18826   0.534   2.862   6.770 -0.8185  3.3638 -0.4417
  167SAPE   H4S18827   0.600   2.951   6.640  1.8747 -0.0904  0.0097
  167SAPE   C2518828   0.744   2.815   6.728 -0.1014 -0.3442  0.0434
  167SAPE   H5R18829   0.828   2.822   6.656 -0.4609  1.8991 -0.1747
  167SAPE   C2618830   0.785   2.784   6.854  0.4146  0.0351  0.8757
  167SAPE   H6R18831   0.890   2.759   6.871 -0.2205 -1.9655  2.0636
  167SAPE   C2718832   0.702   2.763   6.974 -0.3693 -0.0948 -0.3745
  167SAPE   H7R18833   0.720   2.660   7.012  0.3949 -1.2680 -3.7250
  167SAPE   H7S18834   0.594   2.767   6.949 -1.2020 -0.1170  2.9604
  167SAPE   C2818835   0.742   2.849   7.096 -0.6956 -0.2268  0.3759
  167SAPE   H8R18836   0.800   2.940   7.076  1.7806 -2.0265 -0.8714
  167SAPE   C2918837   0.690   2.841   7.219 -0.1926  0.3091 -0.0646
  167SAPE   H9R18838   0.715   2.919   7.293  0.1451 -0.0679  0.2198
  167SAPE  C21018839   0.583   2.746   7.263 -0.6341 -0.3507 -0.3272
  167SAPE  H10R18840   0.581   2.652   7.203  1.3160 -1.0247  0.6011
  167SAPE  H10S18841   0.478   2.780   7.256 -1.1207 -1.1880  2.5089
  167SAPE  C21118842   0.607   2.703   7.402  0.0203 -0.3073 -0.3840
  167SAPE  H11R18843   0.657   2.605   7.409  1.6306  0.5248  0.0736
  167SAPE  C21218844   0.570   2.761   7.517  0.1262 -0.1077 -0.3610
  167SAPE  H12R18845   0.582   2.710   7.613 -0.4540  0.5584  0.0716
  167SAPE  C21318846   0.505   2.901   7.525  0.2006  0.6569  0.5626
  167SAPE  H13R18847   0.403   2.904   7.482  0.4353  0.4962 -0.0141
  167SAPE  H13S18848   0.554   2.971   7.454  0.7897 -2.2757 -2.0696
  167SAPE  C21418849   0.511   2.945   7.672  0.4379  0.2987 -0.0896
  167SAPE  H14R18850   0.610   2.949   7.718 -0.1044  3.5648  0.9080
  167SAPE  C21518851   0.408   2.970   7.754 -0.2197  0.5389 -1.2922
  167SAPE  H15R18852   0.422   3.006   7.856 -0.1415  0.3252 -1.2276
  167SAPE  C21618853   0.266   2.944   7.723 -0.1882 -0.6264 -0.1234
  167SAPE  H16R18854   0.244   2.915   7.618  3.5114  0.0047 -1.1329
  167SAPE  H16S18855   0.204   3.026   7.765  1.5656 -0.4710  2.2444
  167SAPE  C21718856   0.232   2.813   7.792  0.0902 -0.6531  0.1657
  167SAPE  H17R18857   0.304   2.734   7.760 -3.4917 -2.9945 -2.6023
  167SAPE  H17S18858   0.132   2.777   7.757 -0.6826  2.2049 -0.7534
  167SAPE  C21818859   0.237   2.811   7.950 -0.8005  0.1678  0.0754
  167SAPE  H18R18860   0.345   2.821   7.975 -0.3938  0.1861 -1.6388
  167SAPE  H18S18861   0.218   2.710   7.991 -0.9804 -0.3245 -1.2056
  167SAPE  C21918862   0.136   2.903   8.021 -0.5326 -0.4929 -0.2107
  167SAPE  H19R18863   0.037   2.873   7.979 -0.8363 -0.7702  0.6864
  167SAPE  H19S18864   0.160   3.008   7.994  1.1935 -0.8998 -0.3308
  167SAPE  C22018865   0.133   2.898   8.170  0.1405  0.5496  0.2399
  167SAPE  H20R18866   0.236   2.926   8.201  1.2358 -1.3968 -1.5373
  167SAPE  H20S18867   0.118   2.790   8.192  0.2408  0.1881 -1.3522
  167SAPE  H20T18868   0.048   2.956   8.211  0.7893  0.5958  1.5268
  167SAPE   C3318869   0.615   2.430   6.872 -0.3647  0.2827 -0.0645
  167SAPE   H3X18870   0.630   2.538   6.848  2.1318 -0.2967 -1.3694
  167SAPE   H3Y18871   0.664   2.412   6.970 -0.4114 -1.3276 -0.3195
  167SAPE   C3418872   0.468   2.383   6.871 -0.0159 -0.6096 -0.7074
  167SAPE   H4X18873   0.447   2.278   6.900 -0.6470  0.4883  3.0779
  167SAPE   H4Y18874   0.425   2.394   6.769 -1.1092 -0.2662 -0.2180
  167SAPE   C3518875   0.377   2.482   6.947 -0.4991 -0.1315 -0.5327
  167SAPE   H5X18876   0.274   2.474   6.906  0.3610  0.9648 -2.9717
  167SAPE   H5Y18877   0.409   2.588   6.939 -0.5970  0.2042  2.6857
  167SAPE   C3618878   0.386   2.474   7.104  0.3412  0.1400  0.6881
  167SAPE   H6X18879   0.328   2.560   7.144  0.3391 -2.1399  5.9996
  167SAPE   H6Y18880   0.492   2.488   7.136  0.3431 -0.9992  1.2134
  167SAPE   C3718881   0.324   2.345   7.157  0.9000  0.0289 -0.0819
  167SAPE   H7X18882   0.373   2.262   7.101  1.7156 -1.2839  2.5160
  167SAPE   H7Y18883   0.215   2.333   7.140  1.0131  0.8558 -1.4926
  167SAPE   C3818884   0.343   2.321   7.304  0.0928  0.2397  0.3048
  167SAPE   H8X18885   0.454   2.329   7.314  0.1077 -0.4095  0.7389
  167SAPE   H8Y18886   0.318   2.216   7.331 -1.2776  0.7573  1.0537
  167SAPE   C3918887   0.284   2.430   7.399 -0.2948 -0.3795  0.6448
  167SAPE   H9X18888   0.174   2.421   7.389 -0.3487  0.3122  0.5451
  167SAPE   H9Y18889   0.323   2.526   7.358 -0.5608  0.2060  1.7395
  167SAPE  C31018890   0.321   2.429   7.547 -0.2645 -0.5584  0.4806
  167SAPE  H10X18891   0.319   2.536   7.578 -0.2685 -0.4684  0.1702
  167SAPE  H10Y18892   0.424   2.393   7.569 -0.6790 -0.3298  3.0238
  167SAPE  C31118893   0.221   2.355   7.632  0.2747 -0.1414 -1.2053
  167SAPE  H11X18894   0.200   2.255   7.589  1.1626 -0.9167  0.1250
  167SAPE  H11Y18895   0.121   2.402   7.647  0.8142  0.7580 -0.3402
  167SAPE  C31218896   0.261   2.336   7.783 -0.1020  0.0272  0.1474
  167SAPE  H12X18897   0.339   2.256   7.782 -0.6599 -0.5186 -2.0326
  167SAPE  H12Y18898   0.167   2.301   7.830 -0.1046 -0.1929 -0.0184
  167SAPE  C31318899   0.319   2.464   7.846  0.4041 -0.2118  0.3671
  167SAPE  H13X18900   0.242   2.544   7.834  3.1951  2.9025  2.2793
  167SAPE  H13Y18901   0.412   2.496   7.795 -0.4698  1.4999 -0.1885
  167SAPE  C31418902   0.332   2.446   7.997 -0.3270 -0.6753  0.3019
  167SAPE  H14X18903   0.391   2.533   8.033 -0.5335 -0.5144  0.2459
  167SAPE  H14Y18904   0.388   2.350   8.009  0.4412 -0.0613  1.8575
  167SAPE  C31518905   0.202   2.436   8.067 -0.6708  0.2354  1.3430
  167SAPE  H15X18906   0.151   2.339   8.049 -1.2058  0.7683 -0.0879
  167SAPE  H15Y18907   0.129   2.513   8.034 -0.6381  1.1786  3.3623
  167SAPE  C31618908   0.237   2.442   8.222  0.7728  0.2737 -0.0400
  167SAPE  H16X18909   0.146   2.463   8.282  1.5966  0.4228  1.1751
  167SAPE  H16Y18910   0.301   2.532   8.236 -1.5591  2.0775 -0.6645
  167SAPE  C31718911   0.297   2.310   8.277 -0.2506 -0.1668 -0.2952
  167SAPE  H17X18912   0.382   2.265   8.221 -0.2360 -1.8015  1.0039
  167SAPE  H17Y18913   0.211   2.241   8.266  0.5078 -0.9424 -1.4958
  167SAPE  C31818914   0.349   2.319   8.424  0.4097  0.7319 -0.6211
  167SAPE  H18X18915   0.455   2.350   8.413  1.1751 -1.1931  1.0317
  167SAPE  H18Y18916   0.343   2.218   8.470  0.9673  1.2904  0.6930
  167SAPE  H18Z18917   0.290   2.390   8.485 -1.9685 -0.8985 -0.9378
  168SAPE     N18918   1.970   4.035   6.222 -0.5277  0.0285  0.3307
  168SAPE   HN118919   2.032   3.975   6.164  0.8447  0.1255  1.6417
  168SAPE   HN218920   1.871   4.008   6.204 -0.7472  0.7526  0.4504
  168SAPE   HN318921   1.985   4.134   6.194 -1.4689  0.1642  0.2912
  168SAPE   C1218922   2.015   4.032   6.366 -0.5011  0.4645  0.5871
  168SAPE  H12A18923   2.034   3.927   6.396  1.3902  0.3402 -0.9305
  168SAPE  H12B18924   1.928   4.059   6.429 -0.4722 -1.8636  1.6902
  168SAPE   C1118925   2.144   4.117   6.393 -0.4297 -0.2867  0.3012
  168SAPE  H11A18926   2.152   4.122   6.504  2.5675  1.9066  0.0522
  168SAPE  H11B18927   2.135   4.217   6.345 -0.2169  0.0755  1.0020
  168SAPE     P18928   2.419   4.115   6.368 -0.0614 -0.3116 -0.3835
  168SAPE   O1318929   2.515   4.000   6.384 -0.0024  0.0064 -0.1143
  168SAPE   O1418930   2.451   4.212   6.261 -0.7438  0.2007  0.4748
  168SAPE   O1218931   2.269   4.052   6.349  0.5459 -0.2201  0.5071
  168SAPE   O1118932   2.391   4.198   6.495  0.4013 -1.1177 -0.0980
  168SAPE    C118933   2.395   4.345   6.486  0.3196 -0.5664  0.0772
  168SAPE    HA18934   2.499   4.373   6.460  0.9055 -2.5299  0.2741
  168SAPE    HB18935   2.316   4.387   6.420 -0.2629 -0.1003  1.0490
  168SAPE    C218936   2.383   4.406   6.625 -0.4811 -0.3797 -0.1498
  168SAPE    HS18937   2.443   4.351   6.700  0.3871  0.9122  0.1237
  168SAPE   O2118938   2.241   4.439   6.650  0.1375  0.0688  0.9265
  168SAPE   C2118939   2.187   4.345   6.727  0.4149 -0.2707 -0.4035
  168SAPE   O2218940   2.230   4.237   6.763  0.4640 -0.2090 -0.1192
  168SAPE   C2218941   2.042   4.389   6.768  0.0111 -0.0579  0.0621
  168SAPE   H2R18942   2.031   4.487   6.717 -0.1407 -0.9771 -1.7085
  168SAPE   H2S18943   1.963   4.318   6.735 -1.6294  0.6853  2.2551
  168SAPE    C318944   2.460   4.543   6.634  0.5034 -0.1727  1.1542
  168SAPE    HX18945   2.417   4.611   6.557  0.2745 -0.0880  1.3572
  168SAPE    HY18946   2.561   4.517   6.595  0.0803 -0.5865  0.3253
  168SAPE   O3118947   2.452   4.604   6.765  0.6021  0.0964  0.3524
  168SAPE   C3118948   2.547   4.677   6.801 -0.4056 -0.0260 -0.1805
  168SAPE   O3218949   2.648   4.706   6.734 -0.7556 -0.5217 -0.4527
  168SAPE   C3218950   2.517   4.718   6.939  0.7260  0.0710  0.4871
  168SAPE   H2X18951   2.477   4.630   6.994  0.5463 -0.0000  0.2427
  168SAPE   H2Y18952   2.426   4.781   6.940  0.4984 -0.2679  1.1319
  168SAPE   C2318953   2.027   4.401   6.927 -0.6016  0.6344  0.2572
  168SAPE   H3R18954   2.043   4.302   6.973 -2.6466 -0.5567 -1.4980
  168SAPE   H3S18955   1.919   4.419   6.946 -0.4246  1.3781  0.5862
  168SAPE   C2418956   2.114   4.514   6.994 -0.1855 -0.4943  0.0708
  168SAPE   H4R18957   2.222   4.486   6.998  0.0760  0.4298 -0.2661
  168SAPE   H4S18958   2.083   4.518   7.100 -0.3284  0.2281  0.0082
  168SAPE   C2518959   2.093   4.655   6.933 -0.3047 -0.1913  0.3187
  168SAPE   H5R18960   2.121   4.678   6.829 -3.3858 -0.8853 -0.7047
  168SAPE   C2618961   2.047   4.765   7.004 -0.4312 -0.2566  0.1209
  168SAPE   H6R18962   2.037   4.859   6.948 -0.0346  0.7752  1.7357
  168SAPE   C2718963   2.002   4.760   7.147  0.5196 -0.4993 -0.4028
  168SAPE   H7R18964   2.094   4.759   7.209 -0.7650  0.1943  1.5501
  168SAPE   H7S18965   1.951   4.665   7.176 -0.5356 -0.4566 -2.0626
  168SAPE   C2818966   1.904   4.866   7.178 -0.1766 -0.6221  0.5305
  168SAPE   H8R18967   1.809   4.872   7.122 -0.7118 -2.8452  1.1552
  168SAPE   C2918968   1.927   4.960   7.271  0.1934  0.3587 -0.5039
  168SAPE   H9R18969   1.859   5.046   7.281 -1.0391 -0.3560 -2.3999
  168SAPE  C21018970   2.049   4.982   7.360 -0.6444 -0.1312  0.2702
  168SAPE  H10R18971   2.117   5.034   7.290  1.6369 -1.3820  1.4903
  168SAPE  H10S18972   2.107   4.887   7.369  0.8859  0.5426 -2.0813
  168SAPE  C21118973   2.018   5.054   7.492  0.2166 -0.5423  0.0572
  168SAPE  H11R18974   2.071   5.148   7.517 -1.8908  0.4530  0.9208
  168SAPE  C21218975   1.946   5.001   7.590 -0.5122 -0.3334 -1.2315
  168SAPE  H12R18976   1.932   5.055   7.685 -0.5481 -0.4593 -1.1651
  168SAPE  C21318977   1.890   4.864   7.586  0.2811  0.7366 -0.1607
  168SAPE  H13R18978   1.971   4.787   7.583 -0.6331 -0.2779  0.8196
  168SAPE  H13S18979   1.830   4.844   7.495  0.6594 -0.0801 -0.2322
  168SAPE  C21418980   1.798   4.829   7.706  0.0160 -0.2082 -0.2583
  168SAPE  H14R18981   1.694   4.810   7.678  1.0212 -3.3386 -2.1297
  168SAPE  C21518982   1.826   4.812   7.834 -0.4764  0.0881  0.3311
  168SAPE  H15R18983   1.744   4.797   7.905  0.5406 -0.3077  1.4387
  168SAPE  C21618984   1.957   4.837   7.900  0.0840 -0.1617 -0.3297
  168SAPE  H16R18985   2.039   4.856   7.827 -0.2222  3.4599  0.2075
  168SAPE  H16S18986   1.981   4.748   7.962  0.1559 -0.8302 -1.3082
  168SAPE  C21718987   1.952   4.959   7.990  0.4645 -0.0627  0.0525
  168SAPE  H17R18988   1.907   5.047   7.939  0.2825 -0.5925 -0.7102
  168SAPE  H17S18989   2.052   4.989   8.029  0.8040 -0.1802 -0.7008
  168SAPE  C21818990   1.874   4.931   8.121  0.1139 -0.0412  0.0793
  168SAPE  H18R18991   1.789   4.861   8.116 -0.1236  0.1990  0.7523
  168SAPE  H18S18992   1.822   5.025   8.152  0.5396  0.8617 -1.8426
  168SAPE  C21918993   1.971   4.891   8.225 -0.6649 -0.1976  0.2347
  168SAPE  H19R18994   2.058   4.959   8.232  0.1035 -1.3080  1.8311
  168SAPE  H19S18995   2.004   4.788   8.201  0.1256  0.3276 -0.9850
  168SAPE  C22018996   1.907   4.884   8.365 -0.1833 -0.1761 -1.2120
  168SAPE  H20R18997   1.875   4.983   8.403 -0.1124  0.1593 -2.0232
  168SAPE  H20S18998   1.981   4.840   8.435 -1.6985 -0.7386  0.0550
  168SAPE  H20T18999   1.823   4.812   8.364 -0.7062  0.3746  0.9199
  168SAPE   C3319000   2.634   4.784   7.012  0.7805 -0.5932  0.0454
  168SAPE   H3X19001   2.620   4.894   7.013 -2.9287 -0.9963  1.9771
  168SAPE   H3Y19002   2.733   4.771   6.964  0.0371 -2.5721 -1.0093
  168SAPE   C3419003   2.635   4.757   7.167 -0.6450  0.0041 -0.1697
  168SAPE   H4X19004   2.735   4.787   7.204  0.2100 -0.4074 -2.1303
  168SAPE   H4Y19005   2.622   4.648   7.185 -0.6160  0.4516  2.9640
  168SAPE   C3519006   2.537   4.833   7.246  0.1305 -0.3471  0.1500
  168SAPE   H5X19007   2.434   4.795   7.229 -0.6433  1.7984 -0.1928
  168SAPE   H5Y19008   2.540   4.934   7.200  0.4302 -1.0948 -1.5131
  168SAPE   C3619009   2.568   4.823   7.394  0.4020 -0.7191  0.2024
  168SAPE   H6X19010   2.674   4.841   7.423 -0.0153  0.4587  1.0325
  168SAPE   H6Y19011   2.552   4.716   7.420  2.7034 -0.8710  1.1206
  168SAPE   C3719012   2.478   4.918   7.482  0.5542 -0.1966 -0.0679
  168SAPE   H7X19013   2.375   4.888   7.457  0.3309  1.1990 -0.8315
  168SAPE   H7Y19014   2.490   5.024   7.450  0.4890 -0.3359 -0.5519
  168SAPE   C3819015   2.495   4.895   7.627  0.0818  0.4423  0.0830
  168SAPE   H8X19016   2.595   4.937   7.652  0.1012  1.8115 -2.1905
  168SAPE   H8Y19017   2.495   4.788   7.656 -1.4563  0.8266  1.6069
  168SAPE   C3919018   2.374   4.961   7.713  0.5967 -0.7192  0.1214
  168SAPE   H9X19019   2.279   4.906   7.695  0.2399 -0.7624  2.1081
  168SAPE   H9Y19020   2.354   5.064   7.679  3.2214 -0.1915  0.1069
  168SAPE  C31019021   2.398   4.968   7.865 -0.4186  0.2408  0.8170
  168SAPE  H10X19022   2.312   5.026   7.907 -0.2584  1.6501 -0.7527
  168SAPE  H10Y19023   2.494   5.022   7.882 -0.6035  0.9608 -0.3864
  168SAPE  C31119024   2.408   4.832   7.929 -0.0499 -0.2963 -0.2354
  168SAPE  H11X19025   2.448   4.750   7.866  2.9180  0.7781  0.1413
  168SAPE  H11Y19026   2.305   4.801   7.955 -0.1759 -0.9461 -1.5065
  168SAPE  C31219027   2.494   4.845   8.058  0.4461  0.2231 -0.3102
  168SAPE  H12X19028   2.452   4.927   8.121 -2.0165 -2.0502  1.1191
  168SAPE  H12Y19029   2.603   4.862   8.043  0.7922  0.9778  2.6899
  168SAPE  C31319030   2.492   4.715   8.149  0.3701 -0.0022  0.2295
  168SAPE  H13X19031   2.521   4.618   8.105  0.8048 -0.2911  1.1231
  168SAPE  H13Y19032   2.385   4.704   8.175 -0.4720  0.5691 -2.8526
  168SAPE  C31419033   2.562   4.731   8.278  0.1731  0.2500 -0.6379
  168SAPE  H14X19034   2.560   4.838   8.306  1.9161 -0.1755  1.2365
  168SAPE  H14Y19035   2.671   4.709   8.283  0.1247  0.0549 -0.4225
  168SAPE  C31519036   2.496   4.660   8.394  0.1401 -0.3128  0.0163
  168SAPE  H15X19037   2.473   4.553   8.373  0.4778 -0.6189  1.1410
  168SAPE  H15Y19038   2.395   4.703   8.408 -0.4787 -0.8186 -2.7490
  168SAPE  C31619039   2.577   4.677   8.529 -0.1010 -0.7480  0.2760
  168SAPE  H16X19040   2.615   4.782   8.535 -0.0192 -0.7214 -0.6727
  168SAPE  H16Y19041   2.664   4.610   8.515  1.6170  1.3375  0.7386
  168SAPE  C31719042   2.484   4.650   8.649  0.2495  0.5296 -0.0525
  168SAPE  H17X19043   2.441   4.548   8.643  0.1458  0.4507  1.8035
  168SAPE  H17Y19044   2.402   4.724   8.646 -1.3357 -1.0827  1.9907
  168SAPE  C31819045   2.562   4.654   8.779 -0.2970  0.1527  0.6602
  168SAPE  H18X19046   2.487   4.663   8.859 -0.8261  2.4230 -0.0772
  168SAPE  H18Y19047   2.643   4.730   8.778 -0.4748  0.3363  0.0096
  168SAPE  H18Z19048   2.616   4.557   8.791  0.5779  0.3265 -1.5590
  169SAPE     N19049   1.000   6.696   6.099  0.3247  0.9299  0.0485
  169SAPE   HN119050   0.967   6.670   6.004  2.1108 -0.4040 -0.2233
  169SAPE   HN219051   1.043   6.607   6.132 -2.2609  0.3975  2.1938
  169SAPE   HN319052   0.919   6.725   6.158 -2.0026 -1.3502 -1.9355
  169SAPE   C1219053   1.100   6.806   6.081  0.0135 -0.4021 -0.0355
  169SAPE  H12A19054   1.050   6.903   6.061  1.1018 -0.0306 -1.0171
  169SAPE  H12B19055   1.173   6.782   6.000  0.7800  2.6105 -0.2784
  169SAPE   C1119056   1.176   6.819   6.209  0.2183 -0.0222 -0.4489
  169SAPE  H11A19057   1.108   6.844   6.293 -0.0873 -1.8513 -0.1217
  169SAPE  H11B19058   1.249   6.902   6.199  0.3437 -0.4122 -3.3387
  169SAPE     P19059   1.315   6.687   6.386  0.0580 -0.0261 -0.1003
  169SAPE   O1319060   1.372   6.552   6.414  0.1761 -0.4544  0.3208
  169SAPE   O1419061   1.411   6.799   6.388 -0.3666 -0.1752 -0.4166
  169SAPE   O1219062   1.244   6.690   6.242 -0.1331 -0.0539 -0.5077
  169SAPE   O1119063   1.192   6.728   6.483 -0.8845  0.0106  0.7907
  169SAPE    C119064   1.083   6.638   6.480 -0.2921  0.1851  0.6796
  169SAPE    HA19065   0.999   6.683   6.423 -0.1449  0.8258  0.9689
  169SAPE    HB19066   1.109   6.540   6.434  0.8667  0.6384  0.3703
  169SAPE    C219067   1.039   6.610   6.625 -0.0526  0.3782 -0.2507
  169SAPE    HS19068   0.930   6.586   6.624  0.0069  0.0361  0.6966
  169SAPE   O2119069   1.060   6.724   6.708  0.4182  0.2425 -0.0589
  169SAPE   C2119070   0.977   6.828   6.671 -0.0235  0.6982  0.3601
  169SAPE   O2219071   0.900   6.837   6.576 -0.2489  0.3618 -0.0927
  169SAPE   C2219072   0.995   6.935   6.772 -0.1456 -0.3889 -0.3992
  169SAPE   H2R19073   1.080   6.922   6.842 -0.4245 -1.8261 -0.3044
  169SAPE   H2S19074   1.014   7.029   6.716 -1.9657 -0.6921 -1.5787
  169SAPE    C319075   1.113   6.491   6.694 -0.0592  0.5151 -0.6093
  169SAPE    HX19076   1.219   6.519   6.676  0.1513 -0.6086 -1.2208
  169SAPE    HY19077   1.091   6.394   6.644 -1.8138  0.3959  0.3348
  169SAPE   O3119078   1.075   6.482   6.835 -0.2437 -0.4818 -0.7250
  169SAPE   C3119079   0.949   6.438   6.856 -0.5835  1.1158 -0.8916
  169SAPE   O3219080   0.875   6.397   6.771 -0.9815  0.0036 -0.0905
  169SAPE   C3219081   0.917   6.452   7.001  0.1734  0.2807  0.2830
  169SAPE   H2X19082   0.810   6.424   7.014  0.3768 -0.2889  0.6958
  169SAPE   H2Y19083   0.918   6.561   7.022 -0.0824  0.1973  0.7270
  169SAPE   C2319084   0.872   6.960   6.866  0.0667 -0.3373  0.6845
  169SAPE   H3R19085   0.786   6.970   6.796  1.3419  1.0870 -0.7125
  169SAPE   H3S19086   0.885   7.041   6.940  2.8659  0.7155 -0.8767
  169SAPE   C2419087   0.850   6.834   6.957  0.1679  0.5906 -0.0026
  169SAPE   H4R19088   0.932   6.819   7.031  0.9711  0.2387 -0.9493
  169SAPE   H4S19089   0.842   6.741   6.897 -0.7745 -0.0404  1.0868
  169SAPE   C2519090   0.709   6.840   7.016 -0.5438 -0.0993 -0.0616
  169SAPE   H5R19091   0.623   6.854   6.949 -1.3801 -0.1456  0.9870
  169SAPE   C2619092   0.683   6.855   7.146  0.8059 -0.0746 -0.5586
  169SAPE   H6R19093   0.581   6.847   7.186  0.7513  0.2789 -0.6235
  169SAPE   C2719094   0.783   6.875   7.259  0.1605 -0.1224  0.3720
  169SAPE   H7R19095   0.867   6.805   7.243 -1.0440 -1.3646 -0.6429
  169SAPE   H7S19096   0.736   6.836   7.352  3.9177  0.1043  2.4613
  169SAPE   C2819097   0.839   7.015   7.283 -0.1161 -0.4894 -0.1461
  169SAPE   H8R19098   0.799   7.094   7.218 -0.8059 -0.0072  0.8588
  169SAPE   C2919099   0.926   7.054   7.373 -0.4346 -0.4400 -0.0855
  169SAPE   H9R19100   0.950   7.161   7.377 -0.9698 -0.3956  3.5346
  169SAPE  C21019101   0.993   6.966   7.477 -0.1417 -0.0609  0.2686
  169SAPE  H10R19102   1.089   7.013   7.508 -1.4523  1.0713  2.7468
  169SAPE  H10S19103   1.019   6.872   7.423 -0.2524  0.9724 -1.6322
  169SAPE  C21119104   0.905   6.945   7.598 -0.3424 -0.4732 -0.2625
  169SAPE  H11R19105   0.799   6.968   7.582 -1.1318 -3.8118 -0.1624
  169SAPE  C21219106   0.950   6.912   7.721 -0.1747  0.3383  0.4118
  169SAPE  H12R19107   0.878   6.892   7.801 -0.0559 -2.7696 -0.1984
  169SAPE  C21319108   1.098   6.897   7.763  0.2355 -0.5346 -0.8766
  169SAPE  H13R19109   1.134   6.999   7.789  1.0770 -1.2981  1.0849
  169SAPE  H13S19110   1.160   6.861   7.678  2.3097  0.6893  0.0743
  169SAPE  C21419111   1.123   6.798   7.885 -0.1392  0.3922 -0.0803
  169SAPE  H14R19112   1.130   6.694   7.848 -2.4338  0.2863 -0.2731
  169SAPE  C21519113   1.127   6.819   8.022 -0.1460 -0.1437 -0.5247
  169SAPE  H15R19114   1.131   6.739   8.098  0.8343 -1.6438 -2.1194
  169SAPE  C21619115   1.104   6.957   8.085 -0.6448  0.4742 -0.6966
  169SAPE  H16R19116   0.995   6.982   8.082 -1.0784 -1.1889  0.2479
  169SAPE  H16S19117   1.161   7.033   8.028  0.2619 -1.3223 -2.2616
  169SAPE  C21719118   1.147   6.957   8.230 -1.5108  0.6551 -0.5705
  169SAPE  H17R19119   1.138   7.058   8.275 -1.3357  0.4739 -0.1300
  169SAPE  H17S19120   1.255   6.930   8.229 -1.2508  1.6118  0.5999
  169SAPE  C21819121   1.066   6.854   8.316  0.7256 -1.3119  0.2277
  169SAPE  H18R19122   1.104   6.750   8.323  1.3109 -1.2128 -1.1816
  169SAPE  H18S19123   0.957   6.854   8.298  0.6652  0.6609  0.4632
  169SAPE  C21919124   1.086   6.888   8.463 -0.4467 -0.1597  0.5300
  169SAPE  H19R19125   1.044   6.988   8.486 -0.5097  0.0233 -0.3695
  169SAPE  H19S19126   1.195   6.891   8.484 -0.3264 -0.1689 -0.1048
  169SAPE  C22019127   1.017   6.785   8.556 -0.8163  0.6894 -0.0734
  169SAPE  H20R19128   1.061   6.687   8.528  1.9398  1.8364  0.1184
  169SAPE  H20S19129   0.907   6.775   8.541 -0.5986  0.6581 -1.6286
  169SAPE  H20T19130   1.030   6.799   8.666  1.8230  1.7196 -0.4955
  169SAPE   C3319131   1.005   6.361   7.080  0.0746 -0.4324  0.5527
  169SAPE   H3X19132   1.105   6.349   7.033 -0.2317  3.4265 -1.2969
  169SAPE   H3Y19133   0.952   6.264   7.088 -0.8110 -0.0029 -0.0792
  169SAPE   C3419134   1.019   6.423   7.220  0.5981 -0.0749 -0.6036
  169SAPE   H4X19135   1.064   6.524   7.211 -2.3752  1.0814 -3.4753
  169SAPE   H4Y19136   1.076   6.358   7.290  2.6524  1.6448 -0.6288
  169SAPE   C3519137   0.884   6.432   7.304  1.2656  0.3438  0.0797
  169SAPE   H5X19138   0.852   6.325   7.308  1.2058  0.3686  0.2887
  169SAPE   H5Y19139   0.806   6.488   7.248 -0.5466  0.5703  2.7376
  169SAPE   C3619140   0.907   6.481   7.446 -0.4745  0.3585 -1.1342
  169SAPE   H6X19141   0.928   6.590   7.444 -0.3216  0.3348 -0.8699
  169SAPE   H6Y19142   0.998   6.439   7.493  0.5983  1.1333 -2.4600
  169SAPE   C3719143   0.784   6.453   7.533  0.1701 -0.5216 -0.4459
  169SAPE   H7X19144   0.749   6.352   7.504 -0.9182  0.0489 -1.1498
  169SAPE   H7Y19145   0.705   6.524   7.502  2.2164  1.7840 -0.5314
  169SAPE   C3819146   0.804   6.472   7.693  0.3872  0.6164 -0.1769
  169SAPE   H8X19147   0.850   6.570   7.721  1.5049 -0.1372  0.6655
  169SAPE   H8Y19148   0.865   6.389   7.734  0.9205  0.4902 -1.2067
  169SAPE   C3919149   0.665   6.470   7.760  0.4493 -0.0046 -0.5791
  169SAPE   H9X19150   0.622   6.367   7.754  0.2135  0.0805 -0.3437
  169SAPE   H9Y19151   0.593   6.546   7.723  0.4245  0.5861  0.6763
  169SAPE  C31019152   0.668   6.506   7.911  0.6582 -0.5448 -0.2771
  169SAPE  H10X19153   0.727   6.429   7.966 -2.3546 -1.5761  1.6465
  169SAPE  H10Y19154   0.564   6.498   7.950  1.6102  0.2988  2.5313
  169SAPE  C31119155   0.732   6.643   7.929 -0.0637 -0.6554  0.1302
  169SAPE  H11X19156   0.693   6.707   7.847 -0.7709  1.0138  1.7278
  169SAPE  H11Y19157   0.842   6.631   7.923  0.1153 -0.3942  2.5973
  169SAPE  C31219158   0.700   6.714   8.067 -0.4100 -0.4307 -0.3209
  169SAPE  H12X19159   0.609   6.774   8.047 -0.2817  0.0359  0.4672
  169SAPE  H12Y19160   0.782   6.788   8.082 -0.0247 -1.1398  1.1827
  169SAPE  C31319161   0.692   6.616   8.181 -0.2613  0.5159  0.0959
  169SAPE  H13X19162   0.779   6.551   8.205 -0.8453  0.0254  0.9420
  169SAPE  H13Y19163   0.612   6.544   8.156  0.3081 -0.4590  0.9960
  169SAPE  C31419164   0.642   6.688   8.314  0.1603  0.2243 -0.1894
  169SAPE  H14X19165   0.547   6.742   8.295  1.2481  2.3655  0.2804
  169SAPE  H14Y19166   0.703   6.778   8.336 -2.2004  2.0671 -0.9405
  169SAPE  C31519167   0.625   6.597   8.440  0.6000  0.8457 -0.2309
  169SAPE  H15X19168   0.623   6.664   8.529 -1.3421  1.5814 -0.8067
  169SAPE  H15Y19169   0.713   6.530   8.439  0.0399  0.1141 -1.1750
  169SAPE  C31619170   0.487   6.525   8.424 -0.5495  0.5585  0.1377
  169SAPE  H16X19171   0.479   6.486   8.320  2.1111  2.1574 -0.7031
  169SAPE  H16Y19172   0.406   6.601   8.433 -0.5132  0.9473 -2.3800
  169SAPE  C31719173   0.453   6.421   8.532 -0.3645 -0.7786  0.7880
  169SAPE  H17X19174   0.540   6.361   8.564  0.0499  0.0223  1.1893
  169SAPE  H17Y19175   0.376   6.346   8.504  0.8464 -1.6245 -0.3146
  169SAPE  C31819176   0.414   6.493   8.667 -0.3621  0.1283  0.1979
  169SAPE  H18X19177   0.309   6.530   8.664  0.2021  1.8094  0.5691
  169SAPE  H18Y19178   0.488   6.572   8.695 -1.6021  1.0195  1.0159
  169SAPE  H18Z19179   0.421   6.416   8.746 -0.5490 -0.1999 -0.1103
  170SAPE     N19180   2.470   3.761   5.923  0.0558 -0.3458 -0.1217
  170SAPE   HN119181   2.531   3.685   5.961 -0.1601  0.9235  2.8798
  170SAPE   HN219182   2.384   3.714   5.887 -1.1352 -1.0858  3.5029
  170SAPE   HN319183   2.525   3.803   5.846  0.0687  1.4152  0.8371
  170SAPE   C1219184   2.427   3.836   6.055 -1.0394 -0.2695 -0.0874
  170SAPE  H12A19185   2.351   3.914   6.032 -2.9136 -1.3124  2.3542
  170SAPE  H12B19186   2.520   3.879   6.099 -2.4753 -1.0558  3.9649
  170SAPE   C1119187   2.363   3.730   6.150  0.3932  0.5689 -0.3188
  170SAPE  H11A19188   2.334   3.785   6.242 -1.0936 -2.0445  0.8253
  170SAPE  H11B19189   2.444   3.660   6.182 -0.6635 -1.5516 -2.1401
  170SAPE     P19190   2.111   3.721   6.109 -0.0385  0.6202 -0.1536
  170SAPE   O1319191   2.114   3.867   6.065  0.9144  0.4827 -0.7359
  170SAPE   O1419192   2.019   3.635   6.033 -0.3087 -0.5523 -0.9457
  170SAPE   O1219193   2.252   3.655   6.096  0.5593 -0.1307 -0.2197
  170SAPE   O1119194   2.082   3.715   6.261  0.0960  0.0016  0.1504
  170SAPE    C119195   2.133   3.605   6.340 -1.0513 -0.1566  0.5028
  170SAPE    HA19196   2.114   3.511   6.283  0.6869  0.9073 -1.9191
  170SAPE    HB19197   2.243   3.616   6.352 -0.9628  0.7184 -1.0127
  170SAPE    C219198   2.066   3.590   6.479 -0.1260 -0.7179 -0.1682
  170SAPE    HS19199   1.959   3.565   6.460  0.3015 -2.4314 -0.3771
  170SAPE   O2119200   2.078   3.708   6.559  0.0068  0.3553 -0.4974
  170SAPE   C2119201   1.977   3.730   6.651  0.2418  0.3262  0.0809
  170SAPE   O2219202   1.892   3.648   6.673  0.4504  0.0409  0.3323
  170SAPE   C2219203   2.005   3.859   6.723 -0.0053 -0.3321  0.3588
  170SAPE   H2R19204   2.104   3.900   6.695 -1.0316  2.0167  0.1046
  170SAPE   H2S19205   1.935   3.931   6.675  0.1871 -0.8373 -0.6921
  170SAPE    C319206   2.124   3.459   6.547  0.4415  0.2174  0.5662
  170SAPE    HX19207   2.233   3.478   6.561  1.3093 -4.1010  0.4643
  170SAPE    HY19208   2.119   3.369   6.482  3.0022  0.4919 -0.0836
  170SAPE   O3119209   2.063   3.419   6.665  0.1828  0.4549  0.2917
  170SAPE   C3119210   1.947   3.351   6.668 -0.2902  0.3781 -0.4015
  170SAPE   O3219211   1.884   3.305   6.576  0.3524 -0.0386 -0.1150
  170SAPE   C3219212   1.918   3.326   6.818  0.5269  0.1185 -0.3630
  170SAPE   H2X19213   1.903   3.424   6.867 -0.3097  0.3149 -0.9945
  170SAPE   H2Y19214   2.001   3.272   6.867 -1.1157 -1.1240  1.1462
  170SAPE   C2319215   1.992   3.851   6.876 -0.5794  0.2154 -0.2707
  170SAPE   H3R19216   1.889   3.819   6.904  0.1976 -1.8600  0.3433
  170SAPE   H3S19217   2.022   3.949   6.917 -1.4723  0.8648 -1.1428
  170SAPE   C2419218   2.093   3.754   6.932 -0.5364  0.1951 -0.3580
  170SAPE   H4R19219   2.072   3.649   6.904  1.2357 -0.7782  1.8793
  170SAPE   H4S19220   2.078   3.757   7.042 -1.5151 -0.3882 -0.4691
  170SAPE   C2519221   2.238   3.789   6.897 -0.0891  0.0485 -0.4906
  170SAPE   H5R19222   2.272   3.736   6.806 -1.1080 -0.5272 -0.5394
  170SAPE   C2619223   2.323   3.868   6.967 -0.0966 -0.9197 -0.1096
  170SAPE   H6R19224   2.424   3.891   6.931 -1.5316  0.7498 -3.1925
  170SAPE   C2719225   2.292   3.937   7.097  0.0323  0.0926 -0.4368
  170SAPE   H7R19226   2.379   3.928   7.165  0.1004 -1.2634 -0.6813
  170SAPE   H7S19227   2.203   3.891   7.146  0.1130 -0.1454 -0.5142
  170SAPE   C2819228   2.267   4.084   7.068 -0.2983 -0.4817  0.2883
  170SAPE   H8R19229   2.198   4.105   6.985  1.8284  2.4826 -0.8218
  170SAPE   C2919230   2.342   4.188   7.124 -0.1819  0.1737 -0.1666
  170SAPE   H9R19231   2.312   4.290   7.097 -4.7493 -0.5821  1.5873
  170SAPE  C21019232   2.455   4.191   7.231 -0.1534 -0.1994 -0.3274
  170SAPE  H10R19233   2.518   4.274   7.194 -1.3420 -0.1013 -2.2227
  170SAPE  H10S19234   2.511   4.095   7.240  0.4352  0.2108  0.3672
  170SAPE  C21119235   2.393   4.216   7.368 -0.6129  0.7727 -0.1684
  170SAPE  H11R19236   2.374   4.117   7.411  2.0136  1.5948  3.0970
  170SAPE  C21219237   2.362   4.323   7.432 -0.0408  0.0656  0.1345
  170SAPE  H12R19238   2.330   4.327   7.537  2.0587  1.3533  0.7524
  170SAPE  C21319239   2.383   4.468   7.381  0.7498 -0.2136 -0.5335
  170SAPE  H13R19240   2.422   4.473   7.277  0.0628 -1.7066 -0.8786
  170SAPE  H13S19241   2.451   4.529   7.445  1.1719 -0.4350 -0.7718
  170SAPE  C21419242   2.247   4.533   7.378 -1.0348  0.0319 -0.3927
  170SAPE  H14R19243   2.211   4.549   7.275  0.0497 -2.0016 -1.1197
  170SAPE  C21519244   2.168   4.581   7.474  0.1436 -0.2693 -0.3104
  170SAPE  H15R19245   2.083   4.648   7.455  1.9301  1.7843 -1.2876
  170SAPE  C21619246   2.216   4.578   7.622 -0.2413  0.1122 -0.4391
  170SAPE  H16R19247   2.188   4.673   7.674  0.4302 -1.7801  3.5377
  170SAPE  H16S19248   2.327   4.575   7.623 -0.2583 -0.1727  0.4034
  170SAPE  C21719249   2.154   4.460   7.689 -0.3436  0.4931  0.6465
  170SAPE  H17R19250   2.152   4.364   7.633  1.8336 -0.1775  1.6619
  170SAPE  H17S19251   2.047   4.488   7.699  0.1164  2.2960  0.7719
  170SAPE  C21819252   2.201   4.431   7.836  0.0751 -0.3353 -0.2695
  170SAPE  H18R19253   2.311   4.425   7.825  0.2026  0.5165  0.5684
  170SAPE  H18S19254   2.153   4.334   7.864 -0.8942  0.0183 -0.6768
  170SAPE  C21919255   2.166   4.535   7.938 -0.0508  0.3259 -0.1272
  170SAPE  H19R19256   2.058   4.552   7.919 -0.9087 -3.0015  1.2764
  170SAPE  H19S19257   2.213   4.633   7.918  0.7488 -0.4447 -2.2032
  170SAPE  C22019258   2.206   4.504   8.086  0.0346  0.7960  0.2456
  170SAPE  H20R19259   2.315   4.511   8.105 -0.1903 -2.2734  3.2298
  170SAPE  H20S19260   2.184   4.399   8.117 -2.2349  0.8870 -0.9553
  170SAPE  H20T19261   2.160   4.569   8.163  0.2779  1.6168 -0.3067
  170SAPE   C3319262   1.787   3.241   6.828  0.5749  0.1526 -0.0610
  170SAPE   H3X19263   1.803   3.145   6.774 -0.6622 -0.9498  1.4745
  170SAPE   H3Y19264   1.698   3.279   6.773 -1.4853 -2.0610  1.6158
  170SAPE   C3419265   1.763   3.187   6.972  0.3689 -0.1851 -0.1005
  170SAPE   H4X19266   1.737   3.269   7.042 -0.3656 -1.1413  0.7605
  170SAPE   H4Y19267   1.856   3.142   7.012  2.3635  1.0457 -3.1924
  170SAPE   C3519268   1.655   3.072   6.986  0.8686  0.2930  0.6893
  170SAPE   H5X19269   1.702   2.988   6.930  0.3969  0.3143  0.2662
  170SAPE   H5Y19270   1.553   3.082   6.943  0.0465 -1.9413  2.0211
  170SAPE   C3619271   1.642   3.025   7.133  0.9929  0.0891 -0.6103
  170SAPE   H6X19272   1.738   3.009   7.188  0.8980  2.1849  0.2202
  170SAPE   H6Y19273   1.592   2.926   7.135  0.7343  0.1718 -2.6751
  170SAPE   C3719274   1.562   3.115   7.232 -0.2020  0.4789  0.0133
  170SAPE   H7X19275   1.457   3.132   7.200  0.2000 -0.9841 -2.1694
  170SAPE   H7Y19276   1.597   3.221   7.233  1.2090  0.0368 -0.1917
  170SAPE   C3819277   1.566   3.067   7.382 -0.2879  0.3473  1.2427
  170SAPE   H8X19278   1.674   3.059   7.406  0.2333  0.8326 -0.8653
  170SAPE   H8Y19279   1.515   2.969   7.389 -2.0218  0.7951 -3.5218
  170SAPE   C3919280   1.498   3.158   7.482  0.1960 -0.0189 -0.3257
  170SAPE   H9X19281   1.398   3.170   7.436 -0.4642 -2.1487  0.5060
  170SAPE   H9Y19282   1.546   3.258   7.485  1.4318 -0.5974 -0.1884
  170SAPE  C31019283   1.492   3.100   7.626 -0.3197  0.1074 -0.5799
  170SAPE  H10X19284   1.592   3.107   7.675 -1.0834  1.7643  0.8089
  170SAPE  H10Y19285   1.469   2.991   7.622 -0.7207  0.2220 -1.4005
  170SAPE  C31119286   1.396   3.168   7.715  0.6548 -0.0247  0.1862
  170SAPE  H11X19287   1.308   3.157   7.649  0.7658 -1.2964  0.2353
  170SAPE  H11Y19288   1.420   3.275   7.729  1.8006 -0.1410 -0.7536
  170SAPE  C31219289   1.357   3.098   7.852  0.6002 -0.0372  0.2674
  170SAPE  H12X19290   1.340   2.989   7.835 -1.9291  0.5859 -1.5036
  170SAPE  H12Y19291   1.268   3.144   7.899  0.9891  0.2946  0.6719
  170SAPE  C31319292   1.472   3.098   7.958 -0.6450 -0.6084  0.4377
  170SAPE  H13X19293   1.534   3.189   7.951 -0.8491 -0.3836  1.4171
  170SAPE  H13Y19294   1.538   3.009   7.949 -0.5151 -0.5403  0.7136
  170SAPE  C31419295   1.420   3.087   8.103  0.1488 -0.5065 -0.4504
  170SAPE  H14X19296   1.346   3.167   8.122  0.8487 -0.2269  1.1777
  170SAPE  H14Y19297   1.502   3.104   8.176  0.7072 -1.2969 -0.8771
  170SAPE  C31519298   1.359   2.943   8.132 -0.6459 -0.5328  0.7634
  170SAPE  H15X19299   1.430   2.874   8.083 -0.1187 -0.3120  1.2087
  170SAPE  H15Y19300   1.266   2.932   8.073  0.9005 -0.0374 -1.8423
  170SAPE  C31619301   1.351   2.909   8.284 -0.5617  0.0408 -0.8060
  170SAPE  H16X19302   1.314   3.002   8.334 -0.5536 -0.1358 -0.4721
  170SAPE  H16Y19303   1.453   2.901   8.329 -0.8961  2.2037  0.4123
  170SAPE  C31719304   1.253   2.793   8.319  0.1617 -0.0877 -0.1224
  170SAPE  H17X19305   1.281   2.702   8.262  1.4382 -0.6838  1.4238
  170SAPE  H17Y19306   1.156   2.833   8.282  0.4101  0.3337 -0.3288
  170SAPE  C31819307   1.264   2.755   8.460 -0.3267  0.4838 -0.1032
  170SAPE  H18X19308   1.221   2.653   8.477  0.1825  0.3094  0.1532
  170SAPE  H18Y19309   1.218   2.828   8.530 -0.1167 -1.4695  2.1585
  170SAPE  H18Z19310   1.370   2.750   8.493 -0.4203  1.1674  0.3049
  171SAPE     N19311   3.436   5.079   6.230  0.3265 -0.3938 -0.8360
  171SAPE   HN119312   3.349   5.120   6.191 -0.6563 -1.9482 -0.3264
  171SAPE   HN219313   3.475   5.011   6.162 -1.0601 -0.6172 -1.4117
  171SAPE   HN319314   3.400   5.033   6.316  0.3339 -0.7435 -1.0195
  171SAPE   C1219315   3.539   5.192   6.250  0.0449 -0.2417  0.2403
  171SAPE  H12A19316   3.567   5.198   6.358 -1.7583  1.4489  0.6236
  171SAPE  H12B19317   3.498   5.293   6.229  0.4791 -0.4738 -1.8206
  171SAPE   C1119318   3.661   5.166   6.169 -0.4036  0.3066 -0.1689
  171SAPE  H11A19319   3.748   5.230   6.198 -2.0377  1.4524  2.4092
  171SAPE  H11B19320   3.635   5.182   6.062 -0.4481 -0.8098 -0.3298
  171SAPE     P19321   3.846   4.990   6.162  0.1380  0.1924  0.0057
  171SAPE   O1319322   3.855   4.850   6.110 -0.0427 -0.5560 -0.3843
  171SAPE   O1419323   3.929   5.091   6.091 -0.2013  0.2743 -0.5375
  171SAPE   O1219324   3.693   5.030   6.169 -0.2766 -0.0918  0.6695
  171SAPE   O1119325   3.890   4.986   6.323 -0.5150  0.3699  0.2647
  171SAPE    C119326   3.792   4.905   6.406  0.2340 -0.2944 -0.3319
  171SAPE    HA19327   3.693   4.954   6.393  0.4131  0.3594  0.7291
  171SAPE    HB19328   3.769   4.799   6.382  0.6607 -0.9504  2.0174
  171SAPE    C219329   3.834   4.910   6.558 -0.3139  0.1361  0.2641
  171SAPE    HS19330   3.739   4.904   6.615 -1.2209 -1.7480 -1.4021
  171SAPE   O2119331   3.907   5.033   6.588  0.1816  0.0519 -0.1186
  171SAPE   C2119332   3.839   5.136   6.596 -0.1311  0.0938  1.0822
  171SAPE   O2219333   3.714   5.132   6.593 -0.2344 -0.8499  0.0447
  171SAPE   C2219334   3.930   5.250   6.639 -0.2899  0.1771  0.3095
  171SAPE   H2R19335   3.977   5.308   6.557 -0.5922 -1.2184 -0.8738
  171SAPE   H2S19336   3.866   5.329   6.685  0.0716  0.7972 -0.2392
  171SAPE    C319337   3.918   4.787   6.595 -0.2142 -0.5005  0.3740
  171SAPE    HX19338   4.005   4.780   6.526 -1.1315  2.5926 -1.1777
  171SAPE    HY19339   3.847   4.702   6.584 -0.1454 -0.5876  0.5954
  171SAPE   O3119340   3.971   4.803   6.728  0.0994  0.4342  0.1605
  171SAPE   C3119341   3.886   4.775   6.821  0.3720  0.2604  0.1595
  171SAPE   O3219342   3.767   4.745   6.805 -0.0525 -0.5708  0.3833
  171SAPE   C3219343   3.951   4.783   6.960 -0.1317  0.1833  0.1921
  171SAPE   H2X19344   4.010   4.875   6.975 -0.9736  0.5209  1.5851
  171SAPE   H2Y19345   4.016   4.694   6.974  0.8010  0.1316 -4.0378
  171SAPE   C2319346   4.045   5.210   6.733  0.2759 -0.1938 -0.4735
  171SAPE   H3R19347   4.117   5.291   6.757  0.4307  0.0273 -1.7039
  171SAPE   H3S19348   4.106   5.129   6.688  0.3029 -0.6477  0.3486
  171SAPE   C2419349   4.005   5.161   6.876  0.3488  0.7487  0.3428
  171SAPE   H4R19350   3.962   5.060   6.859  2.4861 -0.1479  0.1128
  171SAPE   H4S19351   3.921   5.224   6.913  0.2199  0.6543  0.2133
  171SAPE   C2519352   4.122   5.149   6.968  0.4456 -0.3250  0.1860
  171SAPE   H5R19353   4.211   5.104   6.923 -0.0681 -1.8278  0.6347
  171SAPE   C2619354   4.131   5.192   7.094 -0.7161  0.7556  0.2566
  171SAPE   H6R19355   4.228   5.171   7.143 -0.4560  0.5747 -0.3297
  171SAPE   C2719356   4.027   5.258   7.175  0.0869  0.6267 -0.1634
  171SAPE   H7R19357   3.958   5.314   7.108  1.5818  1.9327 -0.6353
  171SAPE   H7S19358   4.073   5.332   7.243  0.7131  1.2344 -1.2407
  171SAPE   C2819359   3.940   5.157   7.253  0.1038  0.3392 -0.0051
  171SAPE   H8R19360   3.870   5.096   7.193 -1.9320  1.1329  1.5004
  171SAPE   C2919361   3.926   5.169   7.391  0.2567 -0.2127  0.3922
  171SAPE   H9R19362   3.847   5.106   7.436 -1.2821 -0.3073 -2.3489
  171SAPE  C21019363   3.994   5.277   7.481  0.1876 -0.3504  0.6822
  171SAPE  H10R19364   3.953   5.377   7.455 -1.0350 -0.9700  0.2106
  171SAPE  H10S19365   4.098   5.302   7.450 -0.0491 -0.2124 -0.0143
  171SAPE  C21119366   3.980   5.269   7.633 -0.9912  0.0117  0.1854
  171SAPE  H11R19367   3.895   5.320   7.681 -1.5368 -1.5306  0.8795
  171SAPE  C21219368   4.073   5.194   7.698  0.8834 -0.5686  0.1515
  171SAPE  H12R19369   4.075   5.189   7.808  2.3152 -0.2407  0.1453
  171SAPE  C21319370   4.184   5.101   7.647  0.6200 -0.3219  0.3486
  171SAPE  H13R19371   4.162   5.042   7.555  1.1599  1.9869 -1.3024
  171SAPE  H13S19372   4.199   5.029   7.730 -1.4919 -0.3812  0.6971
  171SAPE  C21419373   4.315   5.190   7.612  0.9345  0.5946  0.3436
  171SAPE  H14R19374   4.305   5.260   7.527 -2.5183 -2.2818 -1.7369
  171SAPE  C21519375   4.418   5.194   7.697  0.4531  0.5222  0.0541
  171SAPE  H15R19376   4.508   5.242   7.656 -0.6411  0.6490 -2.2820
  171SAPE  C21619377   4.424   5.138   7.836 -0.0725  0.6667  0.6540
  171SAPE  H16R19378   4.498   5.055   7.835 -2.4560 -1.5185 -2.3055
  171SAPE  H16S19379   4.329   5.093   7.870 -2.1283  2.6018 -2.3068
  171SAPE  C21719380   4.463   5.252   7.929  0.1834  0.2722 -0.6937
  171SAPE  H17R19381   4.366   5.305   7.940 -0.6694 -1.0102 -1.9054
  171SAPE  H17S19382   4.539   5.317   7.882  1.5292 -1.8896 -1.5954
  171SAPE  C21819383   4.502   5.197   8.065 -0.3319  0.7313  0.6373
  171SAPE  H18R19384   4.607   5.161   8.051 -0.5271  0.2429  0.4273
  171SAPE  H18S19385   4.438   5.111   8.093  0.4637  0.1209  0.6147
  171SAPE  C21919386   4.475   5.308   8.169 -0.0430  0.1998 -0.4635
  171SAPE  H19R19387   4.376   5.345   8.135  0.0877 -0.5605 -1.6794
  171SAPE  H19S19388   4.550   5.386   8.144 -0.0967  0.8541  1.3182
  171SAPE  C22019389   4.476   5.275   8.314  0.3267 -0.3731 -0.3996
  171SAPE  H20R19390   4.430   5.178   8.343 -2.8470  2.0168  2.9481
  171SAPE  H20S19391   4.415   5.354   8.363  1.6547  1.5859 -1.8054
  171SAPE  H20T19392   4.581   5.280   8.350 -0.5280  1.4542  1.9222
  171SAPE   C3319393   3.841   4.775   7.072  0.0541  0.0731 -0.1788
  171SAPE   H3X19394   3.781   4.684   7.051  1.6379 -0.4555 -2.6225
  171SAPE   H3Y19395   3.772   4.862   7.060 -0.1137 -0.3613 -2.4775
  171SAPE   C3419396   3.907   4.761   7.213  0.2502  0.1835 -0.5602
  171SAPE   H4X19397   4.001   4.817   7.234  1.0355 -1.1542 -0.4224
  171SAPE   H4Y19398   3.942   4.658   7.234 -1.2921 -0.2267  0.0500
  171SAPE   C3519399   3.811   4.790   7.323 -0.1126 -0.1092  0.0612
  171SAPE   H5X19400   3.742   4.704   7.335 -2.6714  1.7596 -0.8146
  171SAPE   H5Y19401   3.750   4.878   7.293 -1.0601 -0.8246 -0.1622
  171SAPE   C3619402   3.879   4.822   7.457  0.8672 -0.0890  0.4731
  171SAPE   H6X19403   3.931   4.920   7.453 -1.1621  1.0117  0.4063
  171SAPE   H6Y19404   3.952   4.744   7.487  2.0371  0.3320 -1.2135
  171SAPE   C3719405   3.780   4.834   7.570 -0.1184 -0.3582  0.0420
  171SAPE   H7X19406   3.715   4.922   7.550 -0.3199 -0.7693 -1.1517
  171SAPE   H7Y19407   3.837   4.860   7.662  0.2452 -0.9316 -0.0231
  171SAPE   C3819408   3.698   4.703   7.596 -0.0305  0.4257  0.2091
  171SAPE   H8X19409   3.745   4.606   7.572 -1.0373 -0.1671  0.5785
  171SAPE   H8Y19410   3.607   4.711   7.533  0.0488 -1.2915 -0.1375
  171SAPE   C3919411   3.650   4.697   7.742  0.4191 -0.0549 -0.8080
  171SAPE   H9X19412   3.559   4.762   7.744  2.0764  2.4479 -3.0722
  171SAPE   H9Y19413   3.734   4.724   7.810  0.2783  2.4587 -1.5716
  171SAPE  C31019414   3.600   4.555   7.775 -0.3892 -0.7948 -0.5824
  171SAPE  H10X19415   3.682   4.481   7.762 -0.9135 -1.4536 -0.2267
  171SAPE  H10Y19416   3.511   4.522   7.717 -0.3342  0.8570 -1.6281
  171SAPE  C31119417   3.570   4.555   7.921 -0.4029 -0.6865 -0.6653
  171SAPE  H11X19418   3.648   4.616   7.972  0.8677  0.1454 -3.5047
  171SAPE  H11Y19419   3.570   4.456   7.972 -0.3153  0.3571  1.4487
  171SAPE  C31219420   3.425   4.621   7.950 -0.0105  0.2370  0.2650
  171SAPE  H12X19421   3.350   4.584   7.876  0.3332 -1.8444  0.9131
  171SAPE  H12Y19422   3.440   4.731   7.941 -1.7689  0.5491  1.1248
  171SAPE  C31319423   3.384   4.580   8.099 -0.2869  0.2172 -0.5172
  171SAPE  H13X19424   3.456   4.631   8.166  0.4026  0.0690 -1.1380
  171SAPE  H13Y19425   3.391   4.470   8.112  1.1213  0.1870 -1.3416
  171SAPE  C31419426   3.242   4.624   8.135  0.4564  0.7675 -0.5730
  171SAPE  H14X19427   3.210   4.560   8.221 -2.3780  2.5418 -0.2066
  171SAPE  H14Y19428   3.186   4.588   8.046 -0.9276  0.5263  0.3669
  171SAPE  C31519429   3.221   4.771   8.172  0.5621  0.7209 -0.3387
  171SAPE  H15X19430   3.222   4.836   8.083  2.9024  0.7934 -0.2802
  171SAPE  H15Y19431   3.305   4.807   8.235 -0.6515 -0.9115  2.3108
  171SAPE  C31619432   3.084   4.805   8.236 -0.1304  0.5927 -0.1859
  171SAPE  H16X19433   3.011   4.729   8.200  0.7805 -0.6580  0.5628
  171SAPE  H16Y19434   3.058   4.910   8.209 -0.7956 -0.0209 -2.0369
  171SAPE  C31719435   3.077   4.804   8.392  0.4880  0.1829 -0.7977
  171SAPE  H17X19436   3.127   4.893   8.434  0.0704 -0.3105  0.7890
  171SAPE  H17Y19437   3.124   4.707   8.420  0.1203 -0.1698 -1.3797
  171SAPE  C31819438   2.926   4.797   8.437 -0.4842  0.5564 -0.0460
  171SAPE  H18X19439   2.897   4.697   8.399 -0.7341  0.1951  1.1109
  171SAPE  H18Y19440   2.868   4.882   8.394 -1.3234 -0.4029 -0.8332
  171SAPE  H18Z19441   2.914   4.814   8.546 -0.1869  0.1361  0.0538
  172SAPE     N19442   2.782   2.929   6.366  0.1827  0.1773  0.7700
  172SAPE   HN119443   2.751   2.862   6.293  0.6954  0.6854  0.0755
  172SAPE   HN219444   2.838   2.994   6.308  0.6404 -1.0922 -0.2079
  172SAPE   HN319445   2.853   2.875   6.419  0.7906 -0.4318 -0.6656
  172SAPE   C1219446   2.679   3.001   6.444 -0.2031 -0.2617 -0.5459
  172SAPE  H12A19447   2.633   2.935   6.521  0.0334  1.6548  1.2862
  172SAPE  H12B19448   2.602   3.040   6.374 -0.1561  1.3726  0.2857
  172SAPE   C1119449   2.733   3.126   6.520 -0.1532 -0.0720 -0.3801
  172SAPE  H11A19450   2.815   3.097   6.590 -0.7773  1.3619  0.9755
  172SAPE  H11B19451   2.648   3.175   6.572 -0.7696  1.0796 -2.4344
  172SAPE     P19452   2.931   3.238   6.376  0.1327  0.6489 -0.1762
  172SAPE   O1319453   2.997   3.109   6.356 -0.1587  0.5308 -0.1612
  172SAPE   O1419454   2.936   3.331   6.262  0.4990  0.1339  0.3366
  172SAPE   O1219455   2.783   3.227   6.426  0.2035  0.2143  0.0736
  172SAPE   O1119456   3.002   3.317   6.498 -0.1902 -0.2131  0.4953
  172SAPE    C119457   2.992   3.465   6.518  0.2418 -0.4682  0.2043
  172SAPE    HA19458   3.081   3.515   6.474 -1.0679 -0.4981 -2.6049
  172SAPE    HB19459   2.906   3.494   6.453  0.1425 -0.7938  0.1905
  172SAPE    C219460   2.950   3.495   6.667  0.4694 -0.6173  0.8121
  172SAPE    HS19461   2.976   3.603   6.679 -2.7541  0.2758  0.1381
  172SAPE   O2119462   3.031   3.418   6.758  0.3744  0.3030  0.4729
  172SAPE   C2119463   3.158   3.455   6.771 -0.4004 -0.0125  0.5181
  172SAPE   O2219464   3.212   3.552   6.729 -0.0093  0.4518  0.5444
  172SAPE   C2219465   3.233   3.343   6.859 -0.0662  0.5935  0.0130
  172SAPE   H2R19466   3.156   3.310   6.932 -0.4653 -0.7181 -0.9775
  172SAPE   H2S19467   3.248   3.265   6.781  0.4226  2.2924 -1.6278
  172SAPE    C319468   2.796   3.482   6.693  0.5410 -0.5640 -0.0280
  172SAPE    HX19469   2.794   3.378   6.733  1.7514  0.8905  4.0955
  172SAPE    HY19470   2.749   3.486   6.593  1.2327 -3.7592 -0.5367
  172SAPE   O3119471   2.747   3.581   6.782 -0.1015  0.5085  0.1246
  172SAPE   C3119472   2.761   3.569   6.914  0.7620 -0.0090 -0.1119
  172SAPE   O3219473   2.813   3.475   6.974  0.8303  0.0400 -0.0138
  172SAPE   C3219474   2.705   3.697   6.978 -0.4914  0.4373 -0.1985
  172SAPE   H2X19475   2.595   3.685   6.986 -0.6828  1.1642 -1.4720
  172SAPE   H2Y19476   2.721   3.785   6.911 -0.2503  0.4751 -0.0907
  172SAPE   C2319477   3.358   3.389   6.929  0.3115 -0.3611  0.0999
  172SAPE   H3R19478   3.329   3.479   6.987  1.0801 -1.4565  2.2253
  172SAPE   H3S19479   3.430   3.428   6.854 -0.9891  0.9064 -0.5114
  172SAPE   C2419480   3.419   3.277   7.017 -0.8529  0.8280 -0.6683
  172SAPE   H4R19481   3.526   3.305   7.027 -0.6980  0.2328 -0.6506
  172SAPE   H4S19482   3.422   3.178   6.967 -2.0197  0.0891  0.6894
  172SAPE   C2519483   3.354   3.266   7.154 -0.0569  0.1173  0.6146
  172SAPE   H5R19484   3.252   3.227   7.143  0.0529 -0.0496  0.1751
  172SAPE   C2619485   3.409   3.301   7.272 -0.1074 -0.2184 -0.3308
  172SAPE   H6R19486   3.352   3.299   7.366  1.5694 -1.3494  0.6881
  172SAPE   C2719487   3.540   3.377   7.291  0.4834 -0.1790  0.6359
  172SAPE   H7R19488   3.559   3.440   7.202 -0.1384 -0.4062  0.3394
  172SAPE   H7S19489   3.625   3.305   7.288  0.2854 -0.3723 -0.5553
  172SAPE   C2819490   3.542   3.476   7.407  0.6827 -1.1945 -0.3485
  172SAPE   H8R19491   3.548   3.580   7.370  1.3834 -0.2881  2.1818
  172SAPE   C2919492   3.539   3.459   7.542  0.6884  0.2992  0.3518
  172SAPE   H9R19493   3.547   3.543   7.613  1.9504  0.0424  0.5364
  172SAPE  C21019494   3.533   3.323   7.609  0.2188  0.4726 -0.5078
  172SAPE  H10R19495   3.632   3.278   7.627 -0.4316 -1.1556 -0.9198
  172SAPE  H10S19496   3.481   3.253   7.539  0.5545  0.5059 -0.7885
  172SAPE  C21119497   3.471   3.338   7.750  0.3955  0.0991  0.4448
  172SAPE  H11R19498   3.387   3.409   7.750 -0.6211 -1.0058 -2.6191
  172SAPE  C21219499   3.503   3.265   7.854 -0.2578  0.2117  0.2881
  172SAPE  H12R19500   3.452   3.269   7.951 -0.4783  0.3860  0.1638
  172SAPE  C21319501   3.610   3.162   7.836  0.0879  0.6581 -0.8619
  172SAPE  H13R19502   3.709   3.210   7.821  0.0903  1.3391  1.1402
  172SAPE  H13S19503   3.594   3.102   7.744  2.3173 -1.6902  0.2395
  172SAPE  C21419504   3.614   3.071   7.960 -0.1527  0.5407  0.3365
  172SAPE  H14R19505   3.547   2.985   7.940  1.2473 -0.7364  1.0419
  172SAPE  C21519506   3.683   3.083   8.074 -0.4189  0.7028  0.2758
  172SAPE  H15R19507   3.661   3.020   8.161 -0.0105  0.4053  0.1654
  172SAPE  C21619508   3.776   3.195   8.109  0.0953  0.1144  0.3139
  172SAPE  H16R19509   3.823   3.241   8.020 -0.8257 -1.6762 -1.1490
  172SAPE  H16S19510   3.856   3.160   8.178 -0.5171  0.3085  1.1446
  172SAPE  C21719511   3.718   3.319   8.182 -0.2961  0.4528  0.8692
  172SAPE  H17R19512   3.642   3.354   8.109 -0.0749  0.6009  0.7110
  172SAPE  H17S19513   3.786   3.406   8.191  1.0100 -0.4852  0.3003
  172SAPE  C21819514   3.649   3.292   8.312  0.1838 -0.5210 -0.4446
  172SAPE  H18R19515   3.549   3.250   8.287 -0.2206  0.5023 -0.5316
  172SAPE  H18S19516   3.623   3.390   8.355 -1.1250 -1.9471  2.1430
  172SAPE  C21919517   3.730   3.212   8.423  0.6427 -0.5105  0.0376
  172SAPE  H19R19518   3.829   3.262   8.421  0.1705  0.4073 -1.0764
  172SAPE  H19S19519   3.750   3.106   8.396  0.2148 -1.2317  2.4555
  172SAPE  C22019520   3.665   3.218   8.567  0.1324 -0.6820  0.3332
  172SAPE  H20R19521   3.653   3.322   8.604  1.2717  0.0722 -1.3663
  172SAPE  H20S19522   3.731   3.162   8.637  2.7431  1.1335 -0.6051
  172SAPE  H20T19523   3.566   3.170   8.551 -0.0482  1.0524 -4.5003
  172SAPE   C3319524   2.752   3.722   7.124 -1.2034  0.7525 -0.3598
  172SAPE   H3X19525   2.846   3.782   7.123  1.1593 -2.8322 -1.7384
  172SAPE   H3Y19526   2.776   3.628   7.179 -0.5257  2.6251  2.6814
  172SAPE   C3419527   2.658   3.811   7.210  0.3742  0.3957  0.2385
  172SAPE   H4X19528   2.557   3.764   7.209  0.0521  1.0754 -1.3871
  172SAPE   H4Y19529   2.649   3.911   7.163 -1.2233  0.2762  0.2460
  172SAPE   C3519530   2.714   3.828   7.351 -0.4212 -0.7572  0.9882
  172SAPE   H5X19531   2.781   3.917   7.351 -2.0270  0.4869 -1.2215
  172SAPE   H5Y19532   2.773   3.737   7.377  0.5712 -0.1349  0.9495
  172SAPE   C3619533   2.609   3.846   7.460 -0.6726  0.0922 -0.6383
  172SAPE   H6X19534   2.568   3.745   7.477 -1.4826  0.6776  1.1122
  172SAPE   H6Y19535   2.532   3.907   7.409  0.0022 -0.2798 -2.1090
  172SAPE   C3719536   2.668   3.909   7.589  0.3392  0.9154  0.4918
  172SAPE   H7X19537   2.762   3.854   7.611 -1.3835 -0.6118  4.4922
  172SAPE   H7Y19538   2.590   3.903   7.668 -1.0323  1.1393 -0.8164
  172SAPE   C3819539   2.706   4.059   7.569  0.5266  0.0672  0.0868
  172SAPE   H8X19540   2.613   4.108   7.533 -0.4611 -2.4786 -0.9527
  172SAPE   H8Y19541   2.786   4.090   7.499  0.5271  0.5368  0.2968
  172SAPE   C3919542   2.735   4.121   7.706  0.4890 -0.1719 -0.2241
  172SAPE   H9X19543   2.767   4.227   7.697  0.5596 -0.0864  0.9339
  172SAPE   H9Y19544   2.808   4.063   7.765  1.7599  2.3361  0.7726
  172SAPE  C31019545   2.608   4.140   7.798 -0.4098  0.1896  0.2750
  172SAPE  H10X19546   2.583   4.041   7.841  0.4887 -0.8563 -1.5266
  172SAPE  H10Y19547   2.523   4.183   7.741  0.2105 -0.6718 -1.3308
  172SAPE  C31119548   2.632   4.233   7.913  0.4585  0.4170  0.1979
  172SAPE  H11X19549   2.632   4.336   7.869  1.0154  0.5954  0.6177
  172SAPE  H11Y19550   2.727   4.212   7.965  0.4874  2.9857  1.2376
  172SAPE  C31219551   2.525   4.221   8.025 -0.2201 -0.2448 -0.2722
  172SAPE  H12X19552   2.503   4.115   8.050  1.1915 -0.2449  1.0094
  172SAPE  H12Y19553   2.438   4.260   7.967  0.1722  2.6011  1.0058
  172SAPE  C31319554   2.548   4.308   8.150 -0.4512  0.6175 -0.5775
  172SAPE  H13X19555   2.456   4.304   8.212 -1.6937  1.4032 -2.3316
  172SAPE  H13Y19556   2.555   4.414   8.118  2.6973  0.4953 -0.4158
  172SAPE  C31419557   2.674   4.275   8.233  0.2379  0.5455  0.2668
  172SAPE  H14X19558   2.693   4.357   8.304 -0.3307 -0.1844  1.2746
  172SAPE  H14Y19559   2.767   4.289   8.173  0.7432  0.8084  1.1109
  172SAPE  C31519560   2.687   4.136   8.285 -0.3803 -0.2447  0.6572
  172SAPE  H15X19561   2.766   4.142   8.364  1.3848 -0.4927 -1.0376
  172SAPE  H15Y19562   2.722   4.068   8.204  1.0445  0.1393  0.9224
  172SAPE  C31619563   2.563   4.070   8.339  1.1435 -0.1585  0.3882
  172SAPE  H16X19564   2.474   4.087   8.275  0.9463 -2.2536  0.0841
  172SAPE  H16Y19565   2.548   4.107   8.443  0.6470 -0.7621  0.5333
  172SAPE  C31719566   2.578   3.913   8.355  0.0255  0.2574  0.4193
  172SAPE  H17X19567   2.655   3.890   8.431  2.0094  0.1316 -1.5688
  172SAPE  H17Y19568   2.612   3.866   8.260  1.5943  0.9667  0.6231
  172SAPE  C31819569   2.442   3.857   8.393  0.0174 -0.3420  0.0907
  172SAPE  H18X19570   2.369   3.891   8.316  0.8761  1.2875 -0.0164
  172SAPE  H18Y19571   2.409   3.898   8.490  0.3684 -1.5816  0.7414
  172SAPE  H18Z19572   2.443   3.746   8.389  2.1808 -0.3204 -0.8498
  173SOPE     N19573   3.446   0.726  11.140 -0.4295 -0.1790 -0.1471
  173SOPE   HN119574   3.431   0.683  11.234 -1.8160  1.9514  0.6422
  173SOPE   HN219575   3.548   0.732  11.122 -0.5252  1.3183 -0.2091
  173SOPE   HN319576   3.398   0.818  11.140  0.1528  0.1279  0.6067
  173SOPE   C1219577   3.402   0.625  11.034  0.9438 -0.9576 -0.0020
  173SOPE  H12A19578   3.371   0.681  10.943  2.4596 -0.6114 -0.3320
  173SOPE  H12B19579   3.306   0.590  11.076 -0.7306  1.5911 -1.5673
  173SOPE   C1119580   3.490   0.510  11.014 -0.4421 -0.0402 -0.0644
  173SOPE  H11A19581   3.447   0.451  10.931  0.0984  0.8825 -1.0241
  173SOPE  H11B19582   3.492   0.446  11.104  1.0661  1.0250  0.6835
  173SOPE     P19583   3.728   0.442  10.931 -0.1942  0.5607 -0.2979
  173SOPE   O1319584   3.731   0.326  11.027  0.6468 -0.6596 -0.3032
  173SOPE   O1419585   3.858   0.508  10.902 -0.3123 -0.2735  0.0661
  173SOPE   O1219586   3.624   0.548  10.987  0.2582  0.0409  0.3558
  173SOPE   O1119587   3.669   0.389  10.792  0.0856 -0.3407  0.7002
  173SOPE    C119588   3.610   0.487  10.700 -0.0940  0.4625 -0.6432
  173SOPE    HA19589   3.640   0.590  10.729 -0.7063  0.1378  1.1871
  173SOPE    HB19590   3.500   0.482  10.715  0.0160 -0.5479 -0.1602
  173SOPE    C219591   3.663   0.465  10.555 -0.1552  0.4587  0.8304
  173SOPE    HS19592   3.752   0.532  10.561  0.8763 -0.9779  1.7175
  173SOPE   O2119593   3.567   0.494  10.449 -0.9407 -0.4683 -0.5309
  173SOPE   C2119594   3.520   0.619  10.437  0.1933  0.6515 -0.1885
  173SOPE   O2219595   3.551   0.712  10.503  0.1806  0.2154  0.5723
  173SOPE   C2219596   3.449   0.634  10.301 -0.1909  0.1632 -0.2325
  173SOPE   H2R19597   3.396   0.731  10.305 -2.4327 -1.0753  1.8509
  173SOPE   H2S19598   3.379   0.548  10.292 -0.8100  0.5794  0.5048
  173SOPE    C319599   3.716   0.323  10.546 -0.1079  0.1803 -0.0565
  173SOPE    HX19600   3.627   0.259  10.560  0.4106 -0.0601  2.3516
  173SOPE    HY19601   3.791   0.304  10.625  2.0779  1.6962 -1.6802
  173SOPE   O3119602   3.772   0.294  10.419  0.2612 -0.0790  0.2903
  173SOPE   C3119603   3.883   0.353  10.387  1.0034  0.2731  0.4020
  173SOPE   O3219604   3.947   0.427  10.461 -0.2840 -0.2163 -0.1489
  173SOPE   C3219605   3.927   0.300  10.250  0.4144  0.2548  0.3927
  173SOPE   H2X19606   3.834   0.272  10.196  0.3357  1.0201  0.1247
  173SOPE   H2Y19607   3.988   0.210  10.273  1.9918  0.9486 -1.0299
  173SOPE   C2319608   3.552   0.618  10.189  0.0123  0.0641  0.1325
  173SOPE   H3R19609   3.600   0.520  10.205  0.1891 -0.7686 -4.6969
  173SOPE   H3S19610   3.621   0.704  10.202  0.4518 -0.2275 -0.2822
  173SOPE   C2419611   3.483   0.644  10.060 -0.0223  0.5693  0.7687
  173SOPE   H4R19612   3.429   0.551  10.032  0.1007  0.7556 -0.1175
  173SOPE   H4S19613   3.407   0.725  10.062 -0.5542  0.1674 -1.6885
  173SOPE   C2519614   3.570   0.689   9.945  0.3371  0.1911  0.1441
  173SOPE   H5R19615   3.622   0.787   9.957  0.2232  0.4500 -1.4324
  173SOPE   H5S19616   3.653   0.622   9.916 -0.3269 -1.4320  1.8852
  173SOPE   C2619617   3.494   0.711   9.815 -0.1818 -0.2080 -0.4746
  173SOPE   H6R19618   3.435   0.624   9.780 -0.4714 -0.2618  0.1533
  173SOPE   H6S19619   3.431   0.801   9.832  1.6388  0.5907  2.3080
  173SOPE   C2719620   3.584   0.755   9.693  0.4637  0.0271 -0.1069
  173SOPE   H7R19621   3.661   0.828   9.729 -1.2686  1.5203  0.6786
  173SOPE   H7S19622   3.638   0.665   9.658 -1.6705 -1.3481  0.0605
  173SOPE   C2819623   3.507   0.822   9.574  0.1942  0.2633 -0.5126
  173SOPE   H8R19624   3.430   0.745   9.550 -0.2857  0.5625  0.0434
  173SOPE   H8S19625   3.471   0.920   9.612 -1.0395 -0.8349  1.1886
  173SOPE   C2919626   3.601   0.843   9.457  0.6563  0.2369  0.2586
  173SOPE   H9119627   3.646   0.943   9.470  0.4946  0.2231  0.9317
  173SOPE  C21019628   3.615   0.768   9.345  0.1840  0.2408  0.1435
  173SOPE  H10119629   3.691   0.800   9.273  2.3154  0.5701  2.4649
  173SOPE  C21119630   3.552   0.639   9.316  0.1131 -0.3742 -0.0072
  173SOPE  H11R19631   3.477   0.652   9.235 -0.2336  0.0489  0.3831
  173SOPE  H11S19632   3.511   0.594   9.409  0.3953  2.5473  1.5985
  173SOPE  C21219633   3.664   0.546   9.274 -0.7542  0.3264 -0.9054
  173SOPE  H12R19634   3.610   0.451   9.254 -0.1541 -0.5310  1.4607
  173SOPE  H12S19635   3.736   0.534   9.357  1.2549 -0.4824 -2.7324
  173SOPE  C21319636   3.749   0.578   9.146 -0.5238  0.2987  0.7873
  173SOPE  H13R19637   3.824   0.497   9.142 -0.3174  0.5051  0.5400
  173SOPE  H13S19638   3.810   0.669   9.164  1.8100 -1.0825 -0.0207
  173SOPE  C21419639   3.666   0.588   9.016 -0.3515 -0.5600 -0.5114
  173SOPE  H14R19640   3.635   0.692   8.994 -0.1991  0.0281  1.8997
  173SOPE  H14S19641   3.573   0.533   9.039 -0.4926 -0.6362 -1.2518
  173SOPE  C21519642   3.732   0.539   8.887 -0.1551 -0.1130 -0.6278
  173SOPE  H15R19643   3.797   0.454   8.918 -0.0541 -0.1801 -1.0240
  173SOPE  H15S19644   3.806   0.614   8.850 -0.0272  0.8560  1.4755
  173SOPE  C21619645   3.629   0.508   8.778  0.0771 -0.1780  0.5236
  173SOPE  H16R19646   3.563   0.595   8.757  0.2147  0.1036  1.2534
  173SOPE  H16S19647   3.582   0.409   8.794 -1.4056  0.3126 -0.6497
  173SOPE  C21719648   3.705   0.481   8.642 -0.4808  0.5167 -0.2867
  173SOPE  H17R19649   3.778   0.399   8.660 -0.2926  0.7990  0.2426
  173SOPE  H17S19650   3.773   0.564   8.615  0.3879 -0.3513 -0.8007
  173SOPE  C21819651   3.620   0.459   8.516  0.8341 -0.8129  0.7277
  173SOPE  H18R19652   3.554   0.546   8.498  0.3655 -1.3999 -0.4730
  173SOPE  H18S19653   3.552   0.371   8.526 -4.1160  2.4434 -2.2441
  173SOPE  H18T19654   3.688   0.435   8.431 -0.0539 -0.0321 -0.2180
  173SOPE   C3319655   3.992   0.409  10.167  0.4865  0.0605 -0.2586
  173SOPE   H3X19656   4.103   0.408  10.166  0.5066  0.4905  0.8479
  173SOPE   H3Y19657   3.967   0.511  10.205  2.2662  1.0017 -1.5506
  173SOPE   C3419658   3.961   0.417  10.020 -0.0452 -0.0932 -0.1397
  173SOPE   H4X19659   3.852   0.432  10.005  0.1765 -0.4465 -2.3843
  173SOPE   H4Y19660   3.985   0.319   9.975 -0.7568  0.3357 -1.4873
  173SOPE   C3519661   4.010   0.542   9.949  0.0686  0.6702 -0.1669
  173SOPE   H5X19662   4.121   0.550   9.948  0.0256  1.4117  0.4845
  173SOPE   H5Y19663   3.972   0.632  10.002  0.2728  0.9748 -0.5334
  173SOPE   C3619664   3.941   0.555   9.810  0.6465  0.2279  0.0492
  173SOPE   H6X19665   3.838   0.593   9.826  0.1876 -0.0261 -2.2328
  173SOPE   H6Y19666   3.952   0.460   9.753 -1.8226  1.2825 -2.2699
  173SOPE   C3719667   4.019   0.656   9.723  0.4486 -0.0332 -0.0056
  173SOPE   H7X19668   4.111   0.604   9.692  1.2394  0.9032  0.7278
  173SOPE   H7Y19669   4.049   0.741   9.788  1.4375 -1.1448  1.0150
  173SOPE   C3819670   3.936   0.713   9.610 -0.5058  0.9453 -0.7989
  173SOPE   H8X19671   3.898   0.809   9.649  0.2077  1.2110 -0.7432
  173SOPE   H8Y19672   3.846   0.656   9.580  0.6202 -2.4756  1.8902
  173SOPE   C3919673   4.018   0.740   9.479 -0.1832  0.2830  0.0431
  173SOPE   H9X19674   4.005   0.665   9.399 -1.2854  0.7730 -0.2498
  173SOPE   H9Y19675   4.124   0.732   9.513 -0.4616  0.3414  0.9466
  173SOPE  C31019676   3.985   0.876   9.406 -0.4378  0.0460  0.5349
  173SOPE  H10X19677   4.043   0.946   9.469  2.7552 -0.8893 -1.2387
  173SOPE  H10Y19678   3.876   0.897   9.410 -0.5143 -0.4913  1.5207
  173SOPE  C31119679   4.039   0.892   9.265  0.4116 -0.8630 -0.3264
  173SOPE  H11X19680   3.994   0.812   9.201 -0.5841 -1.7948  1.4966
  173SOPE  H11Y19681   4.148   0.876   9.278  0.2669 -1.0621  0.6374
  173SOPE  C31219682   4.008   1.033   9.208 -0.7034  0.7471 -0.7629
  173SOPE  H12X19683   4.081   1.100   9.258  0.8390 -1.8194  0.5616
  173SOPE  H12Y19684   3.901   1.062   9.222 -0.5819  0.3831  0.9867
  173SOPE  C31319685   4.053   1.048   9.060  0.2773  0.3014 -0.1353
  173SOPE  H13X19686   4.160   1.021   9.072 -0.4650 -1.7185  2.3484
  173SOPE  H13Y19687   4.047   1.157   9.038  0.3406  0.4039  0.3557
  173SOPE  C31419688   3.979   0.959   8.967  0.0548  0.3573  0.5937
  173SOPE  H14X19689   4.016   0.854   8.967 -0.7821  0.0512 -0.4034
  173SOPE  H14Y19690   4.004   1.001   8.867 -2.2424 -3.4311 -1.7146
  173SOPE  C31519691   3.826   0.966   8.976  0.2859 -0.0681 -0.3628
  173SOPE  H15X19692   3.784   1.064   9.004 -0.7230 -1.0655  1.7021
  173SOPE  H15Y19693   3.797   0.897   9.058  0.7999 -1.2768 -1.1781
  173SOPE  C31619694   3.744   0.925   8.852 -0.0362 -0.0938 -0.0423
  173SOPE  H16X19695   3.639   0.907   8.884  0.6964 -0.1062  2.4865
  173SOPE  H16Y19696   3.770   0.823   8.816  1.0837  1.0549 -2.5498
  173SOPE  C31719697   3.745   1.019   8.731  0.0082  0.0536  0.2697
  173SOPE  H17X19698   3.695   0.969   8.645  0.5673  0.6960 -0.4343
  173SOPE  H17Y19699   3.853   1.043   8.716 -0.5280  1.4361 -1.4765
  173SOPE  C31819700   3.662   1.148   8.753  1.0338  0.5677  0.8198
  173SOPE  H18X19701   3.645   1.201   8.657 -0.2210 -1.4925 -0.1317
  173SOPE  H18Y19702   3.723   1.209   8.822  2.6234 -0.6960  0.5492
  173SOPE  H18Z19703   3.564   1.136   8.804  0.6729 -1.0173 -0.2046
  174SOPE     N19704   2.925   0.104  11.212 -0.0465 -0.1496  0.4173
  174SOPE   HN119705   2.874   0.151  11.135 -0.4917 -2.7216 -0.9081
  174SOPE   HN219706   2.898   0.004  11.206  0.0465 -0.0684 -1.6020
  174SOPE   HN319707   2.897   0.147  11.302 -0.8808  1.6536 -0.6891
  174SOPE   C1219708   3.071   0.145  11.198  1.1493  0.4944 -0.6719
  174SOPE  H12A19709   3.124   0.067  11.256 -0.6335 -1.0349 -1.0185
  174SOPE  H12B19710   3.095   0.245  11.239  2.1365 -0.3412  0.8341
  174SOPE   C1119711   3.115   0.124  11.048  0.3668  0.2692 -0.0351
  174SOPE  H11A19712   3.127   0.014  11.044 -2.4631 -0.1631  1.9390
  174SOPE  H11B19713   3.210   0.173  11.017  0.5615 -0.7805 -1.1186
  174SOPE     P19714   2.983   0.070  10.829  0.2798 -0.1157 -0.2287
  174SOPE   O1319715   2.882   0.142  10.752 -0.2877 -0.2189 -0.6269
  174SOPE   O1419716   2.958  -0.067  10.880  0.3364 -0.1679 -0.0168
  174SOPE   O1219717   2.995   0.153  10.964  0.0656 -0.3120  0.0488
  174SOPE   O1119718   3.125   0.089  10.758 -0.9448 -0.0348  0.3042
  174SOPE    C119719   3.205  -0.029  10.767  0.2549  0.2870 -0.6009
  174SOPE    HA19720   3.148  -0.115  10.727 -1.2703  1.6606 -1.4661
  174SOPE    HB19721   3.219  -0.061  10.872 -0.3667 -2.0008 -1.1764
  174SOPE    C219722   3.339  -0.018  10.685  0.1577 -0.4909  0.5840
  174SOPE    HS19723   3.395   0.071  10.722 -3.0326  1.3346  1.1628
  174SOPE   O2119724   3.304  -0.015  10.549 -0.0066  0.3433  0.0005
  174SOPE   C2119725   3.313   0.109  10.497 -0.8751 -0.2012  0.4234
  174SOPE   O2219726   3.360   0.206  10.550  0.5596  0.7610  0.1501
  174SOPE   C2219727   3.281   0.089  10.347 -0.1144 -0.6935 -0.8956
  174SOPE   H2R19728   3.178   0.050  10.334 -0.4005  0.0845 -1.0041
  174SOPE   H2S19729   3.359   0.018  10.314 -0.3162 -1.8065  0.9901
  174SOPE    C319730   3.446  -0.126  10.711  0.2622  0.1002 -0.0242
  174SOPE    HX19731   3.400  -0.227  10.715  0.4806 -0.0992 -1.8340
  174SOPE    HY19732   3.495  -0.107  10.809  2.0387 -1.1174 -0.6458
  174SOPE   O3119733   3.539  -0.130  10.604 -0.1223  0.6002 -0.6710
  174SOPE   C3119734   3.643  -0.044  10.605 -0.8605 -0.2059 -0.2947
  174SOPE   O3219735   3.667   0.030  10.698  0.2884 -0.3880 -0.6700
  174SOPE   C3219736   3.738  -0.053  10.481  0.1696  0.2110  0.3473
  174SOPE   H2X19737   3.803  -0.142  10.495  2.5893  1.9729  0.5862
  174SOPE   H2Y19738   3.801   0.038  10.490 -0.7900  1.0837 -1.4046
  174SOPE   C2319739   3.297   0.224  10.271  0.2739  0.6940  0.9003
  174SOPE   H3R19740   3.384   0.282  10.309  0.5213  0.0285  1.3704
  174SOPE   H3S19741   3.205   0.283  10.290  0.9848  1.5357  1.7581
  174SOPE   C2419742   3.314   0.206  10.119  0.0496  0.3917  0.4378
  174SOPE   H4R19743   3.268   0.107  10.098  0.6856  0.1776  0.0393
  174SOPE   H4S19744   3.261   0.277  10.053 -0.5845 -0.0185  0.5008
  174SOPE   C2519745   3.458   0.191  10.082 -0.2293  0.3191 -0.3663
  174SOPE   H5R19746   3.521   0.278  10.111 -0.3780  0.2486  0.1798
  174SOPE   H5S19747   3.504   0.102  10.128 -0.8654 -0.3529 -1.0227
  174SOPE   C2619748   3.489   0.153   9.928 -0.3877  0.2928  0.1291
  174SOPE   H6R19749   3.596   0.125   9.931 -0.6051 -0.4617  2.0902
  174SOPE   H6S19750   3.427   0.064   9.903 -0.8607  0.5537  0.3586
  174SOPE   C2719751   3.450   0.265   9.832  0.2813 -0.1241  0.2009
  174SOPE   H7R19752   3.356   0.256   9.774  0.4357  0.4715 -0.1467
  174SOPE   H7S19753   3.430   0.351   9.900 -1.4319 -0.1698 -0.2164
  174SOPE   C2819754   3.562   0.306   9.742  0.5323 -0.3082 -0.8918
  174SOPE   H8R19755   3.543   0.413   9.720 -2.0742  0.0086  2.5195
  174SOPE   H8S19756   3.658   0.313   9.798  0.7053  2.9811 -1.4859
  174SOPE   C2919757   3.562   0.203   9.633 -0.2195  0.4919  0.2188
  174SOPE   H9119758   3.478   0.134   9.622 -0.6971  1.2891 -1.1905
  174SOPE  C21019759   3.670   0.180   9.546  1.0081 -0.6063  0.2846
  174SOPE  H10119760   3.672   0.089   9.485  1.2495  0.3861 -1.2177
  174SOPE  C21119761   3.798   0.262   9.541 -0.1938 -0.1367  0.8301
  174SOPE  H11R19762   3.811   0.327   9.630  1.9939 -1.5608  1.6193
  174SOPE  H11S19763   3.788   0.332   9.456 -1.7332 -0.1654  0.9838
  174SOPE  C21219764   3.923   0.176   9.508  0.7135 -0.2181 -0.0820
  174SOPE  H12R19765   3.950   0.102   9.587  0.8685 -0.4656 -0.3682
  174SOPE  H12S19766   4.011   0.245   9.512 -0.7571  1.6532  1.2755
  174SOPE  C21319767   3.915   0.097   9.376  0.0525 -0.0339 -0.6001
  174SOPE  H13R19768   3.824   0.033   9.376 -1.1418  1.6140 -0.0061
  174SOPE  H13S19769   4.003   0.031   9.364  0.5035  0.3720  0.4534
  174SOPE  C21419770   3.905   0.191   9.258 -0.6279  0.5703  0.3653
  174SOPE  H14R19771   3.991   0.261   9.252 -0.1472 -0.0754 -0.4976
  174SOPE  H14S19772   3.819   0.257   9.279  0.3638  1.3945  1.8667
  174SOPE  C21519773   3.898   0.098   9.132 -0.3860  0.1443  0.0137
  174SOPE  H15R19774   3.981   0.026   9.134  0.2141  0.8325  0.1444
  174SOPE  H15S19775   3.904   0.162   9.041  1.1737  1.5075  1.0348
  174SOPE  C21619776   3.762   0.028   9.125  0.2497  1.0576 -0.0397
  174SOPE  H16R19777   3.676   0.093   9.099  0.6931  1.1819 -1.2697
  174SOPE  H16S19778   3.732  -0.031   9.213 -0.2260 -0.7663 -1.3889
  174SOPE  C21719779   3.775  -0.072   9.007 -0.4791 -0.3518 -0.0601
  174SOPE  H17R19780   3.684  -0.135   9.013  0.4015 -1.6811 -0.4024
  174SOPE  H17S19781   3.858  -0.144   9.023 -0.7073 -0.9042 -1.2754
  174SOPE  C21819782   3.775  -0.014   8.859  0.1173 -0.2026 -0.3333
  174SOPE  H18R19783   3.836  -0.084   8.798  2.0776  0.4789  0.7933
  174SOPE  H18S19784   3.811   0.091   8.860 -1.8425  0.5772 -3.4923
  174SOPE  H18T19785   3.673  -0.017   8.814  0.5178 -1.1246 -1.1884
  174SOPE   C3319786   3.662  -0.066  10.348 -0.7146  0.6460 -0.3472
  174SOPE   H3X19787   3.634   0.033  10.307  1.9384  1.0640 -1.2279
  174SOPE   H3Y19788   3.571  -0.127  10.366 -1.2095  2.0868  2.2632
  174SOPE   C3419789   3.739  -0.147  10.239  0.3296  0.1562 -0.5962
  174SOPE   H4X19790   3.741  -0.257  10.256  2.3795  0.2798  0.0206
  174SOPE   H4Y19791   3.845  -0.122  10.258 -0.3921  2.8435  0.0373
  174SOPE   C3519792   3.697  -0.118  10.102  0.2650  0.3199  0.1227
  174SOPE   H5X19793   3.738  -0.016  10.082  1.0845 -0.3556 -1.6969
  174SOPE   H5Y19794   3.587  -0.119  10.090  0.5104 -1.0205 -2.3031
  174SOPE   C3619795   3.768  -0.207  10.008  1.1771 -0.3681  0.1889
  174SOPE   H6X19796   3.741  -0.314  10.021  0.8760 -0.4235 -0.9028
  174SOPE   H6Y19797   3.876  -0.188  10.029  0.3287  2.9750  1.9005
  174SOPE   C3719798   3.749  -0.158   9.859  0.1723  0.0945  0.0698
  174SOPE   H7X19799   3.759  -0.048   9.847  0.8058  0.0543  0.2033
  174SOPE   H7Y19800   3.657  -0.199   9.813  0.6304  0.0147 -0.7964
  174SOPE   C3819801   3.864  -0.214   9.779  0.7250 -0.0316 -0.1886
  174SOPE   H8X19802   3.877  -0.315   9.824  3.3200 -0.2320 -1.2895
  174SOPE   H8Y19803   3.963  -0.164   9.785  1.2371 -0.6599 -2.6676
  174SOPE   C3919804   3.827  -0.244   9.628 -0.3856  0.0833 -0.8846
  174SOPE   H9X19805   3.761  -0.158   9.604 -2.2697 -0.5868  1.7186
  174SOPE   H9Y19806   3.765  -0.336   9.621 -1.4109  0.6832  0.1379
  174SOPE  C31019807   3.945  -0.252   9.528  0.3206  0.3822 -0.4444
  174SOPE  H10X19808   4.023  -0.322   9.564 -0.3563 -0.2949 -0.2849
  174SOPE  H10Y19809   3.995  -0.153   9.524  1.1219  0.1147  2.0809
  174SOPE  C31119810   3.907  -0.295   9.391 -0.2891  0.4767 -0.6859
  174SOPE  H11X19811   3.814  -0.246   9.355 -0.5788  1.2226  0.9866
  174SOPE  H11Y19812   3.885  -0.403   9.400 -0.6326  0.7678  2.5041
  174SOPE  C31219813   4.021  -0.277   9.288 -0.3929  0.1196 -0.0339
  174SOPE  H12X19814   4.104  -0.326   9.342  0.3660  0.4165 -0.9103
  174SOPE  H12Y19815   4.043  -0.170   9.265  0.2599  0.2787  1.3062
  174SOPE  C31319816   4.000  -0.351   9.159 -0.4491 -0.1849 -0.1163
  174SOPE  H13X19817   3.910  -0.335   9.097  0.5077  1.3157 -1.1410
  174SOPE  H13Y19818   3.995  -0.459   9.182  0.5244 -0.0630  0.7199
  174SOPE  C31419819   4.121  -0.312   9.074  0.3020  0.2712 -0.3347
  174SOPE  H14X19820   4.212  -0.337   9.132  0.2070 -0.5329 -0.5333
  174SOPE  H14Y19821   4.114  -0.202   9.057 -2.2280  0.0953 -0.6836
  174SOPE  C31519822   4.133  -0.393   8.944  0.4882 -0.1724  0.0352
  174SOPE  H15X19823   4.038  -0.374   8.889  0.3764  0.0434  0.3016
  174SOPE  H15Y19824   4.132  -0.504   8.953 -2.6114 -0.2901 -1.0460
  174SOPE  C31619825   4.246  -0.346   8.854 -0.5465 -0.1074  0.3152
  174SOPE  H16X19826   4.261  -0.408   8.763 -2.1740  0.3701 -0.3007
  174SOPE  H16Y19827   4.346  -0.360   8.902  1.0995  0.4130 -2.8474
  174SOPE  C31719828   4.237  -0.199   8.807  0.0803  0.9189  0.1239
  174SOPE  H17X19829   4.249  -0.131   8.894  3.1447  0.9625 -0.2747
  174SOPE  H17Y19830   4.137  -0.189   8.759 -0.6543 -0.8478  1.2258
  174SOPE  C31819831   4.347  -0.157   8.717 -0.6661 -0.0855 -0.4046
  174SOPE  H18X19832   4.372  -0.228   8.636  1.0506 -0.4459  0.4045
  174SOPE  H18Y19833   4.441  -0.134   8.772 -1.3789  2.6744 -0.2798
  174SOPE  H18Z19834   4.317  -0.062   8.669 -1.5748  0.9733  2.1518
  175SOPE     N19835   4.544   1.579  10.481  0.2634 -0.1487 -0.5695
  175SOPE   HN119836   4.508   1.516  10.556 -2.0656  2.2900  0.4460
  175SOPE   HN219837   4.599   1.653  10.530 -1.5055  0.0580  1.2060
  175SOPE   HN319838   4.463   1.624  10.434 -0.7240 -0.9355  0.3448
  175SOPE   C1219839   4.647   1.510  10.401 -1.1096  0.4829 -0.0743
  175SOPE  H12A19840   4.682   1.572  10.315 -0.7676 -0.9320 -0.9603
  175SOPE  H12B19841   4.591   1.420  10.368 -3.1569  1.6986 -0.0445
  175SOPE   C1119842   4.774   1.480  10.486  0.0920 -0.1899  0.1857
  175SOPE  H11A19843   4.823   1.390  10.444  0.2412 -0.0247  0.0081
  175SOPE  H11B19844   4.750   1.445  10.589 -1.0951 -1.7137 -0.5894
  175SOPE     P19845   4.847   1.696  10.600  0.5533 -0.2026 -0.8296
  175SOPE   O1319846   4.922   1.643  10.719  0.0016 -0.1432  0.0567
  175SOPE   O1419847   4.715   1.753  10.615  0.3520 -0.2630 -0.0092
  175SOPE   O1219848   4.852   1.600  10.487  0.6036  0.1278  0.2268
  175SOPE   O1119849   4.934   1.817  10.533  0.8155  0.2071 -0.3185
  175SOPE    C119850   4.911   1.854  10.396 -0.0062 -0.3335 -0.3500
  175SOPE    HA19851   4.906   1.965  10.393  1.1320 -0.2767 -0.5043
  175SOPE    HB19852   4.829   1.793  10.352  0.9109 -2.0054  0.1995
  175SOPE    C219853   5.045   1.822  10.311 -0.1282 -0.2338  0.1025
  175SOPE    HS19854   5.021   1.857  10.209 -2.4650 -0.8611  0.4050
  175SOPE   O2119855   5.095   1.688  10.317  0.0607  0.4175  0.5857
  175SOPE   C2119856   5.037   1.608  10.235  0.1958  0.2833 -0.5435
  175SOPE   O2219857   4.947   1.634  10.155 -0.6829 -0.3136 -0.3071
  175SOPE   C2219858   5.079   1.463  10.275 -0.1539 -0.1669 -0.3813
  175SOPE   H2R19859   5.049   1.455  10.382  0.9428  0.9223  0.0245
  175SOPE   H2S19860   5.190   1.469  10.269  0.0264 -0.2902  2.2962
  175SOPE    C319861   5.160   1.909  10.349  0.1124  0.2816 -0.0135
  175SOPE    HX19862   5.222   1.855  10.423  1.5662  0.3038 -1.1832
  175SOPE    HY19863   5.116   1.998  10.400 -0.5997 -0.4475  0.6438
  175SOPE   O3119864   5.238   1.956  10.236  0.6532 -0.0619 -0.0534
  175SOPE   C3119865   5.202   2.070  10.183 -0.3411  0.2946  0.5389
  175SOPE   O3219866   5.097   2.125  10.202  0.1773  0.2007 -0.2366
  175SOPE   C3219867   5.301   2.123  10.088 -0.1413 -0.3403  0.4849
  175SOPE   H2X19868   5.373   2.051  10.042 -0.5631 -0.8002  0.5385
  175SOPE   H2Y19869   5.358   2.204  10.138  0.3081  0.8819 -1.9070
  175SOPE   C2319870   5.035   1.345  10.180 -0.0594  0.3633 -0.5694
  175SOPE   H3R19871   4.924   1.342  10.173 -0.1634  1.6155  0.3283
  175SOPE   H3S19872   5.059   1.249  10.232 -1.5814  0.8711  1.1178
  175SOPE   C2419873   5.098   1.337  10.042  0.3889 -0.2631 -0.0740
  175SOPE   H4R19874   5.083   1.231  10.013 -3.4880  0.5131 -1.2530
  175SOPE   H4S19875   5.028   1.393   9.976 -0.7134 -1.4396  0.0701
  175SOPE   C2519876   5.242   1.379  10.014 -0.2844  0.0373 -0.5193
  175SOPE   H5R19877   5.256   1.489  10.006  1.5928  0.0302  1.9604
  175SOPE   H5S19878   5.312   1.341  10.092 -1.0864 -1.9734 -0.7558
  175SOPE   C2619879   5.294   1.337   9.877  0.4738 -0.0015  0.0381
  175SOPE   H6R19880   5.402   1.361   9.866  0.2360  0.6745 -0.9442
  175SOPE   H6S19881   5.294   1.228   9.856 -0.8025  0.0416 -0.2316
  175SOPE   C2719882   5.229   1.417   9.756 -0.5689  0.2439 -0.0403
  175SOPE   H7R19883   5.127   1.373   9.754 -1.2169  1.7171  0.2003
  175SOPE   H7S19884   5.213   1.525   9.780  1.0575  0.3093  0.7995
  175SOPE   C2819885   5.294   1.396   9.618  0.5587  1.2435 -0.3733
  175SOPE   H8R19886   5.402   1.423   9.629  0.3936  1.2583  1.3422
  175SOPE   H8S19887   5.289   1.287   9.597 -0.7418  1.1260  0.5557
  175SOPE   C2919888   5.218   1.463   9.509 -0.3803 -0.1018 -0.0470
  175SOPE   H9119889   5.109   1.474   9.519 -0.6042  0.4413 -2.7979
  175SOPE  C21019890   5.266   1.523   9.399 -0.3769 -0.7950  0.3499
  175SOPE  H10119891   5.195   1.562   9.324  0.8596 -0.9145 -0.9111
  175SOPE  C21119892   5.414   1.522   9.356 -0.0596  0.4339 -0.6446
  175SOPE  H11R19893   5.479   1.451   9.413  1.2166  1.1459 -1.1889
  175SOPE  H11S19894   5.474   1.615   9.358  1.0755 -0.3021  1.2046
  175SOPE  C21219895   5.427   1.466   9.212 -0.1053 -0.0048  0.3095
  175SOPE  H12R19896   5.369   1.373   9.197 -1.1096  0.6418  0.1183
  175SOPE  H12S19897   5.537   1.449   9.208  0.0266  1.0776 -0.9238
  175SOPE  C21319898   5.392   1.564   9.097  0.1852  0.7330 -0.3016
  175SOPE  H13R19899   5.438   1.657   9.136 -3.6345  1.3123  3.1247
  175SOPE  H13S19900   5.281   1.569   9.099  0.0737 -1.3812  0.3604
  175SOPE  C21419901   5.461   1.523   8.967 -0.0560  0.3535  0.6796
  175SOPE  H14R19902   5.429   1.421   8.937 -0.2691  0.6559 -0.1630
  175SOPE  H14S19903   5.572   1.521   8.971  0.0738 -1.7774 -2.3736
  175SOPE  C21519904   5.450   1.625   8.846  0.5920 -0.5602  0.4063
  175SOPE  H15R19905   5.500   1.713   8.891 -0.0289 -0.3247  0.6454
  175SOPE  H15S19906   5.342   1.652   8.836  0.7765 -0.1428 -0.4506
  175SOPE  C21619907   5.512   1.572   8.717 -0.1448  0.3460 -0.7359
  175SOPE  H16R19908   5.462   1.478   8.684  0.5888  0.1265 -1.2356
  175SOPE  H16S19909   5.618   1.541   8.733 -0.0043  0.9118 -0.5632
  175SOPE  C21719910   5.502   1.668   8.599  0.2382  0.2001  0.3940
  175SOPE  H17R19911   5.537   1.761   8.648  0.3365  1.1156 -1.3751
  175SOPE  H17S19912   5.394   1.666   8.573  0.6024  1.4261 -1.2726
  175SOPE  C21819913   5.589   1.634   8.479  0.6016  0.0424 -0.0970
  175SOPE  H18R19914   5.572   1.528   8.451  0.3428 -0.1349  0.7315
  175SOPE  H18S19915   5.692   1.669   8.500 -1.0176  4.5979  0.8801
  175SOPE  H18T19916   5.548   1.695   8.395  1.4068  1.7314  0.7233
  175SOPE   C3319917   5.222   2.189   9.964  0.0476 -0.2560  1.4776
  175SOPE   H3X19918   5.156   2.276   9.987 -2.0048 -1.5801  0.7045
  175SOPE   H3Y19919   5.154   2.117   9.914 -1.0816  1.0039  1.1650
  175SOPE   C3419920   5.327   2.243   9.860  0.4657  0.0519  0.1050
  175SOPE   H4X19921   5.382   2.159   9.814  0.0058  0.5350 -1.3573
  175SOPE   H4Y19922   5.400   2.300   9.922  0.3388  0.7166 -0.3534
  175SOPE   C3519923   5.248   2.323   9.751 -0.3592 -0.3013 -0.4154
  175SOPE   H5X19924   5.231   2.426   9.789 -2.1850  0.1754 -2.4275
  175SOPE   H5Y19925   5.147   2.284   9.722 -0.6599  0.1537  0.0111
  175SOPE   C3619926   5.329   2.325   9.621 -0.5966 -0.2183  0.6273
  175SOPE   H6X19927   5.273   2.381   9.543  1.2510  0.1322 -0.4884
  175SOPE   H6Y19928   5.341   2.220   9.586  1.5020 -0.4356  1.9354
  175SOPE   C3719929   5.460   2.395   9.641  0.3152 -0.1846  0.0004
  175SOPE   H7X19930   5.525   2.324   9.699  1.4075  2.0226  1.5480
  175SOPE   H7Y19931   5.456   2.479   9.713  2.2800  0.6220 -0.8019
  175SOPE   C3819932   5.533   2.449   9.518 -0.0661  0.0969 -0.5096
  175SOPE   H8X19933   5.634   2.485   9.548  0.1178 -0.2491 -0.7021
  175SOPE   H8Y19934   5.473   2.538   9.490  0.2775  0.3230 -0.5263
  175SOPE   C3919935   5.563   2.348   9.407  0.2273  0.5591  0.1600
  175SOPE   H9X19936   5.464   2.315   9.368  0.7856  0.0191 -0.8323
  175SOPE   H9Y19937   5.609   2.257   9.452 -1.0357 -1.6399 -2.7834
  175SOPE  C31019938   5.644   2.408   9.288  0.7314 -0.1194 -0.2173
  175SOPE  H10X19939   5.731   2.460   9.333  0.3853 -1.0919  1.6015
  175SOPE  H10Y19940   5.586   2.492   9.244 -1.3696 -1.2904  0.2456
  175SOPE  C31119941   5.681   2.306   9.184  0.4654 -0.3817  0.5671
  175SOPE  H11X19942   5.593   2.244   9.160  0.2961  0.2529 -0.4763
  175SOPE  H11Y19943   5.765   2.239   9.211  0.4469 -0.0953  1.3805
  175SOPE  C31219944   5.725   2.380   9.047  0.1622 -0.0656  0.2566
  175SOPE  H12X19945   5.637   2.440   9.015  0.7195  0.6330  0.0172
  175SOPE  H12Y19946   5.761   2.312   8.967  1.7779  1.6671 -0.5210
  175SOPE  C31319947   5.843   2.487   9.057  0.4226 -0.1258 -0.8423
  175SOPE  H13X19948   5.919   2.438   9.121 -0.7255  0.6269  1.1535
  175SOPE  H13Y19949   5.800   2.565   9.124  0.1826 -2.5161  1.8998
  175SOPE  C31419950   5.898   2.519   8.913  0.1905 -0.8736  0.4784
  175SOPE  H14X19951   5.913   2.426   8.855 -3.1534 -1.9541  1.2242
  175SOPE  H14Y19952   5.998   2.562   8.936  0.1489 -0.2621 -0.4694
  175SOPE  C31519953   5.815   2.626   8.850 -0.1037 -0.1341 -0.0258
  175SOPE  H15X19954   5.830   2.721   8.904  3.0744  0.1268 -1.2759
  175SOPE  H15Y19955   5.707   2.604   8.862  0.0548 -2.2595 -2.0219
  175SOPE  C31619956   5.860   2.640   8.707  0.5399 -0.0857 -0.1475
  175SOPE  H16X19957   5.835   2.550   8.647 -0.5950  0.4523 -0.4878
  175SOPE  H16Y19958   5.969   2.663   8.703  0.3593  1.1788  1.6933
  175SOPE  C31719959   5.788   2.756   8.633  0.6183 -0.2615  0.3558
  175SOPE  H17X19960   5.791   2.852   8.690 -0.7634  0.8660 -1.4009
  175SOPE  H17Y19961   5.682   2.728   8.616  0.5059  0.9243 -1.0566
  175SOPE  C31819962   5.848   2.781   8.491 -0.1080 -0.3363 -0.2821
  175SOPE  H18X19963   5.956   2.786   8.518 -0.2965  1.2078  0.2127
  175SOPE  H18Y19964   5.811   2.870   8.437  1.2614  0.1124 -0.4993
  175SOPE  H18Z19965   5.831   2.693   8.424 -2.2117 -0.8849  0.9322
  176SOPE     N19966   4.339   0.882  11.116 -0.8159  0.3962  0.0734
  176SOPE   HN119967   4.260   0.851  11.056  1.0960  0.8858 -2.7745
  176SOPE   HN219968   4.425   0.848  11.067  1.1120  1.7142  2.4257
  176SOPE   HN319969   4.329   0.829  11.206  0.4579 -0.5325 -0.3116
  176SOPE   C1219970   4.338   1.037  11.136  0.4609 -0.0159  0.0120
  176SOPE  H12A19971   4.433   1.055  11.190  0.5491 -0.6822  0.0869
  176SOPE  H12B19972   4.258   1.056  11.212  0.9639  1.1108  0.2677
  176SOPE   C1119973   4.303   1.116  11.008 -0.5494  0.1979 -0.2145
  176SOPE  H11A19974   4.339   1.220  11.026  0.5091 -0.0600 -0.7661
  176SOPE  H11B19975   4.194   1.123  10.993 -0.5573 -0.2077 -0.3594
  176SOPE     P19976   4.519   1.084  10.859 -0.0206  0.4370  0.2992
  176SOPE   O1319977   4.598   0.993  10.944  0.1798  0.3596  0.4409
  176SOPE   O1419978   4.544   1.227  10.868  0.3834  0.2737  0.4393
  176SOPE   O1219979   4.369   1.056  10.901  0.4701  0.2735 -0.2786
  176SOPE   O1119980   4.527   1.035  10.705  0.5405 -0.0145  0.0880
  176SOPE    C119981   4.438   0.931  10.667 -0.4421  0.1064  0.5157
  176SOPE    HA19982   4.343   0.977  10.631 -1.5415 -0.7378  2.3071
  176SOPE    HB19983   4.406   0.859  10.745 -1.8922 -1.8289 -1.7991
  176SOPE    C219984   4.502   0.849  10.548  0.4710  1.6315  0.3341
  176SOPE    HS19985   4.608   0.832  10.577  0.7724  0.6923 -1.2415
  176SOPE   O2119986   4.496   0.932  10.431  0.2475 -0.0521 -0.3460
  176SOPE   C2119987   4.604   0.929  10.356  0.0914 -0.3087 -0.1593
  176SOPE   O2219988   4.699   0.853  10.363  0.3015  0.1928  0.0545
  176SOPE   C2219989   4.590   1.027  10.243  0.2755  0.0309 -0.0593
  176SOPE   H2R19990   4.526   1.112  10.273 -1.9677 -1.3922 -0.6642
  176SOPE   H2S19991   4.535   0.975  10.161  2.5426 -3.2386  0.3895
  176SOPE    C319992   4.418   0.716  10.529 -0.8533 -0.0003 -0.0066
  176SOPE    HX19993   4.308   0.732  10.522 -1.3224 -3.0218 -0.2268
  176SOPE    HY19994   4.433   0.664  10.626  0.6136  1.2470  0.4625
  176SOPE   O3119995   4.472   0.641  10.417 -0.1562  0.3406  0.1484
  176SOPE   C3119996   4.403   0.649  10.295  0.7649 -0.0480  0.3225
  176SOPE   O3219997   4.291   0.693  10.280  0.2744 -0.5815 -0.3301
  176SOPE   C3219998   4.483   0.601  10.178 -0.9061  0.6699  0.6171
  176SOPE   H2X19999   4.509   0.493  10.191 -0.1674  0.4318 -2.3662
  176SOPE   H2Y20000   4.582   0.649  10.193 -0.3814 -0.1381 -0.1939
  176SOPE   C2320001   4.731   1.070  10.195  0.0024 -0.6145  0.3593
  176SOPE   H3R20002   4.793   0.984  10.162  0.9129  0.9069 -1.9886
  176SOPE   H3S20003   4.784   1.112  10.283  2.0011  0.6867 -1.4212
  176SOPE   C2420004   4.732   1.170  10.073 -0.7568  0.4752  0.1277
  176SOPE   H4R20005   4.678   1.258  10.116  0.3957  1.5073 -0.5169
  176SOPE   H4S20006   4.836   1.197  10.046 -1.2649  0.6683 -1.7310
  176SOPE   C2520007   4.663   1.115   9.948 -0.2464 -0.7116  0.2333
  176SOPE   H5R20008   4.672   1.006   9.930 -1.3797 -0.5864 -1.2002
  176SOPE   H5S20009   4.554   1.127   9.970 -0.0608  0.9219  0.3112
  176SOPE   C2620010   4.681   1.205   9.829 -0.4737 -0.3796  0.6282
  176SOPE   H6R20011   4.607   1.192   9.747 -0.0157  2.9719 -0.3828
  176SOPE   H6S20012   4.673   1.311   9.860 -0.5368 -1.3785  4.2070
  176SOPE   C2720013   4.814   1.185   9.760 -0.3318 -0.3490  0.2851
  176SOPE   H7R20014   4.905   1.210   9.819  0.6835 -1.0342 -0.9552
  176SOPE   H7S20015   4.823   1.080   9.725 -2.4749 -0.3319 -0.3902
  176SOPE   C2820016   4.840   1.276   9.633  0.4848  0.7037  0.1540
  176SOPE   H8R20017   4.811   1.379   9.664 -3.1441  0.4022 -1.9171
  176SOPE   H8S20018   4.948   1.264   9.609 -0.5973 -2.5151 -3.6601
  176SOPE   C2920019   4.768   1.233   9.510 -0.4960 -0.5607 -0.0367
  176SOPE   H9120020   4.673   1.182   9.527 -0.0753 -0.6341  2.2795
  176SOPE  C21020021   4.819   1.247   9.385  0.2327  0.0215  0.4461
  176SOPE  H10120022   4.751   1.215   9.304 -2.7746  0.6896  2.5845
  176SOPE  C21120023   4.951   1.309   9.338  0.7448 -0.0132 -0.6312
  176SOPE  H11R20024   5.033   1.280   9.407  0.8348 -0.1027 -0.7763
  176SOPE  H11S20025   4.931   1.418   9.341 -0.0829 -0.2089  1.7497
  176SOPE  C21220026   4.981   1.273   9.190  0.3984  0.3270 -0.0902
  176SOPE  H12R20027   4.947   1.170   9.168  0.9965 -0.2702  1.7019
  176SOPE  H12S20028   5.091   1.288   9.180  0.2811 -0.0951 -2.3484
  176SOPE  C21320029   4.915   1.379   9.100  0.0914  0.2819 -0.0803
  176SOPE  H13R20030   4.964   1.473   9.134  1.2801 -0.6126  0.6646
  176SOPE  H13S20031   4.811   1.381   9.140  0.2827  0.2420  0.4280
  176SOPE  C21420032   4.943   1.368   8.954  0.2969 -0.3363  0.2676
  176SOPE  H14R20033   4.895   1.287   8.895  0.1313 -1.0298  1.3338
  176SOPE  H14S20034   5.051   1.348   8.938 -0.1102 -1.0413 -1.6589
  176SOPE  C21520035   4.909   1.497   8.879 -0.4088 -0.3478  0.2466
  176SOPE  H15R20036   4.956   1.585   8.928  1.1955  1.2715 -3.9993
  176SOPE  H15S20037   4.799   1.511   8.887 -0.0269  2.5417  0.8746
  176SOPE  C21620038   4.952   1.488   8.729 -0.1435  0.1910  0.0544
  176SOPE  H16R20039   4.907   1.409   8.665  0.9098  0.6330 -1.2575
  176SOPE  H16S20040   5.059   1.468   8.710 -0.0714  1.4019 -0.8355
  176SOPE  C21720041   4.942   1.626   8.663  0.0317 -0.3696  0.3687
  176SOPE  H17R20042   4.976   1.708   8.729 -2.8561  0.7638  0.5128
  176SOPE  H17S20043   4.839   1.654   8.633 -1.2204 -5.1120 -0.1938
  176SOPE  C21820044   5.031   1.633   8.537  0.1221 -0.1518  0.3123
  176SOPE  H18R20045   5.133   1.672   8.560 -0.7300  0.7294  2.8126
  176SOPE  H18S20046   4.992   1.716   8.476 -0.3025 -0.8000 -0.3048
  176SOPE  H18T20047   5.029   1.539   8.478  2.8317 -1.1881  1.7572
  176SOPE   C3320048   4.422   0.632  10.045  0.0266 -0.6179 -0.2417
  176SOPE   H3X20049   4.311   0.628  10.045 -0.0165  0.1505 -2.1655
  176SOPE   H3Y20050   4.460   0.546   9.985  1.3195  1.2490 -2.1919
  176SOPE   C3420051   4.450   0.765   9.980 -0.1567  0.1228 -0.3990
  176SOPE   H4X20052   4.556   0.790  10.004 -0.9435  0.1232  3.3943
  176SOPE   H4Y20053   4.391   0.838  10.039 -0.7051  0.3246 -1.1904
  176SOPE   C3520054   4.418   0.775   9.826  0.1065  0.8739 -1.1314
  176SOPE   H5X20055   4.307   0.761   9.823  0.2110  0.2036 -2.2765
  176SOPE   H5Y20056   4.466   0.699   9.762 -0.4986 -3.5718  3.3571
  176SOPE   C3620057   4.430   0.916   9.778 -0.7808  0.0359 -0.0235
  176SOPE   H6X20058   4.534   0.952   9.769 -0.9152  0.4283 -0.0174
  176SOPE   H6Y20059   4.366   0.972   9.849  2.3090  2.0545  1.2378
  176SOPE   C3720060   4.361   0.931   9.635  0.3630  0.1882  0.0751
  176SOPE   H7X20061   4.252   0.908   9.638  0.1721  1.2216  1.5375
  176SOPE   H7Y20062   4.414   0.855   9.575  2.1198  1.8937 -0.5913
  176SOPE   C3820063   4.393   1.060   9.562  0.0307  0.3829  0.4850
  176SOPE   H8X20064   4.492   1.100   9.593  0.5744 -1.4556  1.1405
  176SOPE   H8Y20065   4.325   1.144   9.589 -1.1986  0.2329 -1.9392
  176SOPE   C3920066   4.411   1.036   9.409  0.0887 -0.8239  1.1614
  176SOPE   H9X20067   4.342   0.956   9.375 -0.1158 -0.5314  0.8908
  176SOPE   H9Y20068   4.506   0.990   9.374  0.1231 -0.2156  0.4571
  176SOPE  C31020069   4.390   1.151   9.319 -0.0486 -0.1483 -0.1960
  176SOPE  H10X20070   4.458   1.233   9.352 -2.2853  1.5362  0.3717
  176SOPE  H10Y20071   4.284   1.184   9.328 -0.4201 -0.3727 -3.4165
  176SOPE  C31120072   4.405   1.108   9.171  0.0591 -0.1974  0.1345
  176SOPE  H11X20073   4.334   1.025   9.150 -1.1282  0.5175  1.1999
  176SOPE  H11Y20074   4.511   1.078   9.157 -0.0782 -0.9646  0.7313
  176SOPE  C31220075   4.369   1.222   9.079 -0.2157  0.1599  0.4249
  176SOPE  H12X20076   4.421   1.319   9.096 -0.6081  0.5579 -0.6542
  176SOPE  H12Y20077   4.263   1.252   9.091 -1.1340 -2.4454 -0.8505
  176SOPE  C31320078   4.370   1.189   8.926  0.2364  0.1500 -0.6849
  176SOPE  H13X20079   4.314   1.264   8.867  2.7652  1.4302 -1.5197
  176SOPE  H13Y20080   4.326   1.087   8.917  0.0943 -0.0959  2.2335
  176SOPE  C31420081   4.513   1.167   8.875 -0.2296  0.5802  0.1097
  176SOPE  H14X20082   4.553   1.069   8.907  0.4403  1.5338  2.3258
  176SOPE  H14Y20083   4.572   1.247   8.926 -0.5485  1.9236 -1.5831
  176SOPE  C31520084   4.522   1.164   8.719 -0.5627 -0.5991 -0.7468
  176SOPE  H15X20085   4.452   1.232   8.667 -0.3484  0.7706  0.7237
  176SOPE  H15Y20086   4.514   1.060   8.682 -0.7520 -0.3866 -1.3074
  176SOPE  C31620087   4.659   1.209   8.672  0.0629 -0.2875  0.7984
  176SOPE  H16X20088   4.728   1.127   8.697  0.7702  0.1145  0.1795
  176SOPE  H16Y20089   4.690   1.298   8.730  2.8949 -0.2806 -0.6492
  176SOPE  C31720090   4.660   1.250   8.528  0.6692  0.7873 -0.0888
  176SOPE  H17X20091   4.759   1.300   8.519  0.9135  0.3356  0.0784
  176SOPE  H17Y20092   4.581   1.327   8.515 -0.0335  0.4983  2.3207
  176SOPE  C31820093   4.660   1.130   8.422  0.2862 -0.1132  0.4807
  176SOPE  H18X20094   4.746   1.060   8.434 -1.1842 -1.9275  0.6017
  176SOPE  H18Y20095   4.659   1.174   8.321 -0.2594 -0.8731  0.1499
  176SOPE  H18Z20096   4.569   1.066   8.429  0.7570 -0.8079  0.3055
  177SOPE     N20097   4.828   5.884  11.206 -0.0078  0.1965  0.7234
  177SOPE   HN120098   4.852   5.793  11.162  1.7720  0.9072  0.1814
  177SOPE   HN220099   4.788   5.942  11.129 -0.9401 -0.1934  0.9024
  177SOPE   HN320100   4.915   5.926  11.245  0.9691  0.5858 -1.7943
  177SOPE   C1220101   4.730   5.874  11.321 -0.3446 -0.5422 -0.3788
  177SOPE  H12A20102   4.694   5.975  11.348  1.4653  0.6024 -2.1155
  177SOPE  H12B20103   4.781   5.823  11.405  0.3338  1.1414  0.2499
  177SOPE   C1120104   4.603   5.796  11.280 -0.2913  0.5588 -0.5176
  177SOPE  H11A20105   4.541   5.855  11.209 -3.0324 -0.8784  0.6084
  177SOPE  H11B20106   4.543   5.786  11.372  1.2928  0.6468  0.5447
  177SOPE     P20107   4.538   5.581  11.146  0.0800 -0.0136 -0.1404
  177SOPE   O1320108   4.416   5.550  11.225 -0.3121 -0.0006 -0.0337
  177SOPE   O1420109   4.606   5.463  11.088 -0.2135 -0.1147 -0.4596
  177SOPE   O1220110   4.638   5.664  11.237 -0.6271  0.8024 -0.3799
  177SOPE   O1120111   4.503   5.691  11.036  0.0881 -0.5425  0.0323
  177SOPE    C120112   4.602   5.736  10.945  0.2444 -0.2502 -0.4963
  177SOPE    HA20113   4.708   5.717  10.974  0.5374  0.2470 -1.2299
  177SOPE    HB20114   4.593   5.844  10.920 -3.1296 -0.5662 -0.8084
  177SOPE    C220115   4.589   5.666  10.809 -0.0694  0.4559 -0.1692
  177SOPE    HS20116   4.613   5.558  10.819  1.3571  0.7050 -0.7847
  177SOPE   O2120117   4.677   5.733  10.717  0.5259  0.5052 -0.3211
  177SOPE   C2120118   4.721   5.653  10.617 -0.0024  0.8385 -0.7771
  177SOPE   O2220119   4.681   5.539  10.597 -0.1686  0.3150 -0.0695
  177SOPE   C2220120   4.831   5.722  10.536 -0.4342 -0.5702 -0.3028
  177SOPE   H2R20121   4.924   5.675  10.575  0.6193 -1.2656 -3.5426
  177SOPE   H2S20122   4.834   5.830  10.562 -0.3336 -0.4715 -0.7222
  177SOPE    C320123   4.443   5.686  10.759 -0.6006 -0.7933  0.0344
  177SOPE    HX20124   4.422   5.794  10.770 -0.7241 -0.9246  1.1857
  177SOPE    HY20125   4.377   5.626  10.826 -0.1183 -0.4537  0.8304
  177SOPE   O3120126   4.431   5.641  10.626  0.6817 -0.9184  0.0377
  177SOPE   C3120127   4.363   5.718  10.540 -0.0915 -0.2782  0.4167
  177SOPE   O3220128   4.290   5.811  10.573  1.3877 -0.2298 -0.1544
  177SOPE   C3220129   4.386   5.676  10.404 -0.6578 -0.2152 -0.1861
  177SOPE   H2X20130   4.313   5.599  10.368  1.5246 -2.0626 -0.7811
  177SOPE   H2Y20131   4.488   5.634  10.392 -0.9500 -0.7188 -0.9850
  177SOPE   C2320132   4.807   5.718  10.384  0.5478 -0.8875 -0.0176
  177SOPE   H3R20133   4.732   5.797  10.363  2.5857  1.4791  1.3159
  177SOPE   H3S20134   4.774   5.616  10.355 -0.3398 -0.4876 -0.4417
  177SOPE   C2420135   4.940   5.747  10.309 -0.2214  0.0716 -1.1633
  177SOPE   H4R20136   5.002   5.821  10.363  0.6116  0.1442 -2.2164
  177SOPE   H4S20137   4.992   5.649  10.306  0.0593  0.2399 -1.8682
  177SOPE   C2520138   4.915   5.804  10.172 -0.3857  0.1470  0.3335
  177SOPE   H5R20139   4.893   5.913  10.184 -1.8253  0.0293 -1.0207
  177SOPE   H5S20140   5.013   5.809  10.122 -0.2688  1.8394  0.6842
  177SOPE   C2620141   4.824   5.729  10.070 -0.4588  0.6318 -0.3861
  177SOPE   H6R20142   4.863   5.627  10.050 -2.0002 -0.2964  1.2040
  177SOPE   H6S20143   4.722   5.714  10.112  0.4620 -0.1251  1.6681
  177SOPE   C2720144   4.791   5.811   9.942  0.2044  0.1622 -0.0368
  177SOPE   H7R20145   4.721   5.754   9.877  0.3715 -0.6923  0.5279
  177SOPE   H7S20146   4.736   5.902   9.976 -1.1044  0.1375 -1.9592
  177SOPE   C2820147   4.919   5.850   9.862  0.0184 -0.0645  0.2738
  177SOPE   H8R20148   4.879   5.913   9.779 -1.8988 -1.2430  0.2754
  177SOPE   H8S20149   4.985   5.916   9.923 -0.8330  0.4672  0.6320
  177SOPE   C2920150   5.001   5.734   9.816  0.3599 -0.0632 -0.8185
  177SOPE   H9120151   5.060   5.675   9.888  0.4057 -0.6501 -1.3215
  177SOPE  C21020152   5.004   5.690   9.692 -0.3414  0.2970 -0.1796
  177SOPE  H10120153   5.059   5.595   9.680 -1.3855 -0.0423 -2.4804
  177SOPE  C21120154   4.923   5.727   9.570  0.8727 -1.0256  0.3328
  177SOPE  H11R20155   4.861   5.817   9.592  1.0142 -0.4259 -1.6066
  177SOPE  H11S20156   4.847   5.649   9.549  1.1043 -1.1540 -0.0338
  177SOPE  C21220157   5.005   5.756   9.447 -0.1353  0.4526 -0.2853
  177SOPE  H12R20158   5.056   5.662   9.417 -0.5481 -0.0315  0.5149
  177SOPE  H12S20159   5.088   5.822   9.478  0.3924 -0.5749  0.5118
  177SOPE  C21320160   4.937   5.834   9.335  0.3601 -0.3638  0.7151
  177SOPE  H13R20161   4.890   5.929   9.370 -0.0946 -1.1344  2.2516
  177SOPE  H13S20162   4.862   5.758   9.305  1.7086 -0.9254 -1.3525
  177SOPE  C21420163   5.041   5.853   9.220 -0.3155 -0.1473 -0.5213
  177SOPE  H14R20164   5.123   5.920   9.253 -0.2972 -0.8009  0.8144
  177SOPE  H14S20165   4.977   5.902   9.143  0.8320  1.7740 -0.2622
  177SOPE  C21520166   5.108   5.729   9.173 -0.3295  0.1071  0.7542
  177SOPE  H15R20167   5.042   5.640   9.180  0.1243 -0.1813  1.4452
  177SOPE  H15S20168   5.199   5.696   9.227  0.2419  0.3690 -0.0370
  177SOPE  C21620169   5.152   5.747   9.025  0.1610  0.3880 -0.4633
  177SOPE  H16R20170   5.232   5.823   9.008 -0.5022  0.6260 -2.7675
  177SOPE  H16S20171   5.067   5.775   8.960 -0.6315 -2.7287 -0.8385
  177SOPE  C21720172   5.182   5.610   8.953 -0.1345 -1.2019 -0.3323
  177SOPE  H17R20173   5.263   5.561   9.011  0.1859  0.8514  1.0290
  177SOPE  H17S20174   5.212   5.628   8.847  0.5694 -1.4387 -0.1764
  177SOPE  C21820175   5.063   5.515   8.931 -0.2007  0.1589  0.2240
  177SOPE  H18R20176   5.100   5.425   8.876  0.3710  0.1896  0.5549
  177SOPE  H18S20177   4.984   5.554   8.864 -0.7701  0.0592  0.8286
  177SOPE  H18T20178   5.018   5.482   9.027 -1.9640  2.2760  0.1592
  177SOPE   C3320179   4.372   5.802  10.315  0.5724  0.6452 -0.2194
  177SOPE   H3X20180   4.426   5.884  10.367 -0.2306  0.8434  0.3079
  177SOPE   H3Y20181   4.265   5.834  10.312  0.0019 -1.1295  0.6430
  177SOPE   C3420182   4.419   5.802  10.170  0.6877 -0.0350 -0.2393
  177SOPE   H4X20183   4.530   5.805  10.180  0.6945  2.1886 -0.8085
  177SOPE   H4Y20184   4.378   5.883  10.106  1.6861  1.7460  1.3271
  177SOPE   C3520185   4.385   5.666  10.111 -0.1387 -0.0789 -0.1623
  177SOPE   H5X20186   4.278   5.661  10.085  0.7185 -3.9576 -3.4121
  177SOPE   H5Y20187   4.412   5.584  10.180  1.0587  1.3942  1.1849
  177SOPE   C3620188   4.455   5.644   9.978 -0.1286  0.2168  0.5607
  177SOPE   H6X20189   4.413   5.545   9.948  0.4674 -0.3270  1.5038
  177SOPE   H6Y20190   4.564   5.627   9.991 -0.3603 -1.1928  0.6923
  177SOPE   C3720191   4.423   5.748   9.874  0.8018  0.4608  0.2752
  177SOPE   H7X20192   4.484   5.837   9.900 -0.8704  1.4883  0.7667
  177SOPE   H7Y20193   4.320   5.782   9.896 -0.8644 -3.5169 -0.9769
  177SOPE   C3820194   4.431   5.699   9.726 -0.6214  0.6892 -0.6174
  177SOPE   H8X20195   4.339   5.738   9.677 -2.0181  0.1499  1.5216
  177SOPE   H8Y20196   4.424   5.588   9.721 -0.1104  0.6490 -0.4377
  177SOPE   C3920197   4.549   5.772   9.660 -0.3014 -0.0412 -0.1151
  177SOPE   H9X20198   4.641   5.712   9.678  0.6742  1.2531 -0.6769
  177SOPE   H9Y20199   4.567   5.867   9.713 -0.7513  0.9137 -1.6508
  177SOPE  C31020200   4.532   5.810   9.509 -0.3607 -0.4702 -0.1010
  177SOPE  H10X20201   4.611   5.881   9.477 -0.6560 -0.9306 -1.9086
  177SOPE  H10Y20202   4.439   5.862   9.477  0.4902  1.6201  0.7390
  177SOPE  C31120203   4.535   5.679   9.418  0.3356  0.1598  0.5841
  177SOPE  H11X20204   4.434   5.633   9.422 -1.0185  2.7105 -2.4089
  177SOPE  H11Y20205   4.610   5.612   9.466 -1.2476 -1.5769  0.6685
  177SOPE  C31220206   4.565   5.724   9.278  0.4733 -0.0056 -0.3191
  177SOPE  H12X20207   4.639   5.806   9.283 -0.0051  0.3410  1.4381
  177SOPE  H12Y20208   4.471   5.764   9.232 -0.1567 -1.0362  0.0467
  177SOPE  C31320209   4.614   5.608   9.191 -0.2476 -0.6805  0.6180
  177SOPE  H13X20210   4.553   5.517   9.208 -0.7484 -0.2900  0.9424
  177SOPE  H13Y20211   4.716   5.575   9.219  0.8337  0.6602 -1.5697
  177SOPE  C31420212   4.614   5.631   9.034  0.2660 -0.4202 -0.2858
  177SOPE  H14X20213   4.510   5.636   8.996 -0.6667 -2.3272  1.8777
  177SOPE  H14Y20214   4.653   5.546   8.974 -0.5080 -1.7241  1.0044
  177SOPE  C31520215   4.697   5.753   8.987  0.2852 -0.4213 -0.1437
  177SOPE  H15X20216   4.800   5.737   9.024  0.8975  2.4231 -0.5623
  177SOPE  H15Y20217   4.662   5.848   9.033 -3.4657 -1.3060 -0.9552
  177SOPE  C31620218   4.699   5.767   8.838  0.2731 -0.5524  0.5586
  177SOPE  H16X20219   4.598   5.792   8.799  0.5496  0.2994  0.3630
  177SOPE  H16Y20220   4.718   5.662   8.806  0.3802 -0.3253 -0.1320
  177SOPE  C31720221   4.801   5.861   8.793 -0.0789  0.0171 -0.3222
  177SOPE  H17X20222   4.884   5.860   8.866 -0.2144  0.1029 -0.1682
  177SOPE  H17Y20223   4.767   5.967   8.801 -0.1653  0.0867 -1.4963
  177SOPE  C31820224   4.861   5.847   8.650  0.4570 -0.0004 -0.4492
  177SOPE  H18X20225   4.886   5.950   8.616 -0.2450  0.6050  0.8103
  177SOPE  H18Y20226   4.786   5.810   8.578  1.3484  1.0684 -1.9526
  177SOPE  H18Z20227   4.944   5.774   8.638 -0.0091 -0.7352  0.7495
  178SOPE     N20228   1.651   4.555  10.589  0.4266 -0.1420 -0.7079
  178SOPE   HN120229   1.690   4.651  10.587  1.1729 -0.3955  1.2135
  178SOPE   HN220230   1.650   4.516  10.492 -1.6795  1.2314 -1.2737
  178SOPE   HN320231   1.555   4.561  10.629  1.1943  0.5222  1.0835
  178SOPE   C1220232   1.732   4.459  10.672  0.7360 -0.0530 -0.1970
  178SOPE  H12A20233   1.716   4.482  10.779 -2.4973 -1.4615 -0.3138
  178SOPE  H12B20234   1.837   4.478  10.639  0.7843 -1.6162 -0.9732
  178SOPE   C1120235   1.699   4.308  10.648 -0.5243 -0.1466 -0.0386
  178SOPE  H11A20236   1.762   4.260  10.725  2.9190 -0.0915 -2.7008
  178SOPE  H11B20237   1.736   4.274  10.549  3.2014 -1.6272  1.7810
  178SOPE     P20238   1.505   4.132  10.667 -0.1702 -0.2398  0.0421
  178SOPE   O1320239   1.364   4.140  10.626 -0.0402 -0.4906  0.2178
  178SOPE   O1420240   1.544   4.078  10.797 -0.4389 -0.0679 -0.1389
  178SOPE   O1220241   1.563   4.278  10.656 -0.1077  0.0588 -0.0297
  178SOPE   O1120242   1.588   4.049  10.563  0.0075 -0.8952 -0.2136
  178SOPE    C120243   1.561   4.071  10.425  0.3111  0.2157  0.3134
  178SOPE    HA20244   1.574   4.180  10.409 -0.9712  0.1375 -1.3305
  178SOPE    HB20245   1.461   4.036  10.392  0.6903  1.5719 -2.3598
  178SOPE    C220246   1.660   3.997  10.337 -0.0949 -0.0429  0.0732
  178SOPE    HS20247   1.653   3.889  10.361  1.2007 -0.3643 -0.9087
  178SOPE   O2120248   1.801   4.046  10.351 -0.0653 -0.1505 -0.4109
  178SOPE   C2120249   1.893   3.953  10.336 -0.5723  0.8002  0.5400
  178SOPE   O2220250   1.870   3.832  10.322  0.2909  0.5212 -0.3130
  178SOPE   C2220251   2.039   4.006  10.346  0.0073  0.0533 -0.3488
  178SOPE   H2R20252   2.065   3.996  10.454  1.7709  0.9244 -0.6780
  178SOPE   H2S20253   2.057   4.105  10.300 -0.3057 -0.1842 -0.9799
  178SOPE    C320254   1.615   4.017  10.188 -0.0913  0.4660 -0.5025
  178SOPE    HX20255   1.636   4.124  10.165  1.5705  0.2189 -0.2115
  178SOPE    HY20256   1.504   4.011  10.179  0.0732 -1.4048 -1.4586
  178SOPE   O3120257   1.680   3.923  10.098 -0.1763  0.1484  0.1976
  178SOPE   C3120258   1.651   3.792  10.103 -0.6304  0.1460  0.0095
  178SOPE   O3220259   1.571   3.747  10.183 -0.4081  0.2015 -0.5238
  178SOPE   C3220260   1.740   3.718  10.004 -0.2548  0.1341 -0.0381
  178SOPE   H2X20261   1.759   3.617  10.046  2.0685  0.0460 -1.2596
  178SOPE   H2Y20262   1.837   3.768   9.988  0.4795 -1.4094 -0.4973
  178SOPE   C2320263   2.136   3.913  10.267 -0.2168  0.3570 -0.0963
  178SOPE   H3R20264   2.118   3.804  10.281  1.3502  0.1629  0.4859
  178SOPE   H3S20265   2.239   3.935  10.302 -0.4091  0.2322  0.5504
  178SOPE   C2420266   2.127   3.947  10.116  0.3451  0.3736 -0.8072
  178SOPE   H4R20267   2.037   3.898  10.074  0.3913 -1.7103  1.4015
  178SOPE   H4S20268   2.124   4.055  10.091  1.7831  0.4982 -0.4609
  178SOPE   C2520269   2.256   3.892  10.046  0.3933 -0.0960  0.4869
  178SOPE   H5R20270   2.346   3.932  10.096 -0.4024  3.6182 -0.9156
  178SOPE   H5S20271   2.271   3.783  10.063  0.9271 -0.2922 -1.1663
  178SOPE   C2620272   2.259   3.930   9.894 -0.3163  0.1900  0.1812
  178SOPE   H6R20273   2.286   4.035   9.868  3.0920 -0.9176 -1.0868
  178SOPE   H6S20274   2.335   3.869   9.841  0.9771  1.9398 -0.0624
  178SOPE   C2720275   2.125   3.882   9.823  0.6161 -0.9405  0.2743
  178SOPE   H7R20276   2.102   3.780   9.860  0.7503  0.2170  3.7948
  178SOPE   H7S20277   2.043   3.956   9.834  0.6092 -0.6970 -1.3700
  178SOPE   C2820278   2.141   3.866   9.661 -0.1322  0.0607 -0.0397
  178SOPE   H8R20279   2.225   3.793   9.654  1.3695  1.5295  1.7807
  178SOPE   H8S20280   2.044   3.828   9.624  0.5342 -0.9067 -0.8260
  178SOPE   C2920281   2.180   3.988   9.576  0.4880 -0.5355  0.7682
  178SOPE   H9120282   2.145   4.080   9.624 -0.4305 -0.9900  0.9842
  178SOPE  C21020283   2.220   3.973   9.447 -0.6905  0.1968  0.2972
  178SOPE  H10120284   2.246   4.066   9.395 -0.3297  1.6579  3.0017
  178SOPE  C21120285   2.244   3.846   9.371  0.1550  0.1432 -0.6998
  178SOPE  H11R20286   2.143   3.815   9.336 -0.8113  3.4135 -0.9078
  178SOPE  H11S20287   2.290   3.764   9.430  0.8148  2.2278  1.7600
  178SOPE  C21220288   2.315   3.877   9.241  0.1700 -0.0527  0.0423
  178SOPE  H12R20289   2.338   3.777   9.199  0.3148  0.6400 -1.5393
  178SOPE  H12S20290   2.401   3.942   9.264 -0.6978  1.7312 -1.6240
  178SOPE  C21320291   2.230   3.944   9.134 -0.1210  1.0759 -0.2820
  178SOPE  H13R20292   2.207   4.049   9.164  0.5968  1.1574 -0.0162
  178SOPE  H13S20293   2.131   3.896   9.118  1.2510 -1.2288 -2.0419
  178SOPE  C21420294   2.298   3.961   9.000 -0.3854  0.1688  0.3599
  178SOPE  H14R20295   2.372   4.040   9.025  1.0004 -1.5377  1.8310
  178SOPE  H14S20296   2.224   4.011   8.934 -0.8527 -1.4781 -0.3901
  178SOPE  C21520297   2.381   3.843   8.946 -0.7473 -0.0156  0.4294
  178SOPE  H15R20298   2.431   3.794   9.032  0.1379 -0.6682 -0.4471
  178SOPE  H15S20299   2.457   3.876   8.872 -1.2673  0.7724  0.2401
  178SOPE  C21620300   2.287   3.739   8.875 -0.2496  0.0079  0.5133
  178SOPE  H16R20301   2.226   3.787   8.796 -0.6063  1.9082  1.8866
  178SOPE  H16S20302   2.228   3.694   8.958  0.5702 -1.5705  0.2666
  178SOPE  C21720303   2.356   3.617   8.808  0.1771  0.0179  0.5079
  178SOPE  H17R20304   2.283   3.545   8.766  0.2501  1.3759 -2.0285
  178SOPE  H17S20305   2.414   3.574   8.892  2.1405  0.4265 -0.6054
  178SOPE  C21820306   2.441   3.657   8.693 -0.8502  0.1453  0.4130
  178SOPE  H18R20307   2.511   3.738   8.719 -0.3571 -0.0880 -0.1857
  178SOPE  H18S20308   2.369   3.688   8.614 -1.4532  0.2711  0.9979
  178SOPE  H18T20309   2.495   3.569   8.653  0.4534  0.6548  1.0488
  178SOPE   C3320310   1.677   3.714   9.866  0.1720 -0.0198 -1.0074
  178SOPE   H3X20311   1.643   3.816   9.838 -0.3340  0.0892  0.0038
  178SOPE   H3Y20312   1.582   3.658   9.874  0.4794 -0.1932  1.7569
  178SOPE   C3420313   1.765   3.665   9.755 -0.4882  0.4707  0.0670
  178SOPE   H4X20314   1.801   3.560   9.741 -2.4544 -0.2779  0.5152
  178SOPE   H4Y20315   1.865   3.714   9.763 -0.2429 -0.0978  0.4987
  178SOPE   C3520316   1.720   3.717   9.616 -0.1088 -0.6177  0.2754
  178SOPE   H5X20317   1.729   3.827   9.606 -0.5225 -0.6225 -0.1697
  178SOPE   H5Y20318   1.611   3.698   9.602 -0.6594  3.2105 -1.2732
  178SOPE   C3620319   1.804   3.661   9.504  0.4053  0.3669  0.1598
  178SOPE   H6X20320   1.785   3.552   9.502 -0.0999  0.4224  1.5473
  178SOPE   H6Y20321   1.914   3.671   9.517  0.7598 -0.5596 -1.8671
  178SOPE   C3720322   1.761   3.717   9.367 -0.0191 -0.2192 -0.4159
  178SOPE   H7X20323   1.757   3.828   9.364  5.1605  0.0810 -0.1171
  178SOPE   H7Y20324   1.657   3.684   9.345  0.2953  0.4219 -3.1224
  178SOPE   C3820325   1.844   3.665   9.253 -0.3924  0.2001  0.4811
  178SOPE   H8X20326   1.834   3.555   9.249 -1.2255  0.3210 -2.5027
  178SOPE   H8Y20327   1.948   3.703   9.254 -1.1676  2.4553  0.2589
  178SOPE   C3920328   1.787   3.716   9.122  0.8728  0.2090 -0.4699
  178SOPE   H9X20329   1.765   3.824   9.137 -0.2633  0.0617 -1.0428
  178SOPE   H9Y20330   1.693   3.664   9.096 -1.6780  3.3218  2.0397
  178SOPE  C31020331   1.880   3.695   9.003 -0.3241  0.7397 -0.1835
  178SOPE  H10X20332   1.889   3.586   8.984 -0.6514  1.3148 -3.8141
  178SOPE  H10Y20333   1.984   3.730   9.020  0.2889 -1.5781  1.1360
  178SOPE  C31120334   1.829   3.759   8.877  0.1157  0.2672  0.4127
  178SOPE  H11X20335   1.841   3.868   8.891 -2.1178  0.5050  0.5828
  178SOPE  H11Y20336   1.723   3.737   8.850  0.1800 -0.0811  0.4430
  178SOPE  C31220337   1.918   3.732   8.754  0.7780  0.5887 -0.1034
  178SOPE  H12X20338   1.903   3.625   8.732 -3.3794  1.3208 -1.3147
  178SOPE  H12Y20339   2.023   3.768   8.767  1.1423  0.5345 -2.5365
  178SOPE  C31320340   1.856   3.800   8.622 -0.1793 -0.2411  0.0416
  178SOPE  H13X20341   1.882   3.908   8.631  2.2763 -0.6029 -1.9135
  178SOPE  H13Y20342   1.747   3.781   8.618  0.1852 -1.9477 -2.3107
  178SOPE  C31420343   1.913   3.743   8.493  0.2191  0.0646  0.5694
  178SOPE  H14X20344   1.844   3.673   8.442 -0.7046  0.0499  1.8313
  178SOPE  H14Y20345   2.018   3.708   8.509  0.2306  1.0103  2.6979
  178SOPE  C31520346   1.918   3.844   8.382 -0.4466 -0.2353  0.2477
  178SOPE  H15X20347   1.820   3.898   8.384 -1.1048 -1.3722 -0.6469
  178SOPE  H15Y20348   1.906   3.791   8.286 -1.8839 -1.9017  1.3156
  178SOPE  C31620349   2.053   3.923   8.375  0.1772  0.6175  0.0364
  178SOPE  H16X20350   2.131   3.844   8.364  1.8506  2.4373 -1.3535
  178SOPE  H16Y20351   2.077   3.977   8.469  1.0706 -0.0692  0.2191
  178SOPE  C31720352   2.042   4.012   8.256  1.1151  0.2708  0.0203
  178SOPE  H17X20353   1.958   4.084   8.264 -0.5534 -1.8416  2.7297
  178SOPE  H17Y20354   2.023   3.948   8.167  0.1075  2.3188 -1.2647
  178SOPE  C31820355   2.163   4.107   8.218  0.7868  0.5062 -0.4876
  178SOPE  H18X20356   2.126   4.167   8.132  1.9158 -1.0190 -2.0845
  178SOPE  H18Y20357   2.243   4.036   8.188  0.6489 -0.4875  1.4151
  178SOPE  H18Z20358   2.184   4.173   8.305 -1.0275 -2.1290  2.0557
  179SOPE     N20359   0.063   6.210   6.266  0.2936  0.0411  0.2454
  179SOPE   HN120360   0.147   6.255   6.225  1.2680  0.3510  2.5486
  179SOPE   HN220361  -0.006   6.178   6.194  2.7098 -1.5682 -1.4217
  179SOPE   HN320362   0.025   6.277   6.336  0.6544  0.8958 -0.3562
  179SOPE   C1220363   0.078   6.091   6.352 -0.2753  0.6248 -0.5403
  179SOPE  H12A20364   0.077   6.000   6.288 -0.0968 -0.7833  1.4010
  179SOPE  H12B20365  -0.012   6.104   6.417  2.0272 -0.7937  3.0676
  179SOPE   C1120366   0.210   6.115   6.431  0.5510 -0.2673  0.6471
  179SOPE  H11A20367   0.294   6.132   6.360 -1.5975  0.8051 -1.7064
  179SOPE  H11B20368   0.227   6.029   6.499  0.1317  0.5233  1.7671
  179SOPE     P20369   0.298   6.285   6.602  0.4498  0.6790  0.3585
  179SOPE   O1320370   0.322   6.426   6.578  0.7420 -0.1254 -0.1093
  179SOPE   O1420371   0.411   6.187   6.603  0.4335 -0.4355 -0.2509
  179SOPE   O1220372   0.190   6.230   6.507  0.3407 -0.0242  0.4418
  179SOPE   O1120373   0.213   6.268   6.734  0.4930 -0.3165 -0.0148
  179SOPE    C120374   0.122   6.166   6.777 -0.2406 -0.6311  0.4833
  179SOPE    HA20375   0.054   6.155   6.690  1.3332 -2.6279 -0.5406
  179SOPE    HB20376   0.066   6.201   6.866  0.2318  0.3438  0.3999
  179SOPE    C220377   0.171   6.025   6.808 -0.2884 -0.4348  0.3086
  179SOPE    HS20378   0.238   6.001   6.723 -2.2271 -2.7578 -0.6522
  179SOPE   O2120379   0.051   5.943   6.821 -0.4818 -0.3478  0.9867
  179SOPE   C2120380   0.050   5.826   6.759  0.1851 -0.2476  0.2165
  179SOPE   O2220381   0.146   5.769   6.704 -0.0666 -0.0500  0.5897
  179SOPE   C2220382  -0.085   5.754   6.784  0.3990  1.4326 -0.0540
  179SOPE   H2R20383  -0.105   5.705   6.687 -3.4749  1.1907  0.7860
  179SOPE   H2S20384  -0.164   5.823   6.819 -1.1990  1.0247 -2.7959
  179SOPE    C320385   0.242   6.025   6.945  0.5254  0.5569  0.3095
  179SOPE    HX20386   0.174   6.061   7.025  2.0401 -1.3614  2.5118
  179SOPE    HY20387   0.329   6.091   6.922 -2.4115  4.0689 -1.3545
  179SOPE   O3120388   0.280   5.889   6.981  0.2245  0.6126 -0.3497
  179SOPE   C3120389   0.400   5.845   6.945  0.3923  0.5292 -0.7014
  179SOPE   O3220390   0.480   5.909   6.884 -0.3023 -0.4952 -0.1436
  179SOPE   C3220391   0.415   5.695   6.967 -0.4253  0.3862 -0.3443
  179SOPE   H2X20392   0.448   5.646   6.872  0.1969  1.1786 -0.5377
  179SOPE   H2Y20393   0.315   5.654   6.993 -2.2185  3.1584 -2.5780
  179SOPE   C2320394  -0.069   5.644   6.901 -0.2927 -0.4803  0.5180
  179SOPE   H3R20395   0.030   5.595   6.887 -0.9296 -1.5637 -0.3036
  179SOPE   H3S20396  -0.145   5.565   6.882 -0.0926 -0.8343  1.1952
  179SOPE   C2420397  -0.073   5.702   7.041 -0.0629  0.4041 -0.7955
  179SOPE   H4R20398  -0.008   5.792   7.050 -0.0221  0.5683 -2.5756
  179SOPE   H4S20399  -0.174   5.735   7.075  0.4231  0.8037  0.2847
  179SOPE   C2520400  -0.016   5.610   7.151  0.3320 -0.0688 -0.1047
  179SOPE   H5R20401  -0.095   5.533   7.166 -0.0910 -0.3834 -3.5632
  179SOPE   H5S20402   0.063   5.543   7.110 -1.2620 -1.0993 -1.5632
  179SOPE   C2620403   0.021   5.689   7.280 -0.3417  0.3834 -0.2057
  179SOPE   H6R20404   0.099   5.762   7.248 -0.8000  0.0483 -2.1511
  179SOPE   H6S20405  -0.068   5.737   7.325 -0.6797 -3.4965  3.5501
  179SOPE   C2720406   0.063   5.587   7.377 -0.0305  0.0544 -1.1830
  179SOPE   H7R20407  -0.008   5.502   7.382 -0.3614  0.1976 -3.1113
  179SOPE   H7S20408   0.158   5.554   7.330  1.0307 -0.4025  1.1936
  179SOPE   C2820409   0.085   5.628   7.525 -0.5835  0.6033  0.2560
  179SOPE   H8R20410   0.104   5.531   7.577  0.6747  0.4092 -0.5383
  179SOPE   H8S20411   0.176   5.691   7.537 -1.3398  1.5433  1.1067
  179SOPE   C2920412  -0.021   5.713   7.583  0.8505  0.2287 -0.2982
  179SOPE   H9120413  -0.021   5.815   7.542  0.6559  0.1527 -0.4882
  179SOPE  C21020414  -0.111   5.673   7.682  0.4064  0.3763 -0.4105
  179SOPE  H10120415  -0.177   5.748   7.728 -0.0818 -0.2910 -0.0171
  179SOPE  C21120416  -0.104   5.541   7.760 -0.1530  0.1055 -0.2835
  179SOPE  H11R20417  -0.080   5.461   7.686  1.0696  1.6273 -1.5846
  179SOPE  H11S20418  -0.206   5.531   7.803 -0.3069 -0.8424 -0.8362
  179SOPE  C21220419  -0.002   5.530   7.872  0.0202  0.4883  0.1254
  179SOPE  H12R20420   0.104   5.528   7.838 -0.3833 -0.4822 -1.1497
  179SOPE  H12S20421  -0.026   5.433   7.922 -0.6191  1.6521  2.1208
  179SOPE  C21320422  -0.031   5.646   7.979 -0.2846 -0.3812 -0.1441
  179SOPE  H13R20423  -0.140   5.636   7.993 -0.0406 -1.0383  1.4329
  179SOPE  H13S20424   0.012   5.743   7.947 -0.6627 -0.0215  0.4348
  179SOPE  C21420425   0.025   5.643   8.132  0.1517 -0.2040 -0.8043
  179SOPE  H14R20426  -0.006   5.740   8.178 -2.3336 -1.5096  0.3630
  179SOPE  H14S20427   0.135   5.628   8.142  0.7689  2.7120 -2.3976
  179SOPE  C21520428  -0.030   5.524   8.218 -0.2759 -0.0840 -0.1584
  179SOPE  H15R20429   0.010   5.427   8.181 -0.0871 -0.4406  0.9639
  179SOPE  H15S20430  -0.140   5.520   8.205 -0.1942  1.6889 -1.5522
  179SOPE  C21620431   0.007   5.515   8.367 -0.3922  0.0584  0.2137
  179SOPE  H16R20432   0.118   5.520   8.372 -0.1720 -2.1347 -1.2656
  179SOPE  H16S20433  -0.031   5.420   8.410 -1.4365 -0.9062 -2.6741
  179SOPE  C21720434  -0.065   5.623   8.442  0.1276  0.1663 -0.1723
  179SOPE  H17R20435  -0.169   5.618   8.403  0.3797 -0.3449 -0.7766
  179SOPE  H17S20436  -0.015   5.719   8.419  1.4032 -0.5701 -0.4983
  179SOPE  C21820437  -0.065   5.607   8.591 -0.7560  0.4529  0.0110
  179SOPE  H18R20438  -0.074   5.500   8.619  1.8674 -0.0104 -0.8253
  179SOPE  H18S20439  -0.145   5.669   8.638  1.1527  1.3109  2.2337
  179SOPE  H18T20440   0.031   5.626   8.643 -1.5285 -0.4679  1.8121
  179SOPE   C3320441   0.517   5.668   7.086 -0.1268  0.4070 -0.4032
  179SOPE   H3X20442   0.592   5.750   7.084 -1.0853  1.2785 -1.5726
  179SOPE   H3Y20443   0.580   5.579   7.065 -3.3373 -2.1749  0.5720
  179SOPE   C3420444   0.450   5.650   7.228  0.5545 -0.2231  0.0759
  179SOPE   H4X20445   0.366   5.576   7.226 -0.6586  1.1438 -2.6955
  179SOPE   H4Y20446   0.406   5.748   7.255 -0.3835 -0.1609 -1.5699
  179SOPE   C3520447   0.541   5.614   7.344  0.2592  0.6859  0.1759
  179SOPE   H5X20448   0.639   5.666   7.343 -0.0986  1.3691  0.0003
  179SOPE   H5Y20449   0.556   5.504   7.341 -1.3774  0.4852 -1.3959
  179SOPE   C3620450   0.476   5.649   7.472 -0.0726 -0.2318  0.2125
  179SOPE   H6X20451   0.389   5.581   7.484 -0.5408  0.0362 -1.5589
  179SOPE   H6Y20452   0.426   5.748   7.469 -1.9411 -1.0156  3.0191
  179SOPE   C3720453   0.569   5.641   7.601  0.1130  0.0294  0.1343
  179SOPE   H7X20454   0.652   5.706   7.565  1.0827 -1.4040 -0.2229
  179SOPE   H7Y20455   0.608   5.539   7.618  1.0243  0.2721 -0.4657
  179SOPE   C3820456   0.489   5.683   7.728 -0.3830 -0.4596 -0.3381
  179SOPE   H8X20457   0.387   5.647   7.705 -0.0772 -0.5397 -1.5881
  179SOPE   H8Y20458   0.485   5.792   7.750  0.2481 -0.0431 -2.2404
  179SOPE   C3920459   0.534   5.607   7.853  0.1752 -0.3642 -0.4990
  179SOPE   H9X20460   0.641   5.636   7.865  0.1109 -0.7553  1.2513
  179SOPE   H9Y20461   0.523   5.496   7.847 -0.3081 -0.3322 -0.2732
  179SOPE  C31020462   0.455   5.656   7.982 -0.0850 -0.1985 -0.0405
  179SOPE  H10X20463   0.352   5.614   7.976 -0.2889  0.2697  0.1309
  179SOPE  H10Y20464   0.452   5.767   7.975  1.3802 -0.0877  0.7660
  179SOPE  C31120465   0.521   5.613   8.114  0.0854 -0.7328 -0.6461
  179SOPE  H11X20466   0.629   5.628   8.093  0.0356  1.9973  0.8590
  179SOPE  H11Y20467   0.521   5.503   8.130 -1.0888 -0.9553 -2.0198
  179SOPE  C31220468   0.481   5.689   8.239  0.0536  0.0756  0.2610
  179SOPE  H12X20469   0.375   5.658   8.250 -0.4565  1.2035 -1.1982
  179SOPE  H12Y20470   0.470   5.800   8.243  3.3085  0.5514 -1.8720
  179SOPE  C31320471   0.548   5.648   8.371  0.4246  0.5482  0.0025
  179SOPE  H13X20472   0.558   5.537   8.365  3.7502  0.7895  0.2192
  179SOPE  H13Y20473   0.482   5.673   8.456 -1.0360 -0.9125 -0.6718
  179SOPE  C31420474   0.689   5.711   8.401  0.5589 -0.9259 -0.0949
  179SOPE  H14X20475   0.736   5.708   8.301  2.7198  0.3305  0.8611
  179SOPE  H14Y20476   0.749   5.658   8.478 -0.4428 -0.7615  0.8321
  179SOPE  C31520477   0.683   5.861   8.450  0.3163  0.0989 -0.0948
  179SOPE  H15X20478   0.652   5.938   8.376  1.6847  1.3845  0.6460
  179SOPE  H15Y20479   0.785   5.893   8.479  0.0680  0.7559  0.0807
  179SOPE  C31620480   0.593   5.890   8.579 -0.4040  0.2856 -0.1456
  179SOPE  H16X20481   0.629   5.821   8.658 -2.3344  0.0526  0.5510
  179SOPE  H16Y20482   0.484   5.868   8.579 -0.7767  2.0583 -0.4882
  179SOPE  C31720483   0.599   6.037   8.640 -0.3651  0.5096 -0.1357
  179SOPE  H17X20484   0.545   6.089   8.558 -1.8753 -0.8589 -0.0445
  179SOPE  H17Y20485   0.701   6.078   8.653 -0.3375  0.1110  0.9705
  179SOPE  C31820486   0.512   6.048   8.766  0.1134 -0.3239 -0.1936
  179SOPE  H18X20487   0.555   5.986   8.847  0.5144  0.0155 -0.1443
  179SOPE  H18Y20488   0.407   6.013   8.754 -0.3635  0.0147  2.6131
  179SOPE  H18Z20489   0.511   6.154   8.799 -2.0147 -1.2080  2.8562
  180SOPE     N20490   5.790   5.163   6.182 -0.7551  0.2786 -0.4594
  180SOPE   HN120491   5.779   5.266   6.196 -0.8135  0.7982 -3.9088
  180SOPE   HN220492   5.705   5.129   6.133 -1.1063  1.9103 -1.0042
  180SOPE   HN320493   5.810   5.111   6.270 -0.3502  3.6187  1.4977
  180SOPE   C1220494   5.908   5.138   6.087 -0.2577 -0.4838 -0.6030
  180SOPE  H12A20495   5.900   5.203   5.997  2.7998 -0.1842 -0.7102
  180SOPE  H12B20496   5.899   5.036   6.043 -1.8906 -0.4277 -0.4086
  180SOPE   C1120497   6.044   5.174   6.150  0.3267 -0.4012  0.5530
  180SOPE  H11A20498   6.117   5.163   6.068  0.7727 -0.0173  0.8943
  180SOPE  H11B20499   6.075   5.096   6.223  0.6887  1.1537  2.1016
  180SOPE     P20500   6.176   5.347   6.286 -0.1578 -0.0922 -0.2093
  180SOPE   O1320501   6.179   5.492   6.323  0.0847 -0.1980  0.2879
  180SOPE   O1420502   6.296   5.296   6.217 -0.0112  0.5640 -0.4254
  180SOPE   O1220503   6.047   5.308   6.205 -0.1488 -0.4519 -0.3316
  180SOPE   O1120504   6.147   5.259   6.412  0.8311 -0.5921  0.1012
  180SOPE    C120505   6.040   5.302   6.498  0.1484 -0.2800  0.6020
  180SOPE    HA20506   5.978   5.213   6.521 -1.3636  0.8496  0.9889
  180SOPE    HB20507   5.984   5.386   6.451  0.0747  0.1336  1.4258
  180SOPE    C220508   6.094   5.337   6.637  0.5898  0.4356  1.1422
  180SOPE    HS20509   6.164   5.422   6.623 -0.1372  0.9229  0.3898
  180SOPE   O2120510   6.149   5.220   6.693 -0.3323 -0.3391 -0.1406
  180SOPE   C2120511   6.277   5.236   6.726  0.6010  0.5932  0.4789
  180SOPE   O2220512   6.352   5.324   6.686  0.3691 -0.0359 -0.0661
  180SOPE   C2220513   6.307   5.118   6.821  0.2429  0.0012 -0.1824
  180SOPE   H2R20514   6.417   5.110   6.803  0.2259 -1.6095  0.3279
  180SOPE   H2S20515   6.246   5.030   6.791 -0.3353  0.3435 -0.0198
  180SOPE    C320516   5.986   5.392   6.738  0.3551  0.2621 -0.3845
  180SOPE    HX20517   5.903   5.319   6.723  1.7412 -1.8016  1.6363
  180SOPE    HY20518   5.944   5.488   6.702  1.2252  0.4350 -0.9419
  180SOPE   O3120519   6.031   5.395   6.876  0.1883  0.4836  0.5439
  180SOPE   C3120520   5.932   5.411   6.964  0.4282 -0.6747  0.4311
  180SOPE   O3220521   5.815   5.428   6.928 -0.6016  0.3484 -0.5122
  180SOPE   C3220522   5.995   5.421   7.103 -0.1150 -0.0892  0.0361
  180SOPE   H2X20523   6.057   5.513   7.106  0.3344 -0.3784 -0.2441
  180SOPE   H2Y20524   6.067   5.337   7.101  0.9482  0.8406 -1.6648
  180SOPE   C2320525   6.275   5.144   6.969 -0.3028  0.3301 -0.4219
  180SOPE   H3R20526   6.169   5.156   6.998  0.0218  1.6827  0.2614
  180SOPE   H3S20527   6.326   5.237   7.003  1.5295 -0.4156 -1.0878
  180SOPE   C2420528   6.326   5.033   7.056 -0.0826 -0.2091 -0.5766
  180SOPE   H4R20529   6.287   4.939   7.013  0.9204 -2.0463  2.3725
  180SOPE   H4S20530   6.436   5.021   7.062 -0.0732 -0.8838 -1.8719
  180SOPE   C2520531   6.265   5.037   7.197 -0.5647  0.1516  0.0667
  180SOPE   H5R20532   6.155   5.028   7.194 -0.8781  2.4129  2.5753
  180SOPE   H5S20533   6.308   4.957   7.261 -2.0895  0.3564  1.3829
  180SOPE   C2620534   6.304   5.165   7.275 -0.5818  0.0111  0.0335
  180SOPE   H6R20535   6.414   5.180   7.275 -0.6668  0.6401 -0.5144
  180SOPE   H6S20536   6.260   5.261   7.240  0.0442  0.0883 -0.5628
  180SOPE   C2720537   6.248   5.152   7.424 -0.8489  0.1793  0.2159
  180SOPE   H7R20538   6.137   5.145   7.423 -0.7794 -0.9355 -0.6974
  180SOPE   H7S20539   6.291   5.063   7.475  0.1590  1.2030  1.1710
  180SOPE   C2820540   6.283   5.275   7.504 -0.8231 -0.6572 -0.3997
  180SOPE   H8R20541   6.250   5.368   7.452  0.0164  0.8070  1.5874
  180SOPE   H8S20542   6.217   5.273   7.594  1.1459 -0.1279  1.0834
  180SOPE   C2920543   6.426   5.284   7.559  0.1368  0.3764  0.0710
  180SOPE   H9120544   6.495   5.329   7.487 -0.0492 -0.6314 -0.7464
  180SOPE  C21020545   6.471   5.242   7.681 -0.3548 -0.1247 -0.9806
  180SOPE  H10120546   6.577   5.258   7.704 -0.7196 -0.2188  0.8574
  180SOPE  C21120547   6.396   5.169   7.788 -0.3528  0.7174  0.0093
  180SOPE  H11R20548   6.446   5.074   7.814  1.3531  1.5571 -0.1594
  180SOPE  H11S20549   6.298   5.144   7.742 -0.8105  2.6386 -0.0798
  180SOPE  C21220550   6.370   5.254   7.918 -0.1647  0.4825 -0.5427
  180SOPE  H12R20551   6.288   5.200   7.970  0.3520 -1.2476 -1.4964
  180SOPE  H12S20552   6.344   5.358   7.889 -2.2001 -0.1638 -1.1009
  180SOPE  C21320553   6.495   5.246   8.006 -0.8172 -0.4853 -0.1730
  180SOPE  H13R20554   6.565   5.330   7.987 -0.5192 -1.0809 -1.7516
  180SOPE  H13S20555   6.554   5.153   7.987 -0.4722 -0.3030  0.0059
  180SOPE  C21420556   6.447   5.243   8.157  0.4438 -0.1465 -0.3636
  180SOPE  H14R20557   6.536   5.241   8.223  0.6609 -0.4094 -0.6654
  180SOPE  H14S20558   6.391   5.148   8.171  0.3645  0.4319  3.5993
  180SOPE  C21520559   6.351   5.360   8.196 -1.4781  0.1400  0.2441
  180SOPE  H15R20560   6.254   5.350   8.142 -1.4594 -1.1804  0.4429
  180SOPE  H15S20561   6.384   5.460   8.161  0.7398 -0.0351  1.7423
  180SOPE  C21620562   6.323   5.374   8.348 -0.0946  0.3588  0.4945
  180SOPE  H16R20563   6.412   5.351   8.411 -0.6963  3.5163  2.6148
  180SOPE  H16S20564   6.249   5.300   8.387 -1.1755  0.9990 -0.3301
  180SOPE  C21720565   6.284   5.511   8.392 -0.6941 -0.5043  0.0691
  180SOPE  H17R20566   6.363   5.581   8.358 -0.8980 -0.5251 -0.4618
  180SOPE  H17S20567   6.278   5.507   8.503 -2.0154 -1.7169 -0.0348
  180SOPE  C21820568   6.149   5.564   8.335  1.3416  0.5598 -0.3825
  180SOPE  H18R20569   6.149   5.591   8.227 -0.1857 -4.4071 -1.7601
  180SOPE  H18S20570   6.119   5.655   8.391 -3.4182 -0.9730 -0.2418
  180SOPE  H18T20571   6.063   5.496   8.354 -0.5916  3.1970  0.6142
  180SOPE   C3320572   5.899   5.425   7.216 -0.0607  0.1948 -0.5563
  180SOPE   H3X20573   5.809   5.487   7.197  0.3534  1.3895  1.2977
  180SOPE   H3Y20574   5.944   5.487   7.297 -0.4511  0.3403 -0.4519
  180SOPE   C3420575   5.846   5.286   7.260  0.4926  0.6916  0.7463
  180SOPE   H4X20576   5.932   5.216   7.265 -0.3498 -0.3957  0.1810
  180SOPE   H4Y20577   5.769   5.242   7.193  1.2802  0.9014 -0.3189
  180SOPE   C3520578   5.785   5.301   7.392 -0.0478  0.0433 -0.1829
  180SOPE   H5X20579   5.694   5.239   7.403  0.1075 -0.2834 -0.7308
  180SOPE   H5Y20580   5.747   5.406   7.394  0.7102  0.3190  0.3316
  180SOPE   C3620581   5.869   5.282   7.514  0.3148  1.0403 -0.4083
  180SOPE   H6X20582   5.975   5.309   7.495  0.2001  1.7219 -0.1093
  180SOPE   H6Y20583   5.863   5.172   7.524  1.7124  1.0259  0.3164
  180SOPE   C3720584   5.827   5.366   7.640  0.3123 -0.0722  0.7661
  180SOPE   H7X20585   5.716   5.369   7.639  0.3074  1.5749 -3.5787
  180SOPE   H7Y20586   5.847   5.475   7.626  0.4261 -0.5113 -3.0632
  180SOPE   C3820587   5.886   5.319   7.774 -0.6813 -0.0879  0.4385
  180SOPE   H8X20588   5.996   5.335   7.778 -0.8408  0.5565  2.7017
  180SOPE   H8Y20589   5.879   5.209   7.788 -0.5066  0.1787  2.7935
  180SOPE   C3920590   5.834   5.399   7.894 -0.0502  0.2045  0.3165
  180SOPE   H9X20591   5.725   5.385   7.911  0.1441 -1.0136  0.6350
  180SOPE   H9Y20592   5.846   5.507   7.872  0.9854  0.2545  1.1183
  180SOPE  C31020593   5.912   5.357   8.021  0.3955 -0.0509 -0.4035
  180SOPE  H10X20594   6.020   5.370   7.999  0.7057 -0.8484  0.5421
  180SOPE  H10Y20595   5.885   5.250   8.039 -0.6317  0.2866  0.1403
  180SOPE  C31120596   5.856   5.431   8.144 -0.0851  0.2480 -0.0976
  180SOPE  H11X20597   5.913   5.393   8.231  0.8213  0.4153 -0.6096
  180SOPE  H11Y20598   5.748   5.405   8.144 -0.1154  0.3531 -1.0816
  180SOPE  C31220599   5.845   5.591   8.147 -0.4242  0.0790  0.2369
  180SOPE  H12X20600   5.830   5.631   8.045 -0.5873 -4.8055 -1.8088
  180SOPE  H12Y20601   5.946   5.633   8.165 -0.3770 -0.1087  0.4212
  180SOPE  C31320602   5.739   5.641   8.239  0.2448 -0.0762 -0.3475
  180SOPE  H13X20603   5.636   5.602   8.226  0.5895 -0.7873 -0.9874
  180SOPE  H13Y20604   5.740   5.751   8.223 -0.0311 -0.2355 -1.4914
  180SOPE  C31420605   5.775   5.624   8.385 -0.0355 -0.2020  0.0541
  180SOPE  H14X20606   5.872   5.671   8.412 -1.9473  3.9832 -0.0237
  180SOPE  H14Y20607   5.767   5.516   8.409 -0.6805  0.0920  1.1438
  180SOPE  C31520608   5.676   5.694   8.483  0.0372 -0.6353 -0.0050
  180SOPE  H15X20609   5.572   5.671   8.453 -0.1275  1.8130 -1.3641
  180SOPE  H15Y20610   5.686   5.804   8.476  1.5692 -0.8946 -2.1632
  180SOPE  C31620611   5.693   5.643   8.623  0.0453  0.6879 -0.2547
  180SOPE  H16X20612   5.792   5.633   8.672 -1.6740 -1.3056  2.9624
  180SOPE  H16Y20613   5.661   5.536   8.625  0.2592  0.6410  0.6002
  180SOPE  C31720614   5.606   5.708   8.724 -0.2259  0.5947  0.5937
  180SOPE  H17X20615   5.626   5.817   8.726 -0.4002  0.6671 -0.8582
  180SOPE  H17Y20616   5.617   5.678   8.830 -0.9618  1.8568  1.0368
  180SOPE  C31820617   5.457   5.708   8.692  0.1572  0.4190 -0.2368
  180SOPE  H18X20618   5.401   5.736   8.784  0.1991  0.3541 -0.1909
  180SOPE  H18Y20619   5.421   5.607   8.663 -0.8841  0.9512 -0.8188
  180SOPE  H18Z20620   5.443   5.778   8.607  0.0030  0.5768 -0.0824
  181SOPE     N20621   6.550   3.229   5.860 -0.5826  0.3903 -0.2036
  181SOPE   HN120622   6.485   3.218   5.779 -1.8287  0.0090  0.8319
  181SOPE   HN220623   6.613   3.311   5.846  0.1010 -0.2945 -1.2331
  181SOPE   HN320624   6.609   3.143   5.858 -2.9210 -1.2629 -0.6800
  181SOPE   C1220625   6.470   3.250   5.980 -0.2987 -0.2173 -0.2622
  181SOPE  H12A20626   6.380   3.306   5.946  0.1460  0.7737  0.1720
  181SOPE  H12B20627   6.525   3.321   6.046 -0.6123  0.3742 -0.6326
  181SOPE   C1120628   6.436   3.118   6.052 -0.1362 -0.7514  0.1462
  181SOPE  H11A20629   6.379   3.131   6.147 -0.4179 -3.5177  0.3881
  181SOPE  H11B20630   6.537   3.082   6.078  0.5895  1.5773  0.7260
  181SOPE     P20631   6.300   2.893   6.035 -0.0630 -0.3097 -0.2726
  181SOPE   O1320632   6.289   2.793   5.927 -0.8991  0.3258  0.2597
  181SOPE   O1420633   6.176   2.932   6.098  0.2493 -0.1300  0.5240
  181SOPE   O1220634   6.358   3.028   5.966 -0.2743  0.3265  0.3734
  181SOPE   O1120635   6.404   2.857   6.145  0.4382 -0.4712 -0.4487
  181SOPE    C120636   6.382   2.738   6.216 -0.0240  0.4692 -0.1617
  181SOPE    HA20637   6.435   2.653   6.167  0.9085  1.3193 -0.6548
  181SOPE    HB20638   6.276   2.706   6.221 -0.1108  0.8840  0.6140
  181SOPE    C220639   6.434   2.747   6.363  0.6003  0.1518  0.3015
  181SOPE    HS20640   6.391   2.654   6.405  1.3444 -0.0370  0.6415
  181SOPE   O2120641   6.379   2.862   6.438 -0.2104 -0.4031 -0.0420
  181SOPE   C2120642   6.249   2.850   6.460 -0.0082  0.9875 -0.1778
  181SOPE   O2220643   6.178   2.755   6.438  0.2549  0.0552  0.3359
  181SOPE   C2220644   6.189   2.980   6.513  0.1020 -0.8315  0.6772
  181SOPE   H2R20645   6.188   3.035   6.416 -0.7654  1.3476  1.8883
  181SOPE   H2S20646   6.263   3.029   6.580  1.1435 -3.3931  1.4547
  181SOPE    C320647   6.591   2.750   6.373  0.8367  0.6893  0.1152
  181SOPE    HX20648   6.630   2.819   6.295  1.8199 -0.0847 -0.0900
  181SOPE    HY20649   6.623   2.647   6.347 -2.2219 -0.0301 -1.0172
  181SOPE   O3120650   6.643   2.798   6.500 -0.0454  0.2742 -0.4448
  181SOPE   C3120651   6.658   2.702   6.592  0.0053  0.7556  0.8657
  181SOPE   O3220652   6.632   2.581   6.577 -0.1216 -0.6034  0.7470
  181SOPE   C3220653   6.708   2.774   6.722 -0.5463  0.1140 -0.4035
  181SOPE   H2X20654   6.640   2.855   6.756 -1.6823 -1.9088  2.3170
  181SOPE   H2Y20655   6.805   2.821   6.695 -0.4825  0.7734  0.9216
  181SOPE   C2320656   6.044   2.977   6.565  0.3330  0.2043  0.6006
  181SOPE   H3R20657   5.976   2.934   6.488  0.3299  0.2550  0.5754
  181SOPE   H3S20658   6.010   3.082   6.572 -0.7400 -0.1759  1.1778
  181SOPE   C2420659   6.036   2.904   6.697 -0.6680  0.1098 -0.2281
  181SOPE   H4R20660   6.074   2.800   6.693 -1.2630 -0.0590 -2.2759
  181SOPE   H4S20661   6.111   2.951   6.764  1.6900 -0.6372 -2.2568
  181SOPE   C2520662   5.906   2.903   6.770 -0.6280 -0.4852  0.1790
  181SOPE   H5R20663   5.875   3.007   6.791 -1.4563 -0.3261 -1.6949
  181SOPE   H5S20664   5.827   2.858   6.707  0.4931 -0.7236 -1.0999
  181SOPE   C2620665   5.911   2.825   6.902  0.5923  0.1888 -0.0679
  181SOPE   H6R20666   5.897   2.717   6.884  1.5964  0.0201  0.1331
  181SOPE   H6S20667   6.006   2.841   6.957 -0.6741  2.1329  1.6478
  181SOPE   C2720668   5.812   2.891   6.999  0.1740  0.2890  0.1627
  181SOPE   H7R20669   5.836   2.997   7.020  2.1638 -0.0025 -0.5090
  181SOPE   H7S20670   5.717   2.899   6.942 -0.9043 -1.0275  1.7253
  181SOPE   C2820671   5.783   2.811   7.127  0.4286 -0.6879  0.6483
  181SOPE   H8R20672   5.705   2.869   7.182  0.0980  0.1170 -0.6543
  181SOPE   H8S20673   5.733   2.714   7.110 -1.2145  0.2618 -0.0334
  181SOPE   C2920674   5.897   2.786   7.212 -0.0900  0.5842  0.1572
  181SOPE   H9120675   5.996   2.814   7.172  1.0618 -1.4868  1.4664
  181SOPE  C21020676   5.883   2.740   7.340 -0.7458  0.4039  0.8425
  181SOPE  H10120677   5.972   2.707   7.396  1.3177 -0.3143 -2.6746
  181SOPE  C21120678   5.748   2.709   7.414 -0.0258  0.1783  0.8338
  181SOPE  H11R20679   5.742   2.601   7.439  1.0259 -0.2257 -0.5693
  181SOPE  H11S20680   5.653   2.721   7.356  0.9602  1.2070 -0.6142
  181SOPE  C21220681   5.737   2.796   7.540  0.8694 -0.6635  0.4740
  181SOPE  H12R20682   5.641   2.781   7.593  0.8247  0.9755  0.8900
  181SOPE  H12S20683   5.756   2.903   7.521  0.3191 -0.5535  0.5492
  181SOPE  C21320684   5.847   2.743   7.633  0.0111  0.2819 -0.1063
  181SOPE  H13R20685   5.951   2.775   7.612 -0.0835  0.5728 -0.1337
  181SOPE  H13S20686   5.845   2.632   7.636  0.5658  0.2617 -0.3904
  181SOPE  C21420687   5.827   2.785   7.781 -0.6991 -0.9209 -1.3532
  181SOPE  H14R20688   5.907   2.744   7.846  1.4224  1.1432 -2.5738
  181SOPE  H14S20689   5.731   2.737   7.808 -0.6200 -0.4764 -0.2864
  181SOPE  C21520690   5.829   2.931   7.799 -0.7888 -0.1185  1.0434
  181SOPE  H15R20691   5.750   2.980   7.739 -1.8627 -0.7889  1.8783
  181SOPE  H15S20692   5.930   2.961   7.766 -1.4414  0.0070 -0.8770
  181SOPE  C21620693   5.782   2.966   7.940  0.0097  0.3028 -0.2444
  181SOPE  H16R20694   5.841   2.911   8.016  1.9696  2.8384  0.1479
  181SOPE  H16S20695   5.675   2.939   7.956 -0.3926  2.5503  1.1074
  181SOPE  C21720696   5.800   3.117   7.973 -0.5219  0.3502 -0.0861
  181SOPE  H17R20697   5.758   3.184   7.894  0.0891  2.0678  1.0187
  181SOPE  H17S20698   5.905   3.149   7.983 -0.4239  0.2429 -0.7482
  181SOPE  C21820699   5.733   3.146   8.108 -0.2218 -0.2862 -0.2308
  181SOPE  H18R20700   5.786   3.087   8.186 -2.7256  1.4015  2.9039
  181SOPE  H18S20701   5.632   3.100   8.105  0.6368 -2.2668  0.1008
  181SOPE  H18T20702   5.736   3.254   8.134 -0.3456  0.7162 -4.0477
  181SOPE   C3320703   6.724   2.676   6.842 -0.4603 -0.4289 -0.3821
  181SOPE   H3X20704   6.808   2.607   6.817 -1.1498 -0.9644 -1.2703
  181SOPE   H3Y20705   6.629   2.620   6.844 -0.3013 -0.6758  0.1356
  181SOPE   C3420706   6.759   2.757   6.964  0.3423  0.5675  0.5450
  181SOPE   H4X20707   6.684   2.838   6.968 -0.3168  0.0404 -0.8822
  181SOPE   H4Y20708   6.856   2.811   6.953 -1.2129  3.5852  1.1027
  181SOPE   C3520709   6.752   2.678   7.091 -0.0414 -0.3448  0.2782
  181SOPE   H5X20710   6.823   2.593   7.079  1.5702  0.8167  1.3587
  181SOPE   H5Y20711   6.659   2.618   7.100 -0.6156  0.7064  1.3758
  181SOPE   C3620712   6.784   2.761   7.215 -0.3926 -1.4848 -0.5556
  181SOPE   H6X20713   6.722   2.854   7.214  0.5673 -0.8232  0.5499
  181SOPE   H6Y20714   6.890   2.791   7.202  0.3304 -2.0490  3.5055
  181SOPE   C3720715   6.750   2.683   7.343 -0.4422 -0.3782  0.5092
  181SOPE   H7X20716   6.833   2.615   7.371 -1.1487 -1.3301  0.2951
  181SOPE   H7Y20717   6.655   2.629   7.321 -1.5209  1.2179  1.1455
  181SOPE   C3820718   6.713   2.775   7.460  0.8123  0.3627 -0.3438
  181SOPE   H8X20719   6.629   2.844   7.436  0.7821  0.7501  0.8118
  181SOPE   H8Y20720   6.800   2.843   7.477  1.3081  0.3901 -2.7919
  181SOPE   C3920721   6.670   2.680   7.576 -0.1709 -0.3517  0.1708
  181SOPE   H9X20722   6.764   2.622   7.592  0.6004  0.9196  0.2842
  181SOPE   H9Y20723   6.599   2.605   7.535 -2.8329  2.1307  0.1285
  181SOPE  C31020724   6.613   2.757   7.691  0.0091  0.4749 -0.3363
  181SOPE  H10X20725   6.506   2.785   7.679 -0.1016  0.3924  0.4131
  181SOPE  H10Y20726   6.669   2.849   7.717  2.8750 -1.0573 -0.9152
  181SOPE  C31120727   6.609   2.667   7.821 -0.5844  0.4272 -0.3185
  181SOPE  H11X20728   6.710   2.629   7.848 -0.9354 -0.2412  0.0946
  181SOPE  H11Y20729   6.545   2.577   7.803 -3.1282  1.9276  0.9143
  181SOPE  C31220730   6.552   2.727   7.952  0.1150  0.1851  0.1380
  181SOPE  H12X20731   6.441   2.728   7.953  0.0954  1.9005 -1.0913
  181SOPE  H12Y20732   6.586   2.830   7.971  0.0050  0.3092 -0.3320
  181SOPE  C31320733   6.585   2.638   8.074  0.1396 -0.5760 -0.1478
  181SOPE  H13X20734   6.694   2.621   8.090  0.0791 -1.1488 -0.3202
  181SOPE  H13Y20735   6.532   2.542   8.055  1.2702 -1.5743  1.6105
  181SOPE  C31420736   6.524   2.690   8.206 -0.0557 -0.0505  0.4580
  181SOPE  H14X20737   6.430   2.745   8.185 -1.0538 -1.7535  0.4077
  181SOPE  H14Y20738   6.597   2.765   8.244 -1.0083  0.6318  0.9916
  181SOPE  C31520739   6.501   2.593   8.321 -0.0745  0.2148  0.6167
  181SOPE  H15X20740   6.596   2.538   8.338 -0.4700 -0.8349 -0.4681
  181SOPE  H15Y20741   6.442   2.507   8.282 -2.2711  0.7901  2.5257
  181SOPE  C31620742   6.443   2.653   8.448 -0.5321 -0.6032 -0.6595
  181SOPE  H16X20743   6.369   2.735   8.435  0.9069  0.5163 -2.0835
  181SOPE  H16Y20744   6.523   2.712   8.498 -0.6185  0.5613 -1.8555
  181SOPE  C31720745   6.404   2.541   8.548 -0.5059 -0.4259  0.0651
  181SOPE  H17X20746   6.493   2.477   8.570  1.6791  3.4211  3.1007
  181SOPE  H17Y20747   6.328   2.475   8.500 -0.1436 -1.1430  0.4619
  181SOPE  C31820748   6.336   2.606   8.663 -0.0664  0.1119 -0.2155
  181SOPE  H18X20749   6.399   2.684   8.711  0.0195  0.0632 -0.2509
  181SOPE  H18Y20750   6.300   2.531   8.737 -0.4913 -0.3608 -0.8899
  181SOPE  H18Z20751   6.238   2.649   8.632 -1.1140 -0.6985  1.9062
  182SOPE     N20752   6.558   5.313   6.270 -0.0390  0.4213  0.2854
  182SOPE   HN120753   6.458   5.317   6.239  0.3003  0.6473 -0.8228
  182SOPE   HN220754   6.595   5.410   6.280 -0.8857  0.4833  3.2021
  182SOPE   HN320755   6.618   5.260   6.204 -2.9258 -3.5843  0.6995
  182SOPE   C1220756   6.579   5.240   6.398  0.6474  0.1635  0.1034
  182SOPE  H12A20757   6.525   5.299   6.476  1.6821  0.6345  0.4770
  182SOPE  H12B20758   6.683   5.225   6.434  0.4547  0.7872  0.9526
  182SOPE   C1120759   6.517   5.097   6.388  0.7487  0.0666  0.6395
  182SOPE  H11A20760   6.409   5.122   6.397  0.4585 -0.7930 -0.3701
  182SOPE  H11B20761   6.559   5.043   6.475  0.7437  0.1229  0.6774
  182SOPE     P20762   6.577   4.876   6.270 -0.3393 -0.2502  0.2015
  182SOPE   O1320763   6.678   4.842   6.371  0.0008 -0.2022 -0.7432
  182SOPE   O1420764   6.617   4.832   6.135 -0.4523 -0.3773  0.1844
  182SOPE   O1220765   6.544   5.029   6.268  0.2662  0.4375 -0.4105
  182SOPE   O1120766   6.439   4.805   6.303  0.5253 -0.2629  0.0073
  182SOPE    C120767   6.306   4.846   6.283  0.1293 -0.7856  0.1708
  182SOPE    HA20768   6.259   4.771   6.215 -0.8740  1.1408 -1.3440
  182SOPE    HB20769   6.295   4.933   6.214  0.8274  0.3716  1.5056
  182SOPE    C220770   6.216   4.853   6.404 -0.3933 -0.0013  0.2030
  182SOPE    HS20771   6.219   4.956   6.446  0.4696 -0.4258  1.1784
  182SOPE   O2120772   6.264   4.753   6.495  1.0948  0.1852  0.3382
  182SOPE   C2120773   6.356   4.777   6.575 -0.0537  0.0669 -0.3433
  182SOPE   O2220774   6.415   4.882   6.591 -0.1947  0.0939 -0.6311
  182SOPE   C2220775   6.388   4.659   6.667 -0.6263  0.5795  0.2899
  182SOPE   H2R20776   6.492   4.618   6.666 -0.6128  0.6294 -0.5296
  182SOPE   H2S20777   6.322   4.572   6.645  0.8988  0.1562 -2.8423
  182SOPE    C320778   6.063   4.828   6.376  0.0333  0.1572  1.1486
  182SOPE    HX20779   6.050   4.723   6.343 -1.0803 -0.3825  3.2228
  182SOPE    HY20780   6.042   4.896   6.290  1.3940 -1.3125 -0.3691
  182SOPE   O3120781   5.982   4.846   6.490  0.2671 -0.0993  0.2497
  182SOPE   C3120782   5.890   4.940   6.495  0.6129 -1.0232 -0.5919
  182SOPE   O3220783   5.861   5.021   6.411 -0.5469  0.2772  0.3293
  182SOPE   C3220784   5.826   4.944   6.638  0.5823  0.9398 -0.5956
  182SOPE   H2X20785   5.745   4.868   6.641 -1.5323  3.1592 -0.0770
  182SOPE   H2Y20786   5.774   5.042   6.641 -1.6864 -0.2956  1.1580
  182SOPE   C2320787   6.368   4.708   6.810  0.2554  0.0294 -0.3582
  182SOPE   H3R20788   6.259   4.705   6.833  0.3660 -3.6970  0.0415
  182SOPE   H3S20789   6.411   4.807   6.834 -1.3074  0.7092 -0.2581
  182SOPE   C2420790   6.453   4.611   6.904  0.8611  0.4808  0.2335
  182SOPE   H4R20791   6.434   4.506   6.873 -1.8285  1.1788 -0.6372
  182SOPE   H4S20792   6.562   4.628   6.905  0.6522  2.0032 -0.5356
  182SOPE   C2520793   6.397   4.597   7.048 -0.0551 -0.3811 -0.4856
  182SOPE   H5R20794   6.286   4.600   7.050 -0.0364 -0.0652  3.0045
  182SOPE   H5S20795   6.422   4.495   7.084 -0.0553 -0.3309 -0.3446
  182SOPE   C2620796   6.461   4.694   7.152  0.5068  0.4211  0.3489
  182SOPE   H6R20797   6.566   4.660   7.156  0.2893 -0.1758  1.2134
  182SOPE   H6S20798   6.447   4.798   7.115 -2.4755  0.5248  1.6054
  182SOPE   C2720799   6.407   4.694   7.303  0.5153 -0.3352 -0.0507
  182SOPE   H7R20800   6.301   4.727   7.308  1.0254  1.7324 -2.0634
  182SOPE   H7S20801   6.419   4.590   7.339  0.5922 -0.6645 -1.0064
  182SOPE   C2820802   6.495   4.793   7.384  0.8761 -0.4081  0.1227
  182SOPE   H8R20803   6.498   4.891   7.333  1.9273 -0.3202  0.3376
  182SOPE   H8S20804   6.448   4.801   7.484 -0.2956  1.4156 -0.5542
  182SOPE   C2920805   6.637   4.742   7.415 -0.8204  0.1667 -0.3229
  182SOPE   H9120806   6.701   4.744   7.326  0.9522 -1.8249  0.8603
  182SOPE  C21020807   6.694   4.684   7.526 -0.1409 -0.6466  0.5258
  182SOPE  H10120808   6.797   4.647   7.515 -0.2780 -1.6432  2.4557
  182SOPE  C21120809   6.628   4.639   7.655 -0.7585  0.4832  0.3244
  182SOPE  H11R20810   6.698   4.564   7.698 -2.1832  0.3009  2.4009
  182SOPE  H11S20811   6.528   4.593   7.640  0.5261 -2.2595 -0.1447
  182SOPE  C21220812   6.623   4.759   7.757  0.3195  0.6087  0.2575
  182SOPE  H12R20813   6.559   4.836   7.709  1.4639  0.0216 -2.2980
  182SOPE  H12S20814   6.724   4.799   7.782 -0.4254  2.3812  0.5438
  182SOPE  C21320815   6.577   4.714   7.897  0.0882 -0.2661  0.2378
  182SOPE  H13R20816   6.658   4.653   7.943 -0.8851  0.7733  3.4893
  182SOPE  H13S20817   6.485   4.652   7.897 -1.3458  1.7960 -0.9345
  182SOPE  C21420818   6.560   4.829   8.001 -0.3979 -0.2699 -0.3081
  182SOPE  H14R20819   6.461   4.871   7.972 -1.0798 -1.1253  0.7397
  182SOPE  H14S20820   6.640   4.901   7.974  0.6918 -1.1500  0.5468
  182SOPE  C21520821   6.555   4.781   8.144  0.0169 -0.3913 -0.8439
  182SOPE  H15R20822   6.650   4.724   8.154  1.2089  1.4074 -1.7324
  182SOPE  H15S20823   6.467   4.715   8.159 -1.1940  1.4208  0.1868
  182SOPE  C21620824   6.563   4.898   8.245  0.6188 -0.3735  0.2652
  182SOPE  H16R20825   6.465   4.950   8.242  0.1761 -1.2018  0.4000
  182SOPE  H16S20826   6.630   4.975   8.199 -1.7176  1.6798  0.1907
  182SOPE  C21720827   6.588   4.865   8.397  1.2885  0.7248 -0.2092
  182SOPE  H17R20828   6.681   4.804   8.400  0.8749 -0.1000 -3.1295
  182SOPE  H17S20829   6.504   4.804   8.439 -0.4456  1.3355 -2.6742
  182SOPE  C21820830   6.603   4.991   8.483 -0.8437 -0.5623  0.3909
  182SOPE  H18R20831   6.565   4.978   8.587  1.0904 -2.5592  0.8815
  182SOPE  H18S20832   6.538   5.070   8.439 -1.3627 -0.8187  0.6846
  182SOPE  H18T20833   6.708   5.027   8.476  0.3936 -3.2722  3.3831
  182SOPE   C3320834   5.930   4.933   6.755 -0.5657  0.1718 -0.3371
  182SOPE   H3X20835   5.994   5.023   6.750 -0.4696  0.1106 -0.1711
  182SOPE   H3Y20836   5.992   4.841   6.748  0.5442  0.7422  1.6735
  182SOPE   C3420837   5.851   4.941   6.882  0.4476  0.3129  0.0805
  182SOPE   H4X20838   5.780   4.857   6.864  0.6369  0.7108 -2.6666
  182SOPE   H4Y20839   5.796   5.038   6.881 -1.2143 -0.5920 -2.9581
  182SOPE   C3520840   5.920   4.926   7.019  0.0700  0.1570 -0.1475
  182SOPE   H5X20841   5.861   4.974   7.100  0.6515  0.1960  0.2498
  182SOPE   H5Y20842   6.019   4.975   7.016  0.6449 -0.9620  0.0977
  182SOPE   C3620843   5.941   4.772   7.051  0.2245 -0.4887  0.7296
  182SOPE   H6X20844   6.013   4.749   6.969  1.7161 -1.5892  2.3130
  182SOPE   H6Y20845   5.844   4.721   7.035 -0.2017  0.4180  0.3802
  182SOPE   C3720846   6.011   4.738   7.187  0.7017  0.4181 -0.1937
  182SOPE   H7X20847   6.116   4.775   7.182  0.7398  0.0889 -2.9833
  182SOPE   H7Y20848   6.017   4.627   7.193 -2.5855  0.2784  1.6703
  182SOPE   C3820849   5.934   4.792   7.311 -0.1423  0.3273 -0.5431
  182SOPE   H8X20850   5.832   4.750   7.302 -1.6111  3.3194  1.4313
  182SOPE   H8Y20851   5.929   4.903   7.305  2.1635  0.4556 -0.7707
  182SOPE   C3920852   6.004   4.764   7.445 -0.3391 -0.5757 -0.2702
  182SOPE   H9X20853   6.102   4.811   7.423 -1.0175  1.3360  0.7009
  182SOPE   H9Y20854   6.022   4.654   7.441 -0.8975 -0.6372 -1.4451
  182SOPE  C31020855   5.932   4.823   7.564  0.1208  0.6199 -0.5573
  182SOPE  H10X20856   5.827   4.787   7.564  1.4420 -3.5206  2.3378
  182SOPE  H10Y20857   5.923   4.932   7.546  1.2703  1.3108  2.7877
  182SOPE  C31120858   5.991   4.782   7.709 -0.6137  0.0999  0.1191
  182SOPE  H11X20859   6.031   4.678   7.708 -0.1930  0.2630 -0.0230
  182SOPE  H11Y20860   5.910   4.788   7.784 -0.2985 -2.0810  0.6764
  182SOPE  C31220861   6.114   4.867   7.747 -0.1946  0.0615 -0.6064
  182SOPE  H12X20862   6.093   4.971   7.714  0.0777  0.5337  0.6620
  182SOPE  H12Y20863   6.198   4.831   7.685 -0.6379  0.2340 -1.3197
  182SOPE  C31320864   6.166   4.855   7.899 -0.0934 -0.4318  0.2479
  182SOPE  H13X20865   6.256   4.919   7.912 -2.6736  2.8763  3.0825
  182SOPE  H13Y20866   6.199   4.753   7.926 -1.6117 -0.7931  0.7803
  182SOPE  C31420867   6.072   4.913   8.006  0.2564  0.0400  0.2702
  182SOPE  H14X20868   5.972   4.868   7.992  1.2235 -1.3666 -2.6106
  182SOPE  H14Y20869   6.058   5.020   7.978 -2.1948 -1.2907 -4.0227
  182SOPE  C31520870   6.128   4.898   8.154  0.4956  0.3319  0.2369
  182SOPE  H15X20871   6.229   4.944   8.152 -0.1592  1.7968 -3.5177
  182SOPE  H15Y20872   6.132   4.796   8.198  0.9134 -0.9192 -2.6006
  182SOPE  C31620873   6.038   4.986   8.241 -0.2083  0.4753  0.0083
  182SOPE  H16X20874   5.939   4.935   8.233  1.1771 -2.0281 -1.8774
  182SOPE  H16Y20875   6.038   5.090   8.202  1.2002  0.7552  0.7388
  182SOPE  C31720876   6.069   4.988   8.395  0.2460  0.9323  0.3322
  182SOPE  H17X20877   6.174   5.023   8.391 -0.3138  2.3262 -4.3594
  182SOPE  H17Y20878   6.064   4.888   8.444  2.0864  0.2942 -0.7686
  182SOPE  C31820879   5.975   5.083   8.471 -0.4787 -0.4529 -0.1026
  182SOPE  H18X20880   5.868   5.055   8.463 -0.6702 -0.4522  2.0833
  182SOPE  H18Y20881   5.998   5.184   8.431  2.9276 -1.8440 -1.9246
  182SOPE  H18Z20882   6.015   5.085   8.575  3.1760 -0.8147 -1.4043
  183SOPE     N20883   1.718   3.268   6.341 -0.2421 -0.2077 -0.1408
  183SOPE   HN120884   1.670   3.327   6.271 -2.4525 -1.8424 -0.0530
  183SOPE   HN220885   1.750   3.335   6.414 -3.1908  0.6293  0.4839
  183SOPE   HN320886   1.807   3.241   6.296  0.5830  1.9979  0.1274
  183SOPE   C1220887   1.650   3.160   6.426 -0.2939  0.0519 -0.2072
  183SOPE  H12A20888   1.559   3.207   6.470  0.1761  1.4319 -0.6728
  183SOPE  H12B20889   1.723   3.126   6.502 -0.6450 -0.0322  0.0918
  183SOPE   C1120890   1.604   3.042   6.339  0.3869 -0.2739  0.3549
  183SOPE  H11A20891   1.517   3.072   6.278  0.9517 -0.6897 -0.6593
  183SOPE  H11B20892   1.584   2.955   6.406 -1.0842 -0.5489 -0.4333
  183SOPE     P20893   1.821   2.916   6.253 -0.1992  0.0292 -0.1333
  183SOPE   O1320894   1.924   2.966   6.167 -0.0197 -0.1275 -0.2579
  183SOPE   O1420895   1.768   2.779   6.227 -0.0763 -0.5559  0.0227
  183SOPE   O1220896   1.697   3.014   6.242 -0.4997 -0.0815  0.5945
  183SOPE   O1120897   1.863   2.930   6.412 -0.4552 -0.7945  0.5184
  183SOPE    C120898   1.988   2.971   6.458  0.7230 -0.4229 -0.0526
  183SOPE    HA20899   1.985   3.082   6.451  0.1122 -0.6073 -3.3049
  183SOPE    HB20900   2.075   2.942   6.396  1.2864 -1.0659  1.0360
  183SOPE    C220901   2.011   2.944   6.606 -0.7148  0.4410 -0.0450
  183SOPE    HS20902   2.016   3.041   6.661  2.5892  1.1008 -1.3976
  183SOPE   O2120903   2.130   2.871   6.624 -0.3141 -0.6633 -0.2044
  183SOPE   C2120904   2.232   2.955   6.641 -0.2847 -0.2064  0.6687
  183SOPE   O2220905   2.236   3.078   6.640 -0.1011  0.4148 -0.8134
  183SOPE   C2220906   2.359   2.873   6.657  0.1674 -0.4827  0.4911
  183SOPE   H2R20907   2.416   2.896   6.565 -0.5088  0.1259  0.2181
  183SOPE   H2S20908   2.333   2.765   6.670  1.7366 -0.8287  0.7881
  183SOPE    C320909   1.893   2.852   6.660  0.0983 -0.0656 -0.1282
  183SOPE    HX20910   1.896   2.755   6.605  1.0758  0.4041 -0.9101
  183SOPE    HY20911   1.794   2.897   6.634 -0.9602 -1.3046  1.6327
  183SOPE   O3120912   1.896   2.836   6.802 -0.5254 -0.0475  0.6409
  183SOPE   C3120913   1.940   2.720   6.847 -0.0481 -0.4276 -0.1099
  183SOPE   O3220914   1.982   2.627   6.781  0.0654 -0.5805  0.3710
  183SOPE   C3220915   1.922   2.716   7.000 -0.9283 -0.1700 -0.1190
  183SOPE   H2X20916   1.923   2.615   7.046  0.2257  0.0718  0.3985
  183SOPE   H2Y20917   1.827   2.764   7.031 -0.7618 -0.7703  1.3399
  183SOPE   C2320918   2.450   2.911   6.772  0.0211  0.1448 -0.0169
  183SOPE   H3R20919   2.473   3.020   6.769 -0.6499  0.2645 -0.6983
  183SOPE   H3S20920   2.552   2.868   6.762  0.5936  1.1248  1.4311
  183SOPE   C2420921   2.401   2.883   6.909  0.3894  0.0360 -0.4022
  183SOPE   H4R20922   2.320   2.957   6.928 -0.1176 -0.8128  0.8095
  183SOPE   H4S20923   2.382   2.774   6.925  0.3820  0.0023 -0.6342
  183SOPE   C2520924   2.499   2.930   7.021 -0.3176 -0.3425 -0.0487
  183SOPE   H5R20925   2.585   2.859   7.020  0.2002  0.2722  0.6462
  183SOPE   H5S20926   2.535   3.033   7.000 -1.0215 -0.3548 -1.3624
  183SOPE   C2620927   2.432   2.922   7.157  0.0861  0.3412  0.1557
  183SOPE   H6R20928   2.349   2.996   7.169  0.5695  1.1254 -1.3556
  183SOPE   H6S20929   2.385   2.821   7.159  1.6803 -0.4046  0.8215
  183SOPE   C2720930   2.537   2.929   7.264  0.3263 -0.4072  0.3765
  183SOPE   H7R20931   2.601   2.839   7.254 -0.9821 -1.2008 -1.0653
  183SOPE   H7S20932   2.603   3.016   7.245 -3.1072  1.7763 -2.0852
  183SOPE   C2820933   2.487   2.928   7.412  0.2603 -0.6397 -0.3273
  183SOPE   H8R20934   2.449   3.029   7.437  1.5139 -0.5762  1.4697
  183SOPE   H8S20935   2.410   2.849   7.418 -0.0673 -0.3620 -0.8448
  183SOPE   C2920936   2.603   2.897   7.502  0.1324 -0.3122 -0.4715
  183SOPE   H9120937   2.662   2.813   7.462 -0.1992 -0.5602 -0.4430
  183SOPE  C21020938   2.653   2.969   7.609 -0.1204  0.2373 -0.3237
  183SOPE  H10120939   2.747   2.935   7.655 -0.0400  1.4683  0.4450
  183SOPE  C21120940   2.589   3.094   7.666 -0.1760 -0.3798 -0.4685
  183SOPE  H11R20941   2.600   3.078   7.775  0.8653 -0.4267 -0.5715
  183SOPE  H11S20942   2.483   3.108   7.636 -0.6808 -1.3133  0.8718
  183SOPE  C21220943   2.697   3.198   7.634  0.0460  0.0099 -0.7347
  183SOPE  H12R20944   2.699   3.206   7.523 -0.8060 -0.4288 -0.7852
  183SOPE  H12S20945   2.798   3.162   7.662 -0.3139 -1.1287 -0.8891
  183SOPE  C21320946   2.675   3.331   7.701  0.0395 -0.0676 -0.1965
  183SOPE  H13R20947   2.687   3.325   7.811  1.1681 -2.8030 -0.4312
  183SOPE  H13S20948   2.573   3.353   7.665 -0.5426 -1.7320  0.4077
  183SOPE  C21420949   2.758   3.446   7.652  0.0834 -0.2850  0.0175
  183SOPE  H14R20950   2.759   3.444   7.541 -0.0424 -0.9038  0.0236
  183SOPE  H14S20951   2.866   3.436   7.677  0.1847  0.4438 -0.1255
  183SOPE  C21520952   2.730   3.581   7.706 -0.4555 -0.9507  0.4357
  183SOPE  H15R20953   2.624   3.615   7.705  0.2710  1.4194 -2.7201
  183SOPE  H15S20954   2.776   3.652   7.636  0.7537 -0.9140  1.2612
  183SOPE  C21620955   2.792   3.608   7.846 -0.9716 -0.3031 -0.0730
  183SOPE  H16R20956   2.896   3.570   7.839 -0.5523  1.3303 -3.9928
  183SOPE  H16S20957   2.732   3.544   7.914 -1.1043  0.6044  0.6711
  183SOPE  C21720958   2.789   3.746   7.889  0.1063 -0.2787 -0.0342
  183SOPE  H17R20959   2.686   3.784   7.906 -0.4908  0.4640 -4.5186
  183SOPE  H17S20960   2.833   3.815   7.814  1.6143  1.1534  2.1399
  183SOPE  C21820961   2.851   3.774   8.025 -1.1415  0.1224 -0.6073
  183SOPE  H18R20962   2.845   3.883   8.045 -1.2001 -0.0998  0.6447
  183SOPE  H18S20963   2.947   3.719   8.038 -2.5468 -2.3498 -0.3697
  183SOPE  H18T20964   2.787   3.726   8.102 -0.4050  1.7876  1.0863
  183SOPE   C3320965   2.048   2.797   7.052 -0.5365 -0.1388  0.8065
  183SOPE   H3X20966   2.069   2.883   6.985 -2.4720 -0.3632 -0.1222
  183SOPE   H3Y20967   2.138   2.733   7.052  0.5973  1.4168 -0.8893
  183SOPE   C3420968   2.025   2.839   7.195  0.8726 -0.0496  0.5116
  183SOPE   H4X20969   1.933   2.902   7.200 -0.8724 -2.5078  0.0632
  183SOPE   H4Y20970   2.110   2.894   7.240  0.4449 -0.3078  1.6546
  183SOPE   C3520971   1.991   2.710   7.275 -0.5734 -0.4451 -0.9878
  183SOPE   H5X20972   2.063   2.626   7.269  1.4404  1.2186 -0.4777
  183SOPE   H5Y20973   1.886   2.683   7.251 -1.2422  0.8478  0.3742
  183SOPE   C3620974   1.984   2.743   7.430  0.7502  0.0668 -0.5022
  183SOPE   H6X20975   1.951   2.654   7.488  1.3105  0.6181  0.6898
  183SOPE   H6Y20976   1.904   2.819   7.431  0.2370 -0.4611 -0.9106
  183SOPE   C3720977   2.126   2.785   7.490  0.0948  0.6345 -0.4847
  183SOPE   H7X20978   2.163   2.878   7.442  0.1493  1.4054  1.0440
  183SOPE   H7Y20979   2.201   2.705   7.476 -1.6145 -0.6294 -2.8410
  183SOPE   C3820980   2.104   2.822   7.632  0.6760  0.3289  0.5752
  183SOPE   H8X20981   2.040   2.741   7.672  1.9657 -1.2335 -0.4536
  183SOPE   H8Y20982   2.027   2.902   7.628  0.3651  0.0742  1.4612
  183SOPE   C3920983   2.231   2.865   7.704  0.1317 -0.5253 -0.1049
  183SOPE   H9X20984   2.269   2.959   7.658 -1.7313  0.1799 -0.2486
  183SOPE   H9Y20985   2.310   2.788   7.688  1.8090  1.3831 -1.3217
  183SOPE  C31020986   2.215   2.884   7.856  0.2716  0.2928  0.0063
  183SOPE  H10X20987   2.177   2.795   7.910 -3.5293  2.7640  1.5716
  183SOPE  H10Y20988   2.143   2.968   7.862  1.2960  1.3811 -2.1686
  183SOPE  C31120989   2.344   2.932   7.930  0.2524  0.1972 -0.5055
  183SOPE  H11X20990   2.372   3.025   7.877 -0.8934  1.1050  0.4576
  183SOPE  H11Y20991   2.426   2.857   7.915 -0.2708 -0.2914 -0.9339
  183SOPE  C31220992   2.317   2.964   8.079  0.2416  0.4264 -0.2405
  183SOPE  H12X20993   2.305   2.879   8.149  1.3339  1.0450  0.7078
  183SOPE  H12Y20994   2.218   3.014   8.065  1.0999  1.8163 -1.5919
  183SOPE  C31320995   2.415   3.059   8.155  0.4092 -0.3135  0.2594
  183SOPE  H13X20996   2.417   3.148   8.088  1.2364  1.1549  2.2060
  183SOPE  H13Y20997   2.513   3.006   8.152 -0.3076 -1.7172  1.1549
  183SOPE  C31420998   2.377   3.099   8.302 -0.5581  0.1331 -0.6610
  183SOPE  H14X20999   2.463   3.156   8.342 -0.8161  1.8274 -2.4028
  183SOPE  H14Y21000   2.379   3.002   8.356 -0.2478  0.5434  0.0705
  183SOPE  C31521001   2.250   3.187   8.322 -0.0802  0.6203  0.8578
  183SOPE  H15X21002   2.160   3.142   8.275  2.4389 -2.2789 -1.3836
  183SOPE  H15Y21003   2.263   3.284   8.270  0.2606 -0.5469 -1.3261
  183SOPE  C31621004   2.223   3.216   8.469  0.2221 -0.2617  0.1320
  183SOPE  H16X21005   2.303   3.284   8.507 -0.2805  0.2445  0.2956
  183SOPE  H16Y21006   2.236   3.117   8.517 -1.5912  1.1614  3.7659
  183SOPE  C31721007   2.089   3.273   8.513  1.0967  0.0942 -0.5157
  183SOPE  H17X21008   2.066   3.253   8.620  0.5546 -2.5158 -1.0841
  183SOPE  H17Y21009   2.008   3.216   8.462 -0.8653  2.1297  0.2586
  183SOPE  C31821010   2.059   3.422   8.487 -0.0846 -0.0482  0.1674
  183SOPE  H18X21011   2.028   3.440   8.382 -0.7988 -3.0567 -0.2002
  183SOPE  H18Y21012   2.148   3.484   8.514  0.1142  0.0560 -0.7047
  183SOPE  H18Z21013   1.974   3.465   8.543  0.7772 -2.1826  3.3235
  184SOPE     N21014   1.560   2.747   6.040 -0.2199  0.0854 -0.3661
  184SOPE   HN121015   1.506   2.658   6.045 -1.0326  0.7354  3.2248
  184SOPE   HN221016   1.628   2.743   5.961  1.0130  1.3568  0.5929
  184SOPE   HN321017   1.616   2.731   6.126 -1.2460 -0.3016  0.2312
  184SOPE   C1221018   1.463   2.865   6.040 -0.1251 -0.0682 -0.1555
  184SOPE  H12A21019   1.444   2.868   5.930  0.5873  0.3818 -0.2715
  184SOPE  H12B21020   1.520   2.956   6.070  0.8769 -0.9535  0.6595
  184SOPE   C1121021   1.333   2.838   6.118 -0.5092 -0.6217 -0.2843
  184SOPE  H11A21022   1.250   2.898   6.075  0.5144  0.7163 -0.4269
  184SOPE  H11B21023   1.344   2.859   6.227  1.3569  0.2881 -0.6246
  184SOPE     P21024   1.167   2.645   6.157  0.1807 -0.4039  0.1268
  184SOPE   O1321025   1.176   2.499   6.140  0.1528  0.2817 -0.0303
  184SOPE   O1421026   1.043   2.708   6.112 -0.2058 -0.4776 -0.5365
  184SOPE   O1221027   1.301   2.705   6.093 -0.0924  0.1562  0.1769
  184SOPE   O1121028   1.183   2.673   6.311 -0.0637  0.6966  0.0721
  184SOPE    C121029   1.287   2.617   6.390 -0.7140 -0.1844 -0.2433
  184SOPE    HA21030   1.388   2.635   6.348 -1.3102  0.0073 -1.6051
  184SOPE    HB21031   1.274   2.508   6.410 -0.6240 -0.0947  0.3203
  184SOPE    C221032   1.304   2.707   6.515 -1.3630  0.0453  0.6885
  184SOPE    HS21033   1.374   2.790   6.491 -1.6981 -0.3873 -1.9134
  184SOPE   O2121034   1.348   2.644   6.637 -0.0257  0.2411 -0.4105
  184SOPE   C2121035   1.479   2.626   6.648 -0.2720 -0.0290  0.0078
  184SOPE   O2221036   1.561   2.654   6.560 -0.1438  0.1882 -0.1506
  184SOPE   C2221037   1.522   2.573   6.786  0.4055 -0.1057 -0.3006
  184SOPE   H2R21038   1.624   2.528   6.788 -0.6260 -2.4862  0.7125
  184SOPE   H2S21039   1.445   2.494   6.800 -0.8277  1.0475 -0.4361
  184SOPE    C321040   1.168   2.779   6.562  0.5915  0.1485 -0.0833
  184SOPE    HX21041   1.084   2.707   6.572  0.7036  0.2775  2.1937
  184SOPE    HY21042   1.139   2.861   6.493 -2.4485 -0.7587  0.0660
  184SOPE   O3121043   1.169   2.849   6.687 -0.2301  0.2598  0.0232
  184SOPE   C3121044   1.255   2.935   6.705 -0.2757  0.5171  0.3129
  184SOPE   O3221045   1.334   2.974   6.622 -0.0234 -0.0481  0.6868
  184SOPE   C3221046   1.260   2.986   6.848  0.0804 -0.1729 -0.0602
  184SOPE   H2X21047   1.234   3.094   6.852  1.4327  0.2871 -2.6461
  184SOPE   H2Y21048   1.369   2.978   6.869 -0.0432 -0.0178  0.6581
  184SOPE   C2321049   1.502   2.657   6.912  0.1796 -0.5847 -0.1079
  184SOPE   H3R21050   1.413   2.723   6.902  2.3550  2.2503 -1.3303
  184SOPE   H3S21051   1.587   2.728   6.923  0.4836 -1.1498  1.3295
  184SOPE   C2421052   1.500   2.572   7.045 -0.2236 -0.5564 -0.2108
  184SOPE   H4R21053   1.435   2.482   7.041 -1.0618 -0.0625  2.0308
  184SOPE   H4S21054   1.606   2.544   7.062 -0.1173 -0.1993 -0.2802
  184SOPE   C2521055   1.474   2.670   7.162  0.1357  0.1311 -0.7820
  184SOPE   H5R21056   1.562   2.737   7.172  1.6417 -2.2872  2.7524
  184SOPE   H5S21057   1.376   2.723   7.155  0.1006 -0.0298 -1.6898
  184SOPE   C2621058   1.479   2.591   7.301  1.0094 -0.1821  0.2928
  184SOPE   H6R21059   1.387   2.530   7.309  1.7326 -1.5704 -1.5524
  184SOPE   H6S21060   1.555   2.510   7.293 -1.1796 -2.8200  4.6454
  184SOPE   C2721061   1.510   2.681   7.420 -0.3921  0.4865 -0.3872
  184SOPE   H7R21062   1.610   2.731   7.416  0.4761 -1.1495  0.5742
  184SOPE   H7S21063   1.436   2.762   7.403  0.9247  1.3455 -2.2052
  184SOPE   C2821064   1.492   2.605   7.550  0.2964  0.2774  0.3114
  184SOPE   H8R21065   1.400   2.544   7.550  0.7148 -0.3975 -1.2631
  184SOPE   H8S21066   1.578   2.537   7.572 -0.9040 -1.7355 -1.0411
  184SOPE   C2921067   1.473   2.705   7.659 -0.3155  0.2878 -0.2399
  184SOPE   H9121068   1.380   2.762   7.643  0.9712  2.1770 -1.1705
  184SOPE  C21021069   1.544   2.722   7.774 -0.4655  0.3234  0.3862
  184SOPE  H10121070   1.506   2.789   7.853 -0.8304 -1.2268  1.5564
  184SOPE  C21121071   1.655   2.639   7.819 -0.9135  0.0878 -0.5679
  184SOPE  H11R21072   1.752   2.686   7.792 -0.8039  0.5578  0.6162
  184SOPE  H11S21073   1.655   2.540   7.768  0.1750 -1.8630  2.9959
  184SOPE  C21221074   1.658   2.615   7.969 -0.5498  0.5637 -0.6885
  184SOPE  H12R21075   1.706   2.517   7.984 -3.1614 -0.8277 -1.0568
  184SOPE  H12S21076   1.554   2.592   8.003 -0.4406  0.7055 -0.2485
  184SOPE  C21321077   1.719   2.726   8.043  0.2555 -0.1293 -0.6359
  184SOPE  H13R21078   1.684   2.827   8.015  2.4322  1.5798  2.5123
  184SOPE  H13S21079   1.830   2.732   8.038  0.2700 -0.4562 -0.7480
  184SOPE  C21421080   1.672   2.713   8.195 -0.7762 -0.4057 -0.0166
  184SOPE  H14R21081   1.735   2.625   8.221 -2.2404 -1.2346  0.8298
  184SOPE  H14S21082   1.565   2.691   8.219 -0.9328  0.2408 -0.1278
  184SOPE  C21521083   1.726   2.837   8.278  0.2911 -0.1426  0.3259
  184SOPE  H15R21084   1.686   2.930   8.232  0.7487 -0.0915  0.0237
  184SOPE  H15S21085   1.835   2.831   8.255 -0.0432  0.7453 -1.5861
  184SOPE  C21621086   1.707   2.834   8.428 -0.7006  0.0879  0.3970
  184SOPE  H16R21087   1.759   2.739   8.454 -0.3754  0.1035 -0.1988
  184SOPE  H16S21088   1.603   2.812   8.460 -0.6772  1.4101  1.3689
  184SOPE  C21721089   1.750   2.959   8.504  0.2254  0.1699  0.4119
  184SOPE  H17R21090   1.860   2.972   8.511  0.4813 -2.7879  2.7827
  184SOPE  H17S21091   1.701   2.946   8.603 -2.1860  2.3035 -0.4359
  184SOPE  C21821092   1.694   3.089   8.446  0.3200  0.1903 -0.5419
  184SOPE  H18R21093   1.587   3.076   8.419  0.0849 -0.9684  0.9182
  184SOPE  H18S21094   1.745   3.110   8.349 -0.2938  1.3176 -0.6364
  184SOPE  H18T21095   1.716   3.175   8.512 -1.3567 -0.1372  0.4622
  184SOPE   C3321096   1.175   2.917   6.958 -0.0658  0.4351 -0.3484
  184SOPE   H3X21097   1.233   2.830   6.995  0.2151 -0.1822 -2.2031
  184SOPE   H3Y21098   1.077   2.885   6.919 -0.2374 -1.9629  1.8984
  184SOPE   C3421099   1.142   3.024   7.062  0.2898  0.0352 -0.0814
  184SOPE   H4X21100   1.068   3.097   7.022  0.9505  0.0232 -1.3324
  184SOPE   H4Y21101   1.233   3.083   7.090  0.6607 -0.6587  0.1745
  184SOPE   C3521102   1.092   2.966   7.189 -0.4805  0.7136  0.1754
  184SOPE   H5X21103   1.159   2.882   7.218  1.4142  0.8015 -3.7177
  184SOPE   H5Y21104   0.992   2.923   7.167 -0.5504  1.7987 -1.7343
  184SOPE   C3621105   1.081   3.066   7.306 -0.3533 -0.4924  0.7457
  184SOPE   H6X21106   0.986   3.116   7.279  0.0440 -0.3494 -0.4408
  184SOPE   H6Y21107   1.165   3.138   7.300 -0.1948 -0.6846  0.6436
  184SOPE   C3721108   1.081   3.023   7.452 -0.1416 -0.1456  0.4411
  184SOPE   H7X21109   1.185   3.001   7.483  1.0095 -0.8357 -3.6322
  184SOPE   H7Y21110   1.011   2.937   7.459 -1.6220  0.9696 -0.3479
  184SOPE   C3821111   1.017   3.127   7.552 -0.4159  0.6731  0.4862
  184SOPE   H8X21112   0.916   3.142   7.510 -0.1828 -0.2378 -0.4258
  184SOPE   H8Y21113   1.074   3.222   7.558 -0.2893  0.8032 -2.0783
  184SOPE   C3921114   1.003   3.051   7.692  0.4811 -0.3513  0.3691
  184SOPE   H9X21115   1.104   3.028   7.730  0.5122 -1.7698 -0.5490
  184SOPE   H9Y21116   0.951   2.954   7.675  0.3403 -0.2797  0.3880
  184SOPE  C31021117   0.929   3.151   7.784  0.4327 -0.5710  0.6889
  184SOPE  H10X21118   0.844   3.178   7.718  1.3291 -1.5897 -0.9366
  184SOPE  H10Y21119   0.989   3.240   7.812 -1.3227  0.8933 -0.0828
  184SOPE  C31121120   0.876   3.088   7.917  0.3210  0.5693 -1.0421
  184SOPE  H11X21121   0.962   3.067   7.984 -1.2820  0.6493  1.0763
  184SOPE  H11Y21122   0.843   2.986   7.890 -0.1893  0.0530  1.4532
  184SOPE  C31221123   0.778   3.170   7.998  0.5501  0.0042  0.0817
  184SOPE  H12X21124   0.683   3.185   7.943  1.2219  1.4570 -0.7440
  184SOPE  H12Y21125   0.820   3.273   8.005 -1.1372  0.5658  2.4711
  184SOPE  C31321126   0.753   3.125   8.137  0.0023  0.2017 -0.2469
  184SOPE  H13X21127   0.840   3.102   8.202  0.7163  1.4506 -0.7390
  184SOPE  H13Y21128   0.698   3.029   8.125  1.0612 -0.2616 -1.5302
  184SOPE  C31421129   0.665   3.224   8.224  0.1179  0.8874  0.3676
  184SOPE  H14X21130   0.560   3.215   8.191 -0.2565 -2.0099  2.1156
  184SOPE  H14Y21131   0.696   3.328   8.202 -0.7041  0.7404 -1.5349
  184SOPE  C31521132   0.666   3.190   8.379  0.3487  0.1327  0.5541
  184SOPE  H15X21133   0.601   3.268   8.425 -0.0061 -0.7925  1.6446
  184SOPE  H15Y21134   0.773   3.210   8.400  1.0092 -0.3436 -2.1655
  184SOPE  C31621135   0.628   3.055   8.408 -0.3023  0.3509 -0.4680
  184SOPE  H16X21136   0.717   2.993   8.430 -1.8608 -1.7691  0.0232
  184SOPE  H16Y21137   0.565   3.016   8.325 -0.4970  2.2374 -1.2478
  184SOPE  C31721138   0.543   3.047   8.541  0.5233  0.0353  0.2163
  184SOPE  H17X21139   0.448   3.103   8.534  0.5944 -0.0053 -1.3529
  184SOPE  H17Y21140   0.607   3.094   8.618 -0.8313 -0.6129  1.7503
  184SOPE  C31821141   0.514   2.904   8.580 -0.0894  0.2601 -0.1126
  184SOPE  H18X21142   0.596   2.849   8.631 -1.2111 -0.0883  1.3526
  184SOPE  H18Y21143   0.484   2.847   8.489 -1.0472  2.1490 -1.0119
  184SOPE  H18Z21144   0.426   2.915   8.646 -0.0962 -1.8003  0.2643
  185SAPI   C1221145   4.413   6.235  11.149  0.7530 -0.7544 -0.1575
  185SAPI    H221146   4.482   6.313  11.111 -1.9802  2.5212  1.3739
  185SAPI    O221147   4.477   6.187  11.270  0.3691  0.2590  0.5001
  185SAPI   HO221148   4.567   6.218  11.256 -0.0205  1.1093 -0.1910
  185SAPI   C1321149   4.276   6.305  11.174  0.1116 -0.2376 -0.2383
  185SAPI    H321150   4.248   6.359  11.081  1.7151  1.7763  0.4024
  185SAPI    O321151   4.296   6.412  11.271 -0.1191  0.3177 -0.4763
  185SAPI   HO321152   4.347   6.370  11.340 -0.8880  0.2126  0.0394
  185SAPI   C1421153   4.182   6.193  11.221  0.9472  0.2218  0.3990
  185SAPI    H421154   4.220   6.157  11.319  2.4371 -1.2937 -0.7012
  185SAPI    O421155   4.053   6.238  11.261 -0.0162  0.1244 -0.2974
  185SAPI   HO421156   4.057   6.259  11.354  2.1931  2.7417 -0.9129
  185SAPI   C1521157   4.173   6.084  11.112 -0.1590  0.1231  0.2301
  185SAPI    H521158   4.140   6.137  11.021 -0.1671  1.1626  0.8253
  185SAPI    O521159   4.078   5.977  11.142 -0.4203 -0.7245 -0.2013
  185SAPI   HO521160   4.104   5.930  11.222  3.5686 -0.1850 -1.1033
  185SAPI   C1621161   4.309   6.027  11.088 -0.7696 -0.0988  0.0726
  185SAPI    H621162   4.353   5.979  11.179 -1.2513 -1.1336 -0.2351
  185SAPI    O621163   4.312   5.939  10.975  0.4068  0.5890  0.5349
  185SAPI   HO621164   4.398   5.898  10.979  0.1297 -0.0501  0.0380
  185SAPI   C1121165   4.412   6.132  11.046  0.1664 -0.5277  0.2161
  185SAPI    H121166   4.381   6.164  10.944  0.5569 -1.1682 -0.1080
  185SAPI     P21167   4.675   6.146  10.968  0.0988 -0.3065 -0.2216
  185SAPI   O1321168   4.789   6.044  10.991  0.0979 -0.0479  0.1648
  185SAPI   O1421169   4.685   6.281  11.024 -0.1424 -0.0762 -0.2192
  185SAPI   O1221170   4.538   6.073  11.025  0.1054 -0.1542 -0.4471
  185SAPI   O1121171   4.663   6.167  10.814 -0.1465 -0.1336 -0.5072
  185SAPI    C121172   4.606   6.068  10.733  0.5673  0.0365  0.2169
  185SAPI    HA21173   4.679   5.985  10.729  0.0280 -0.4450  0.3367
  185SAPI    HB21174   4.514   6.025  10.778  0.2464  1.7588  1.2902
  185SAPI    C221175   4.560   6.111  10.590 -0.5551 -0.4550  0.0440
  185SAPI    HS21176   4.572   6.023  10.525  0.1168 -2.0986  2.3265
  185SAPI   O2121177   4.633   6.230  10.541 -0.2252 -0.1639 -0.3243
  185SAPI   C2121178   4.748   6.195  10.508 -0.1956 -0.0345  0.6096
  185SAPI   O2221179   4.789   6.079  10.501 -0.4637  0.1700 -0.2406
  185SAPI   C2221180   4.833   6.319  10.477  0.3525  0.1481 -0.2546
  185SAPI   H2R21181   4.771   6.406  10.446 -0.7457 -0.0438  1.2993
  185SAPI   H2S21182   4.881   6.350  10.572 -0.2950  1.0861 -0.2154
  185SAPI    C321183   4.409   6.134  10.588 -0.8286  0.1682  0.2306
  185SAPI    HX21184   4.387   6.196  10.677 -0.1532 -0.5813  0.9241
  185SAPI    HY21185   4.361   6.034  10.593 -0.9630  0.1911 -0.5595
  185SAPI   O3121186   4.366   6.199  10.465  0.3707  0.2024  0.2686
  185SAPI   C3121187   4.314   6.326  10.468 -0.6609  0.2412 -0.3041
  185SAPI   O3221188   4.330   6.403  10.559  0.2283  0.2453  0.4434
  185SAPI   C3221189   4.291   6.356  10.320 -0.3751 -0.3323  0.0088
  185SAPI   H2X21190   4.181   6.359  10.306 -0.3985  0.1069  0.2814
  185SAPI   H2Y21191   4.336   6.274  10.260 -2.6739 -1.6101 -0.0380
  185SAPI   C2321192   4.929   6.280  10.358  0.3679  0.5378 -0.6704
  185SAPI   H3R21193   4.998   6.201  10.396  0.4684  0.5172 -0.8903
  185SAPI   H3S21194   4.991   6.370  10.338  0.3667  0.4119 -1.2603
  185SAPI   C2421195   4.861   6.237  10.228  0.0816 -0.0722 -0.3823
  185SAPI   H4R21196   4.797   6.151  10.255 -0.5546  0.6401  0.4206
  185SAPI   H4S21197   4.945   6.192  10.170  1.0963  0.3537  0.7283
  185SAPI   C2521198   4.792   6.349  10.156  0.0924  0.3336 -0.0982
  185SAPI   H5R21199   4.777   6.441  10.214 -0.7738 -0.0536  0.2967
  185SAPI   C2621200   4.765   6.353  10.022  0.5981 -0.3962 -0.5062
  185SAPI   H6R21201   4.735   6.446   9.971 -0.0015 -0.3490 -0.0716
  185SAPI   C2721202   4.784   6.232   9.936  0.4767 -0.4500  0.1800
  185SAPI   H7R21203   4.703   6.231   9.861  1.8246 -0.4941 -1.3004
  185SAPI   H7S21204   4.774   6.137   9.994  4.1512  0.9399  3.3509
  185SAPI   C2821205   4.921   6.235   9.867 -0.1167 -0.4614 -0.4769
  185SAPI   H8R21206   4.995   6.189   9.934  0.8537  1.5937 -0.0909
  185SAPI   C2921207   4.963   6.296   9.755  0.0869  0.8349 -0.1588
  185SAPI   H9R21208   5.070   6.281   9.735 -0.2696 -1.1546 -0.6226
  185SAPI  C21021209   4.863   6.382   9.682  0.1729 -0.0061  0.3220
  185SAPI  H10R21210   4.826   6.455   9.758  0.6469  0.2908  0.2736
  185SAPI  H10S21211   4.773   6.324   9.655  0.7209 -0.0706 -1.4078
  185SAPI  C21121212   4.920   6.453   9.559  0.0166 -0.1198 -0.4039
  185SAPI  H11R21213   4.957   6.552   9.588 -0.6989  0.1809 -0.5018
  185SAPI  C21221214   4.920   6.422   9.430  0.0197 -0.7718  0.3229
  185SAPI  H12R21215   4.975   6.493   9.367  1.3895 -1.8359  0.3090
  185SAPI  C21321216   4.853   6.303   9.364  0.0253 -0.5429 -0.3252
  185SAPI  H13R21217   4.784   6.347   9.289 -1.0030 -0.0602  0.8659
  185SAPI  H13S21218   4.791   6.240   9.431  0.3097 -0.2403  0.2261
  185SAPI  C21421219   4.952   6.206   9.299 -0.3490  0.0126 -0.1195
  185SAPI  H14R21220   5.006   6.126   9.353  0.6450  0.2453 -0.7372
  185SAPI  C21521221   4.987   6.221   9.170  0.4454  0.4191  0.3747
  185SAPI  H15R21222   5.049   6.147   9.117  0.4353 -0.4453  1.5583
  185SAPI  C21621223   4.931   6.320   9.072 -0.5029 -0.1484 -0.3789
  185SAPI  H16R21224   4.971   6.423   9.085 -0.3588 -0.3067  0.4717
  185SAPI  H16S21225   4.824   6.340   9.096 -0.3952  1.1385 -0.9543
  185SAPI  C21721226   4.934   6.275   8.928 -0.1797 -0.0715  0.0437
  185SAPI  H17R21227   4.865   6.188   8.919  0.6065 -0.5334 -1.7968
  185SAPI  H17S21228   5.033   6.238   8.892 -0.5530 -0.9767 -0.0632
  185SAPI  C21821229   4.893   6.385   8.828 -0.3347  0.1856 -0.0157
  185SAPI  H18R21230   4.910   6.344   8.726  0.2702  0.9675 -0.2339
  185SAPI  H18S21231   4.967   6.468   8.833 -2.0856  1.6900  1.3381
  185SAPI  C21921232   4.744   6.424   8.823  0.2395  0.5588 -0.7917
  185SAPI  H19R21233   4.718   6.484   8.913  1.2914  1.0185 -0.7790
  185SAPI  H19S21234   4.684   6.331   8.816 -0.1511  0.8318 -1.0809
  185SAPI  C22021235   4.717   6.515   8.701  0.2782  0.0932 -0.2461
  185SAPI  H20R21236   4.802   6.584   8.684  1.8288 -1.9361 -1.0016
  185SAPI  H20S21237   4.621   6.566   8.722  1.3256  1.3956  1.4569
  185SAPI  H20T21238   4.702   6.441   8.619 -1.4163  0.2727 -0.1256
  185SAPI   C3321239   4.358   6.489  10.289 -0.1668  0.1802  0.4518
  185SAPI   H3X21240   4.468   6.482  10.307 -0.1541 -2.8287 -0.5151
  185SAPI   H3Y21241   4.313   6.562  10.359 -2.4205 -0.8909  0.1533
  185SAPI   C3421242   4.324   6.546  10.152  0.0689  0.0287  0.1193
  185SAPI   H4X21243   4.335   6.656  10.164 -1.3728  0.0738  1.0919
  185SAPI   H4Y21244   4.214   6.537  10.134  0.2651 -0.3354 -0.9409
  185SAPI   C3521245   4.409   6.488  10.042  0.5717  0.3993  0.0490
  185SAPI   H5X21246   4.366   6.388  10.023 -0.9419  0.6272  2.0860
  185SAPI   H5Y21247   4.516   6.504  10.066  0.3045  1.8999  0.3000
  185SAPI   C3621248   4.397   6.561   9.907 -0.7568  0.4599 -0.2691
  185SAPI   H6X21249   4.461   6.515   9.828 -1.6772 -0.8228 -0.2759
  185SAPI   H6Y21250   4.429   6.665   9.930 -0.7154  0.6162 -1.0187
  185SAPI   C3721251   4.252   6.586   9.851  0.7326 -0.5001 -0.0698
  185SAPI   H7X21252   4.182   6.608   9.934 -0.7582 -1.3938 -1.0523
  185SAPI   H7Y21253   4.211   6.497   9.796  0.5610 -0.8683  0.6510
  185SAPI   C3821254   4.259   6.703   9.744  0.8005  0.1860 -0.6624
  185SAPI   H8X21255   4.297   6.796   9.791  0.4386  0.6841 -1.3383
  185SAPI   H8Y21256   4.152   6.717   9.717 -0.2605 -0.1609  3.0547
  185SAPI   C3921257   4.341   6.672   9.618  0.0752 -0.2665  0.3051
  185SAPI   H9X21258   4.297   6.577   9.582 -0.8359  0.4186 -0.4381
  185SAPI   H9Y21259   4.442   6.638   9.649 -0.6704 -2.1292  0.7610
  185SAPI  C31021260   4.340   6.783   9.510  0.8673  0.2557 -0.3963
  185SAPI  H10X21261   4.410   6.862   9.546 -0.6414  1.4219  0.0543
  185SAPI  H10Y21262   4.247   6.843   9.500 -0.1477 -1.0591  1.0515
  185SAPI  C31121263   4.378   6.727   9.372  0.0416 -0.3720  0.1117
  185SAPI  H11X21264   4.326   6.638   9.330  0.2565  0.9595 -3.0818
  185SAPI  H11Y21265   4.485   6.698   9.368  0.2533  0.0183  2.3747
  185SAPI  C31221266   4.352   6.834   9.265  0.2948 -0.6699  0.8094
  185SAPI  H12X21267   4.407   6.928   9.290 -2.3591  1.8084 -2.3579
  185SAPI  H12Y21268   4.253   6.878   9.288  0.0301 -0.1673 -1.2332
  185SAPI  C31321269   4.379   6.805   9.121 -0.2114  0.2151 -0.2587
  185SAPI  H13X21270   4.292   6.740   9.098 -1.6039  1.2103  2.0231
  185SAPI  H13Y21271   4.470   6.745   9.103 -1.0474 -0.6873 -1.5985
  185SAPI  C31421272   4.369   6.922   9.022 -0.3858  0.3353  0.3741
  185SAPI  H14X21273   4.389   6.886   8.919  1.8089 -0.1481  0.9359
  185SAPI  H14Y21274   4.449   6.997   9.044 -1.4736  1.6528 -0.1031
  185SAPI  C31521275   4.244   7.003   9.037  0.6353 -0.0093  0.2394
  185SAPI  H15X21276   4.247   7.071   9.125 -0.0703 -0.3011  0.4981
  185SAPI  H15Y21277   4.151   6.942   9.044 -0.1759  1.0478 -0.9785
  185SAPI  C31621278   4.224   7.086   8.911  0.1234 -0.0238  0.3486
  185SAPI  H16X21279   4.192   7.026   8.823  0.0078  0.8982 -0.2398
  185SAPI  H16Y21280   4.319   7.124   8.869  0.5704  0.2284  1.5865
  185SAPI  C31721281   4.129   7.210   8.942 -0.0368  0.2264 -0.2537
  185SAPI  H17X21282   4.170   7.275   9.023  0.4423 -1.3171  0.7655
  185SAPI  H17Y21283   4.035   7.166   8.982  0.3663 -0.5874 -0.1980
  185SAPI  C31821284   4.104   7.281   8.809  0.2950  0.2343 -0.5594
  185SAPI  H18X21285   4.027   7.359   8.826  1.1166  0.7020  1.0586
  185SAPI  H18Y21286   4.070   7.203   8.737  0.9948  0.6527 -1.3490
  185SAPI  H18Z21287   4.196   7.333   8.776  0.9655 -0.2872  0.4702
  186SAPI   C1221288   5.058   4.014  10.751 -0.2382  0.0825 -0.1965
  186SAPI    H221289   5.120   4.074  10.682  0.4298  0.6946  0.9236
  186SAPI    O221290   4.941   3.966  10.682 -0.0855 -0.6748  0.0990
  186SAPI   HO221291   4.968   3.957  10.590 -0.6640 -2.5131  0.0919
  186SAPI   C1321292   5.140   3.893  10.808  0.1767  0.4282 -0.1299
  186SAPI    H321293   5.221   3.933  10.873  2.4393 -3.4932 -0.3745
  186SAPI    O321294   5.206   3.828  10.706 -0.2071 -0.2990 -0.7696
  186SAPI   HO321295   5.141   3.769  10.667  0.8162 -0.5915 -2.0833
  186SAPI   C1421296   5.048   3.812  10.898 -0.1133  0.0879  0.2421
  186SAPI    H421297   4.960   3.777  10.840  1.7617 -2.8616 -0.9175
  186SAPI    O421298   5.116   3.697  10.945 -0.2310 -0.4401  0.0179
  186SAPI   HO421299   5.064   3.618  10.926 -0.0707 -1.0641  2.0455
  186SAPI   C1521300   4.997   3.900  11.014  0.0976 -0.6571 -0.2436
  186SAPI    H521301   5.086   3.921  11.077 -0.1761  0.1574 -0.1258
  186SAPI    O521302   4.911   3.825  11.099  0.0804 -0.0741  0.9559
  186SAPI   HO521303   4.833   3.809  11.047  1.2017 -1.6687 -0.2747
  186SAPI   C1621304   4.920   4.018  10.960 -0.0890  0.5723 -0.0274
  186SAPI    H621305   4.833   3.984  10.900  0.0063 -0.5537  0.4603
  186SAPI    O621306   4.874   4.101  11.069 -0.5356 -0.2057 -0.4092
  186SAPI   HO621307   4.820   4.169  11.029 -1.8228 -0.4328  0.9095
  186SAPI   C1121308   5.014   4.098  10.870  0.5925  0.1303 -0.7076
  186SAPI    H121309   5.103   4.121  10.931 -0.4215 -0.9550  1.2135
  186SAPI     P21310   5.027   4.364  10.809  0.0934 -0.3284 -0.3362
  186SAPI   O1321311   5.142   4.381  10.897  0.6976 -0.4621 -0.6956
  186SAPI   O1421312   4.929   4.478  10.806  0.4775 -0.1637  0.3375
  186SAPI   O1221313   4.958   4.217  10.827  0.0312 -0.2172  0.3238
  186SAPI   O1121314   5.087   4.350  10.669 -0.3971  0.0991 -0.7754
  186SAPI    C121315   5.009   4.365  10.546 -0.1970 -0.3821  0.5381
  186SAPI    HA21316   4.945   4.277  10.527 -0.9186  0.1536  0.4847
  186SAPI    HB21317   4.936   4.449  10.546 -0.1057 -0.3030 -0.0267
  186SAPI    C221318   5.103   4.384  10.424  0.0637 -0.8639  1.3927
  186SAPI    HS21319   5.195   4.324  10.441  0.8878 -0.2568 -0.8091
  186SAPI   O2121320   5.137   4.527  10.406  0.0976 -0.1687  0.1869
  186SAPI   C2121321   5.252   4.559  10.346 -0.3944  0.4928  0.4399
  186SAPI   O2221322   5.328   4.477  10.294  0.2264 -0.3354  0.0124
  186SAPI   C2221323   5.277   4.709  10.355  0.7150  0.0896  0.9737
  186SAPI   H2R21324   5.184   4.754  10.394  1.3461  0.8906  1.5755
  186SAPI   H2S21325   5.363   4.709  10.426  1.5079  2.2675  0.0689
  186SAPI    C321326   5.030   4.313  10.306 -0.9286 -0.3110  0.6122
  186SAPI    HX21327   4.928   4.359  10.309 -1.9707 -2.4955 -0.2029
  186SAPI    HY21328   5.015   4.203  10.313  1.0739 -0.7042 -0.9036
  186SAPI   O3121329   5.088   4.342  10.177 -0.2264 -0.1564  0.0623
  186SAPI   C3121330   5.179   4.249  10.139  0.4738 -0.3967 -0.6476
  186SAPI   O3221331   5.203   4.137  10.186 -0.6508 -0.6805  0.4561
  186SAPI   C3221332   5.249   4.295  10.016 -0.3806 -0.1637 -0.1514
  186SAPI   H2X21333   5.358   4.277  10.026 -0.1748 -0.7949 -3.0639
  186SAPI   H2Y21334   5.237   4.406  10.019 -0.1666 -0.1706  1.7056
  186SAPI   C2321335   5.317   4.779  10.218  0.2509  0.0170 -1.5884
  186SAPI   H3R21336   5.419   4.744  10.190  1.3080  2.0550 -0.3388
  186SAPI   H3S21337   5.316   4.889  10.226  0.0917 -0.0977  0.1105
  186SAPI   C2421338   5.213   4.745  10.110  0.3638 -0.0914 -0.1477
  186SAPI   H4R21339   5.114   4.783  10.144  0.8185  1.3916 -0.4778
  186SAPI   H4S21340   5.207   4.634  10.104  1.9964 -0.0972 -2.8987
  186SAPI   C2521341   5.251   4.785   9.972 -0.2807  0.4310  0.2138
  186SAPI   H5R21342   5.324   4.867   9.964  2.6456 -1.9564  1.4618
  186SAPI   C2621343   5.209   4.738   9.852  0.3832  0.1024  0.1645
  186SAPI   H6R21344   5.254   4.772   9.758 -0.0974 -1.4652 -0.6415
  186SAPI   C2721345   5.090   4.647   9.849 -0.2748 -0.0947 -0.0346
  186SAPI   H7R21346   4.989   4.691   9.860 -0.7518 -1.0666 -0.4867
  186SAPI   H7S21347   5.102   4.569   9.927  0.2118 -1.0024 -1.0019
  186SAPI   C2821348   5.080   4.581   9.712  0.2463  0.0735 -0.2970
  186SAPI   H8R21349   5.067   4.472   9.703  1.4546 -0.0584 -0.6687
  186SAPI   C2921350   5.051   4.648   9.600  0.2677  0.3095 -0.0299
  186SAPI   H9R21351   5.046   4.588   9.508  1.1942 -1.6415  1.1618
  186SAPI  C21021352   5.024   4.796   9.575 -0.4563 -0.6554  0.5052
  186SAPI  H10R21353   5.030   4.861   9.666 -0.2290 -0.7938  0.5891
  186SAPI  H10S21354   4.922   4.804   9.531  0.5735 -0.2970 -1.8656
  186SAPI  C21121355   5.140   4.849   9.490  0.0150  0.5807  0.2589
  186SAPI  H11R21356   5.240   4.863   9.533 -0.5523 -0.2555  1.8957
  186SAPI  C21221357   5.124   4.897   9.373 -0.7929 -0.2356  0.0932
  186SAPI  H12R21358   5.213   4.935   9.320  0.2373 -0.0902  1.8951
  186SAPI  C21321359   4.994   4.899   9.294 -0.1381 -0.3528 -0.3116
  186SAPI  H13R21360   4.936   4.987   9.329  2.5217  0.4991  2.1394
  186SAPI  H13S21361   4.936   4.807   9.320 -0.4666  0.0716  0.4936
  186SAPI  C21421362   5.014   4.907   9.141 -0.0814  0.3951  0.0245
  186SAPI  H14R21363   5.114   4.941   9.113 -0.8578  1.8369 -1.0513
  186SAPI  C21521364   4.930   4.883   9.038 -0.0042 -0.6203 -0.3089
  186SAPI  H15R21365   4.966   4.909   8.938 -3.0101  2.1079 -0.7784
  186SAPI  C21621366   4.789   4.841   9.053 -0.0280 -0.1871 -0.1968
  186SAPI  H16R21367   4.720   4.925   9.027  2.1880  2.3913  2.0432
  186SAPI  H16S21368   4.758   4.793   9.148 -1.6856 -1.1614 -1.1986
  186SAPI  C21721369   4.751   4.743   8.942 -0.2453 -0.2366 -0.1156
  186SAPI  H17R21370   4.661   4.683   8.967 -0.7372  0.4081 -0.3193
  186SAPI  H17S21371   4.833   4.670   8.935 -0.3693 -0.3228 -0.7022
  186SAPI  C21821372   4.729   4.803   8.803 -0.6071 -0.4535  0.3277
  186SAPI  H18R21373   4.827   4.843   8.768 -0.4927 -0.8435  0.1938
  186SAPI  H18S21374   4.652   4.882   8.795 -0.0545 -0.0965 -1.7776
  186SAPI  C21921375   4.687   4.692   8.704  0.7285  0.3168 -0.6630
  186SAPI  H19R21376   4.610   4.628   8.751  2.2269  0.7477  2.4569
  186SAPI  H19S21377   4.772   4.629   8.670 -0.1462 -1.0071 -0.4159
  186SAPI  C22021378   4.631   4.757   8.571  0.2895 -0.6564  0.4365
  186SAPI  H20R21379   4.590   4.679   8.504 -0.6747 -0.8638  1.2587
  186SAPI  H20S21380   4.700   4.820   8.511 -2.1767  1.2181 -0.5040
  186SAPI  H20T21381   4.550   4.827   8.598 -0.5638 -0.9349 -1.3773
  186SAPI   C3321382   5.192   4.222   9.889  0.9316  0.0783  0.5845
  186SAPI   H3X21383   5.081   4.226   9.889  0.9343  0.6130  2.0490
  186SAPI   H3Y21384   5.207   4.113   9.903 -0.1060 -0.0842  0.4759
  186SAPI   C3421385   5.259   4.257   9.750  0.9559 -0.1488  0.0763
  186SAPI   H4X21386   5.368   4.244   9.767  0.3937 -1.4077  3.1893
  186SAPI   H4Y21387   5.242   4.366   9.739 -0.0910 -0.3426 -0.2849
  186SAPI   C3521388   5.201   4.173   9.631 -0.9723  0.0073 -0.0959
  186SAPI   H5X21389   5.096   4.201   9.609 -0.8567  0.5737  0.0471
  186SAPI   H5Y21390   5.207   4.063   9.646  0.2752 -0.5174 -3.8888
  186SAPI   C3621391   5.264   4.218   9.491 -0.6204 -0.4097 -0.1516
  186SAPI   H6X21392   5.218   4.149   9.418 -2.3862  0.1766  0.3793
  186SAPI   H6Y21393   5.368   4.182   9.481 -0.9707 -0.8545 -2.3476
  186SAPI   C3721394   5.233   4.370   9.467  0.5438 -0.1590 -0.5856
  186SAPI   H7X21395   5.287   4.428   9.545  2.2397 -1.3156 -0.8611
  186SAPI   H7Y21396   5.123   4.379   9.478  0.4684  1.8660 -2.6037
  186SAPI   C3821397   5.264   4.430   9.330 -0.4628  0.3281  0.0013
  186SAPI   H8X21398   5.370   4.419   9.300 -0.7946 -2.7079 -0.1551
  186SAPI   H8Y21399   5.248   4.540   9.336 -2.8933  0.0450 -0.4878
  186SAPI   C3921400   5.176   4.363   9.224  0.2583 -0.5315  0.2011
  186SAPI   H9X21401   5.073   4.385   9.258  0.9326  0.6648  1.5280
  186SAPI   H9Y21402   5.209   4.257   9.220  2.6044  0.1351  0.8283
  186SAPI  C31021403   5.199   4.412   9.078  0.0236 -0.7386 -0.4892
  186SAPI  H10X21404   5.307   4.417   9.052 -0.0083  0.5581 -0.4107
  186SAPI  H10Y21405   5.163   4.518   9.081 -1.6576 -1.3102  0.7030
  186SAPI  C31121406   5.111   4.330   8.992 -0.4732  0.0220  0.1331
  186SAPI  H11X21407   5.010   4.332   9.038 -0.8411  0.9858 -0.6743
  186SAPI  H11Y21408   5.137   4.222   8.995 -2.6112 -0.7290 -3.8837
  186SAPI  C31221409   5.104   4.381   8.851 -0.0434 -0.8937  0.2504
  186SAPI  H12X21410   5.209   4.386   8.815 -0.1743 -2.5962 -0.4122
  186SAPI  H12Y21411   5.071   4.486   8.865  0.3150 -0.7469 -0.0130
  186SAPI  C31321412   5.008   4.302   8.755 -0.4787 -0.2375 -0.2377
  186SAPI  H13X21413   4.910   4.285   8.805 -0.2174 -1.3974 -0.1004
  186SAPI  H13Y21414   5.064   4.209   8.734  0.1419 -0.4331  2.1188
  186SAPI  C31421415   4.977   4.382   8.626  0.0505  0.1493  0.1018
  186SAPI  H14X21416   5.066   4.423   8.573 -0.2959  0.7836  0.0086
  186SAPI  H14Y21417   4.904   4.460   8.655  2.1168  2.3019 -0.3140
  186SAPI  C31521418   4.904   4.296   8.518  0.4394 -0.6023  0.5857
  186SAPI  H15X21419   4.832   4.225   8.565  0.0490  0.1295  1.1158
  186SAPI  H15Y21420   4.976   4.235   8.460 -2.7310 -0.7279 -3.4540
  186SAPI  C31621421   4.833   4.389   8.419 -0.0958  0.2678  0.1137
  186SAPI  H16X21422   4.905   4.456   8.369  2.1839  0.0279  2.9379
  186SAPI  H16Y21423   4.751   4.447   8.468 -1.2085 -1.4719  0.3605
  186SAPI  C31721424   4.760   4.318   8.307  0.7257 -0.3481  0.1629
  186SAPI  H17X21425   4.701   4.391   8.248 -1.8109 -0.7635  2.1200
  186SAPI  H17Y21426   4.681   4.256   8.354  0.2279  0.3024  0.1924
  186SAPI  C31821427   4.832   4.240   8.202  0.2104  0.3739 -0.0021
  186SAPI  H18X21428   4.849   4.136   8.237  2.6484  0.7329 -0.0577
  186SAPI  H18Y21429   4.928   4.285   8.170  1.6859 -2.2159  0.5741
  186SAPI  H18Z21430   4.763   4.231   8.116 -0.8929 -0.5034  0.9593
  187SAPI   C1221431   1.752   6.081   5.969  0.5037  0.5585  0.2842
  187SAPI    H221432   1.817   6.132   6.043 -1.8014  0.6238  2.3006
  187SAPI    O221433   1.670   6.176   5.906  0.5724 -0.4355 -0.3929
  187SAPI   HO221434   1.620   6.221   5.974  0.6341  0.1963 -0.7583
  187SAPI   C1321435   1.850   6.014   5.873 -0.5151 -0.1591 -0.3339
  187SAPI    H321436   1.905   5.938   5.933  0.6577  0.3895 -0.7055
  187SAPI    O321437   1.950   6.103   5.829  0.0667  0.3381 -0.1731
  187SAPI   HO321438   1.914   6.167   5.767 -0.5457 -1.7284 -2.0486
  187SAPI   C1421439   1.775   5.946   5.761  0.5383 -0.0875 -0.3799
  187SAPI    H421440   1.727   6.030   5.706  1.9844 -0.5116 -2.3480
  187SAPI    O421441   1.864   5.892   5.659  0.1709 -0.8410 -0.3563
  187SAPI   HO421442   1.904   5.813   5.695 -0.5086 -1.3358 -0.6756
  187SAPI   C1521443   1.675   5.843   5.817  0.6446 -0.1028 -0.2463
  187SAPI    H521444   1.735   5.760   5.859 -1.1725  0.1230  2.9156
  187SAPI    O521445   1.594   5.779   5.713  0.0087  0.0120  0.2798
  187SAPI   HO521446   1.636   5.699   5.680 -1.6401 -1.3528  1.3864
  187SAPI   C1621447   1.583   5.892   5.932 -0.1242 -0.3970  0.4033
  187SAPI    H621448   1.510   5.956   5.878 -1.0047 -0.5511  1.3947
  187SAPI    O621449   1.505   5.786   5.991 -0.3049 -0.4892 -0.2348
  187SAPI   HO621450   1.463   5.828   6.066  2.6577 -0.5202  1.5534
  187SAPI   C1121451   1.672   5.969   6.035  0.4877 -0.8404  0.5576
  187SAPI    H121452   1.749   5.903   6.081  0.4104 -0.7765  0.7805
  187SAPI     P21453   1.634   6.029   6.285  0.5321 -0.0527  0.2893
  187SAPI   O1321454   1.561   6.138   6.355 -0.3875  0.1609  0.0904
  187SAPI   O1421455   1.782   6.040   6.288 -0.1023  0.2948 -0.1914
  187SAPI   O1221456   1.579   6.026   6.134 -0.5880  0.0702  0.1705
  187SAPI   O1121457   1.584   5.892   6.346  0.1593 -0.8385 -0.2971
  187SAPI    C121458   1.447   5.866   6.384  0.4556  0.1568 -0.1336
  187SAPI    HA21459   1.383   5.952   6.355 -0.3888 -0.8510 -1.2836
  187SAPI    HB21460   1.401   5.777   6.338 -2.5646  0.3818  2.2673
  187SAPI    C221461   1.448   5.840   6.541 -0.0543 -0.5167 -0.2687
  187SAPI    HS21462   1.367   5.770   6.570  0.1240 -0.3489  0.6520
  187SAPI   O2121463   1.435   5.966   6.618 -0.6807 -0.3965 -0.1808
  187SAPI   C2121464   1.319   6.028   6.592 -0.0126  0.4388  0.3412
  187SAPI   O2221465   1.223   5.974   6.538  0.2183 -0.1084  0.0093
  187SAPI   C2221466   1.330   6.169   6.632 -0.8217  0.2216  0.8433
  187SAPI   H2R21467   1.433   6.210   6.620 -0.6334  0.2115  2.3369
  187SAPI   H2S21468   1.264   6.228   6.565  0.9547  1.4747  0.1425
  187SAPI    C321469   1.581   5.769   6.587 -0.2420  0.0247 -0.2342
  187SAPI    HX21470   1.666   5.832   6.553  0.9216  0.3224  3.0182
  187SAPI    HY21471   1.585   5.679   6.522  0.1773 -0.9049  1.0621
  187SAPI   O3121472   1.577   5.727   6.728  0.2519  0.2936  0.0021
  187SAPI   C3121473   1.666   5.788   6.800  1.1250  0.4035 -0.3033
  187SAPI   O3221474   1.738   5.878   6.768  0.4265  0.5551  0.4655
  187SAPI   C3221475   1.668   5.730   6.944  0.4803 -0.1342 -0.0363
  187SAPI   H2X21476   1.746   5.651   6.949 -0.5080 -1.1009 -0.0221
  187SAPI   H2Y21477   1.570   5.681   6.962  0.3984 -0.2288 -0.7380
  187SAPI   C2321478   1.288   6.195   6.775 -0.3877  0.8791 -0.7741
  187SAPI   H3R21479   1.188   6.153   6.799 -0.2000 -0.3819 -2.0983
  187SAPI   H3S21480   1.292   6.305   6.787 -2.2096  0.7322  1.6085
  187SAPI   C2421481   1.386   6.139   6.881 -0.0662  0.0220 -0.3191
  187SAPI   H4R21482   1.380   6.204   6.971  1.0526  0.7861 -0.7859
  187SAPI   H4S21483   1.491   6.148   6.844  0.7710  1.8889  2.3152
  187SAPI   C2521484   1.352   6.001   6.929  0.7815  0.3880 -0.0887
  187SAPI   H5R21485   1.362   5.918   6.858  1.5831  0.9253 -0.6091
  187SAPI   C2621486   1.302   5.968   7.053 -0.1293  1.1452  0.7405
  187SAPI   H6R21487   1.291   5.861   7.075  2.0264  0.5386 -0.8881
  187SAPI   C2721488   1.271   6.069   7.163  0.3668  0.5601  0.1860
  187SAPI   H7R21489   1.172   6.032   7.197  1.8226 -1.5550  2.2680
  187SAPI   H7S21490   1.245   6.171   7.126 -0.6035  0.6229  1.0138
  187SAPI   C2821491   1.380   6.083   7.264 -0.6239 -0.5792 -0.5515
  187SAPI   H8R21492   1.481   6.089   7.221 -0.8023  0.6535 -0.8266
  187SAPI   C2921493   1.362   6.085   7.396  1.0820  1.1233 -0.1262
  187SAPI   H9R21494   1.449   6.080   7.463  0.5971 -1.4456  0.3699
  187SAPI  C21021495   1.233   6.063   7.467  0.3875  0.0604  0.9983
  187SAPI  H10R21496   1.212   5.954   7.464 -0.3619  0.2314 -0.4322
  187SAPI  H10S21497   1.160   6.111   7.397  1.0877  1.0783  0.9592
  187SAPI  C21121498   1.218   6.125   7.603 -0.1781  0.7206 -0.0200
  187SAPI  H11R21499   1.214   6.235   7.604 -0.1320  0.7224  0.2635
  187SAPI  C21221500   1.219   6.059   7.721 -0.4472  0.0068 -0.0195
  187SAPI  H12R21501   1.218   6.128   7.807  0.8742  2.2648 -1.7410
  187SAPI  C21321502   1.232   5.914   7.741  0.7448 -0.3415  1.0466
  187SAPI  H13R21503   1.305   5.897   7.822  1.4425  3.2017  1.2525
  187SAPI  H13S21504   1.274   5.867   7.650  0.5595  2.0870 -0.3603
  187SAPI  C21421505   1.101   5.841   7.764 -0.0949 -0.3697 -0.1612
  187SAPI  H14R21506   1.046   5.823   7.670  0.8917 -2.0182 -0.4537
  187SAPI  C21521507   1.057   5.792   7.882  0.3991 -0.6312  0.6037
  187SAPI  H15R21508   0.957   5.747   7.891 -0.2772  1.0786  1.8904
  187SAPI  C21621509   1.128   5.797   8.015 -0.3058  0.4841  0.0355
  187SAPI  H16R21510   1.060   5.821   8.100 -0.5562 -0.3417  0.0763
  187SAPI  H16S21511   1.207   5.874   8.022 -0.5089  0.8188 -1.3682
  187SAPI  C21721512   1.191   5.658   8.040 -0.3277 -0.0174  0.6930
  187SAPI  H17R21513   1.262   5.637   7.957 -1.1515  2.4135 -0.7049
  187SAPI  H17S21514   1.124   5.570   8.028 -0.2090  0.1145 -1.1617
  187SAPI  C21821515   1.254   5.661   8.181  0.8489 -0.1029  0.8122
  187SAPI  H18R21516   1.298   5.763   8.190 -1.4502  1.0259 -0.3315
  187SAPI  H18S21517   1.341   5.591   8.176  0.1865 -0.8230 -1.3070
  187SAPI  C21921518   1.144   5.637   8.291 -0.3789  0.2905 -0.0084
  187SAPI  H19R21519   1.096   5.537   8.278 -0.9203  0.7195 -1.3290
  187SAPI  H19S21520   1.066   5.712   8.267 -0.7098 -0.7350 -2.2885
  187SAPI  C22021521   1.197   5.667   8.430 -0.6806 -0.3343  0.4913
  187SAPI  H20R21522   1.235   5.770   8.448 -2.4563  0.2972  0.7747
  187SAPI  H20S21523   1.287   5.603   8.438 -1.9417 -2.1220  0.6808
  187SAPI  H20T21524   1.134   5.640   8.518  0.0235 -0.1882  1.0442
  187SAPI   C3321525   1.701   5.841   7.051 -0.1520  0.0581 -0.0669
  187SAPI   H3X21526   1.640   5.933   7.037  0.5055  0.4453 -0.4139
  187SAPI   H3Y21527   1.803   5.878   7.030 -0.0152 -0.1642  0.1960
  187SAPI   C3421528   1.697   5.788   7.201 -0.2903 -0.1256 -0.3515
  187SAPI   H4X21529   1.744   5.866   7.264  1.1582  0.2076 -1.8071
  187SAPI   H4Y21530   1.747   5.689   7.210 -1.7925 -0.8784 -0.1227
  187SAPI   C3521531   1.555   5.764   7.255 -0.6071  0.3995 -0.7229
  187SAPI   H5X21532   1.490   5.691   7.201  2.0991 -2.5490 -0.1233
  187SAPI   H5Y21533   1.505   5.863   7.247  0.4187  0.9914  0.1081
  187SAPI   C3621534   1.545   5.721   7.403  0.2401 -0.0614  0.6080
  187SAPI   H6X21535   1.601   5.625   7.413  0.8372  0.3700  1.5015
  187SAPI   H6Y21536   1.441   5.702   7.438  0.6316 -0.6250  1.4963
  187SAPI   C3721537   1.615   5.815   7.504  0.8587 -0.0584  0.9711
  187SAPI   H7X21538   1.551   5.902   7.478  0.4309 -1.3731 -2.7285
  187SAPI   H7Y21539   1.722   5.831   7.481  1.0002  1.1520  2.4191
  187SAPI   C3821540   1.591   5.760   7.646  0.2385 -1.0585  0.3567
  187SAPI   H8X21541   1.675   5.687   7.659  2.9351  1.2555 -2.9588
  187SAPI   H8Y21542   1.509   5.686   7.650 -0.3275 -0.6333 -2.2689
  187SAPI   C3921543   1.574   5.867   7.754  0.8386 -0.0211 -0.0734
  187SAPI   H9X21544   1.492   5.937   7.726  1.1121  0.2495 -0.1891
  187SAPI   H9Y21545   1.665   5.929   7.762 -0.0560  1.0597  2.3894
  187SAPI  C31021546   1.552   5.806   7.891 -0.1362 -0.2454  0.3503
  187SAPI  H10X21547   1.485   5.718   7.888  0.7308 -0.8308 -2.8808
  187SAPI  H10Y21548   1.495   5.875   7.957  0.3467 -0.1995  0.7292
  187SAPI  C31121549   1.697   5.775   7.946  0.0253 -0.2204  0.0573
  187SAPI  H11X21550   1.759   5.867   7.949 -0.6539  0.3455 -2.1837
  187SAPI  H11Y21551   1.741   5.699   7.879  1.3390 -0.2637  0.9591
  187SAPI  C31221552   1.699   5.708   8.081  1.2872  0.6568 -0.2554
  187SAPI  H12X21553   1.799   5.661   8.092  0.9184 -0.2629 -0.7493
  187SAPI  H12Y21554   1.624   5.626   8.084 -0.2429  2.0769  1.4808
  187SAPI  C31321555   1.672   5.810   8.195  0.5446  0.4912  0.1524
  187SAPI  H13X21556   1.587   5.876   8.164 -2.0158 -2.3579  0.8615
  187SAPI  H13Y21557   1.751   5.887   8.208  0.7078  0.1997  0.8515
  187SAPI  C31421558   1.641   5.752   8.333 -0.0476 -0.8712  0.0777
  187SAPI  H14X21559   1.737   5.740   8.388  1.4016  0.1951 -2.1154
  187SAPI  H14Y21560   1.594   5.652   8.323 -2.0568  0.2379 -2.1431
  187SAPI  C31521561   1.558   5.853   8.408  0.5321 -0.6345  0.4978
  187SAPI  H15X21562   1.462   5.864   8.354  1.0403 -2.5419 -0.8123
  187SAPI  H15Y21563   1.607   5.953   8.401  0.2272 -0.5904 -1.0151
  187SAPI  C31621564   1.544   5.817   8.562 -0.0937  0.5714  0.3512
  187SAPI  H16X21565   1.641   5.780   8.600 -0.4337 -2.3469 -1.4961
  187SAPI  H16Y21566   1.478   5.728   8.570  0.0368  0.4575  0.1570
  187SAPI  C31721567   1.502   5.941   8.647  0.0137  0.6662  0.0766
  187SAPI  H17X21568   1.577   6.016   8.615 -0.1873 -0.0015 -2.0775
  187SAPI  H17Y21569   1.517   5.915   8.754  1.8865 -0.1036 -0.3500
  187SAPI  C31821570   1.355   5.983   8.619 -0.2644 -0.0608 -0.3839
  187SAPI  H18X21571   1.323   6.066   8.685  0.8833 -0.1629  0.3076
  187SAPI  H18Y21572   1.286   5.897   8.634  0.0966 -0.5621 -1.5310
  187SAPI  H18Z21573   1.329   6.020   8.518 -1.4116 -0.8338 -0.3888
  188SAPI   C1221574   3.024   2.621   6.531 -0.8118 -0.6111 -0.2289
  188SAPI    H221575   2.970   2.580   6.619  0.0087 -1.4965 -0.1287
  188SAPI    O221576   2.952   2.603   6.408 -0.3114  0.3913  0.3241
  188SAPI   HO221577   2.891   2.534   6.433 -0.5315 -0.2364 -1.8542
  188SAPI   C1321578   3.054   2.771   6.553  0.4967  0.9392 -0.4613
  188SAPI    H321579   3.107   2.778   6.651  2.0293 -1.2485 -1.0977
  188SAPI    O321580   2.933   2.849   6.576 -0.1587  0.0656  0.1857
  188SAPI   HO321581   2.910   2.844   6.669  3.6103  1.7014  1.3319
  188SAPI   C1421582   3.135   2.821   6.438  0.3201  0.5319 -0.3654
  188SAPI    H421583   3.084   2.817   6.339 -1.1544  1.2848  0.3427
  188SAPI    O421584   3.169   2.959   6.464  0.1522  0.0159  0.4785
  188SAPI   HO421585   3.109   3.010   6.409  1.3324  1.0387  0.1150
  188SAPI   C1521586   3.258   2.734   6.413  0.1007  0.9887  0.0624
  188SAPI    H521587   3.326   2.757   6.498  0.3062 -1.7880  0.7036
  188SAPI    O521588   3.326   2.786   6.296 -1.1207 -0.6372  0.2920
  188SAPI   HO521589   3.421   2.778   6.311 -1.0096 -0.3325 -0.2530
  188SAPI   C1621590   3.235   2.584   6.398  0.5473  0.6694  0.2592
  188SAPI    H621591   3.167   2.566   6.311  0.4679  2.7077 -0.1181
  188SAPI    O621592   3.361   2.511   6.378 -0.0390  0.4508 -0.4867
  188SAPI   HO621593   3.368   2.448   6.451 -2.1223  1.1350  0.3444
  188SAPI   C1121594   3.155   2.543   6.518  0.5200  0.2938  0.0585
  188SAPI    H121595   3.225   2.564   6.601  0.5665  0.8210 -0.1077
  188SAPI     P21596   3.169   2.282   6.587 -0.2423 -0.4269 -0.5859
  188SAPI   O1321597   3.315   2.296   6.574 -0.1541 -0.1119 -0.2343
  188SAPI   O1421598   3.117   2.154   6.529 -0.3468 -0.6143  0.1625
  188SAPI   O1221599   3.100   2.406   6.511 -0.6007 -0.1980 -0.0923
  188SAPI   O1121600   3.127   2.288   6.738 -0.0513  0.0284 -0.2343
  188SAPI    C121601   2.989   2.301   6.773  0.0782 -0.1638  0.3146
  188SAPI    HA21602   2.952   2.400   6.807 -0.4159 -0.1728 -0.1948
  188SAPI    HB21603   2.918   2.260   6.698  2.0443  1.7705 -2.7306
  188SAPI    C221604   2.942   2.192   6.888  0.1751  0.0432  0.7200
  188SAPI    HS21605   2.833   2.192   6.906  0.0743  0.3238  0.1265
  188SAPI   O2121606   3.017   2.211   7.005  0.3032  0.1785 -0.0346
  188SAPI   C2121607   2.993   2.332   7.069  0.4391  0.6195  0.4039
  188SAPI   O2221608   2.897   2.401   7.035  0.2953 -0.3022  0.5394
  188SAPI   C2221609   3.085   2.357   7.193  0.1217 -0.4773  0.6015
  188SAPI   H2R21610   3.101   2.254   7.233 -0.5757 -0.7247  0.2410
  188SAPI   H2S21611   3.181   2.399   7.157 -0.7135  0.3358 -0.7055
  188SAPI    C321612   2.974   2.048   6.833  0.2369 -0.5990 -0.5891
  188SAPI    HX21613   3.083   2.028   6.834  0.1277 -1.1853 -0.2546
  188SAPI    HY21614   2.932   2.045   6.730 -0.5697 -0.8606 -0.2563
  188SAPI   O3121615   2.928   1.948   6.928 -0.1120 -0.0349  0.8754
  188SAPI   C3121616   2.877   1.837   6.874  0.6548 -0.8106 -0.7272
  188SAPI   O3221617   2.865   1.808   6.756  0.6686 -0.3465  0.2663
  188SAPI   C3221618   2.825   1.744   6.977  0.6231  0.2325 -0.7689
  188SAPI   H2X21619   2.816   1.649   6.922  0.7520 -0.3774  0.2514
  188SAPI   H2Y21620   2.721   1.774   7.000  0.8053 -0.3905  0.9585
  188SAPI   C2321621   3.040   2.466   7.295 -0.2263  0.5403  0.0940
  188SAPI   H3R21622   2.942   2.429   7.331 -1.5078  1.7115 -2.0623
  188SAPI   H3S21623   3.019   2.563   7.244  0.3228 -0.1020 -1.3842
  188SAPI   C2421624   3.141   2.503   7.395 -0.5274  0.0898 -0.1318
  188SAPI   H4R21625   3.228   2.545   7.341 -0.2183  0.2396  0.4781
  188SAPI   H4S21626   3.176   2.407   7.438 -0.9002  0.3342  0.7435
  188SAPI   C2521627   3.099   2.595   7.505  0.2683  0.3278  0.2152
  188SAPI   H5R21628   3.044   2.685   7.473  0.8745  0.8648  0.7085
  188SAPI   C2621629   3.129   2.581   7.634 -0.0499  0.5075 -0.2912
  188SAPI   H6R21630   3.082   2.649   7.706  2.6908  0.8904  1.2054
  188SAPI   C2721631   3.216   2.468   7.704 -0.5333  0.1692  0.2917
  188SAPI   H7R21632   3.294   2.518   7.765 -0.0961 -1.2988  0.9602
  188SAPI   H7S21633   3.272   2.407   7.630 -0.9279 -0.1842  0.2797
  188SAPI   C2821634   3.139   2.353   7.768  0.1670  0.3906  0.6110
  188SAPI   H8R21635   3.082   2.278   7.710  3.3343  0.3190 -2.5695
  188SAPI   C2921636   3.118   2.341   7.902  0.1550  0.1619  0.4303
  188SAPI   H9R21637   3.049   2.263   7.937 -0.4272  0.9384  1.0365
  188SAPI  C21021638   3.174   2.424   8.013 -0.0686  0.1356  1.0843
  188SAPI  H10R21639   3.109   2.410   8.102 -0.0082  1.4630  1.3474
  188SAPI  H10S21640   3.178   2.533   7.990 -4.1905  0.2505  0.5595
  188SAPI  C21121641   3.312   2.373   8.054 -0.3064  0.5906  0.0419
  188SAPI  H11R21642   3.362   2.292   7.999 -1.9036  0.4755 -1.2897
  188SAPI  C21221643   3.377   2.439   8.150 -0.2467 -0.3184 -0.7323
  188SAPI  H12R21644   3.481   2.411   8.170 -0.5833  1.2467  3.6720
  188SAPI  C21321645   3.330   2.567   8.214 -0.0943 -0.1079  0.1559
  188SAPI  H13R21646   3.296   2.626   8.127  1.4091  1.1918  0.4317
  188SAPI  H13S21647   3.412   2.624   8.262 -0.9125 -0.3829  1.9462
  188SAPI  C21421648   3.220   2.554   8.319 -0.1283  0.1719  0.4811
  188SAPI  H14R21649   3.224   2.457   8.371 -0.5086 -0.5142 -0.7505
  188SAPI  C21521650   3.124   2.643   8.353 -0.2476 -0.5499  0.4736
  188SAPI  H15R21651   3.058   2.606   8.432 -1.8591 -1.5391 -1.2795
  188SAPI  C21621652   3.103   2.778   8.289  0.5729 -0.3047  0.2591
  188SAPI  H16R21653   3.028   2.773   8.207 -0.7606 -1.8953  1.5413
  188SAPI  H16S21654   3.204   2.798   8.248  0.7285 -0.4026  0.6000
  188SAPI  C21721655   3.063   2.891   8.383 -0.5251  0.3909 -0.0269
  188SAPI  H17R21656   2.955   2.876   8.404 -0.3748 -1.6874 -0.6391
  188SAPI  H17S21657   3.061   2.988   8.330  0.8878 -0.2427 -1.2744
  188SAPI  C21821658   3.153   2.909   8.500 -0.4599 -0.2295 -1.0262
  188SAPI  H18R21659   3.155   2.821   8.567 -0.7220 -0.6593 -1.5796
  188SAPI  H18S21660   3.102   2.987   8.560  0.2408  1.8912 -3.0784
  188SAPI  C21921661   3.307   2.952   8.470 -0.5119 -0.7522 -0.0229
  188SAPI  H19R21662   3.364   2.859   8.446  2.1110  0.4876  1.2760
  188SAPI  H19S21663   3.340   2.973   8.573  0.1618  1.3807 -0.6496
  188SAPI  C22021664   3.337   3.054   8.361 -0.6594  0.0576  0.1257
  188SAPI  H20R21665   3.345   3.157   8.400 -1.4216 -0.1376  0.7986
  188SAPI  H20S21666   3.273   3.040   8.271  1.5553 -0.1947 -1.4473
  188SAPI  H20T21667   3.444   3.034   8.338 -0.7487 -0.5263  0.2019
  188SAPI   C3321668   2.888   1.720   7.115 -0.0902 -0.2574  0.1727
  188SAPI   H3X21669   2.863   1.808   7.178  0.4968  0.0851 -0.0693
  188SAPI   H3Y21670   2.995   1.698   7.098 -0.3062 -0.2353 -1.3155
  188SAPI   C3421671   2.831   1.593   7.179  0.4760  0.2783 -0.6723
  188SAPI   H4X21672   2.851   1.506   7.113  1.9692  2.0685 -2.6398
  188SAPI   H4Y21673   2.720   1.596   7.173  0.4123 -0.7919 -0.3050
  188SAPI   C3521674   2.877   1.584   7.325 -0.6839  0.1526  0.0864
  188SAPI   H5X21675   2.868   1.680   7.380  2.1508 -0.3316  1.5123
  188SAPI   H5Y21676   2.986   1.563   7.317 -0.2521  2.5785 -0.6930
  188SAPI   C3621677   2.799   1.487   7.406 -0.1223 -0.0137  0.6662
  188SAPI   H6X21678   2.780   1.387   7.361 -1.8186  1.3736 -1.8463
  188SAPI   H6Y21679   2.698   1.529   7.424  0.9296  1.8301  2.4662
  188SAPI   C3721680   2.866   1.471   7.546  0.0321 -0.1944 -0.1541
  188SAPI   H7X21681   2.976   1.451   7.543 -0.0373 -0.3855 -1.7602
  188SAPI   H7Y21682   2.821   1.378   7.588 -1.3666 -0.1325 -1.4924
  188SAPI   C3821683   2.856   1.582   7.653 -0.0715  0.2695  0.3362
  188SAPI   H8X21684   2.755   1.625   7.635  0.4879  1.8385  0.8289
  188SAPI   H8Y21685   2.935   1.657   7.631  0.7050 -0.6605 -0.0799
  188SAPI   C3921686   2.875   1.519   7.787  0.0521 -0.0474 -0.1076
  188SAPI   H9X21687   2.970   1.464   7.802 -0.9493 -1.7686 -0.0339
  188SAPI   H9Y21688   2.794   1.447   7.808 -0.2047  0.5337  0.9241
  188SAPI  C31021689   2.879   1.621   7.902  0.6457 -0.0112 -0.6583
  188SAPI  H10X21690   2.785   1.680   7.899  1.1942  0.9598  0.7438
  188SAPI  H10Y21691   2.974   1.677   7.890  0.3247  0.4890 -0.8865
  188SAPI  C31121692   2.886   1.552   8.034  0.5298 -0.0401  0.2399
  188SAPI  H11X21693   2.991   1.522   8.056  0.0744 -0.1494  2.3961
  188SAPI  H11Y21694   2.827   1.458   8.033  1.7508 -0.8140 -0.5605
  188SAPI  C31221695   2.836   1.636   8.160  0.0085  0.0343 -0.1495
  188SAPI  H12X21696   2.728   1.660   8.155 -0.4465 -1.9996 -0.4201
  188SAPI  H12Y21697   2.886   1.734   8.148  1.9403 -0.7896  1.0218
  188SAPI  C31321698   2.880   1.580   8.295 -0.2243 -0.2092 -0.1745
  188SAPI  H13X21699   2.987   1.554   8.288 -0.4772 -1.6355  1.0249
  188SAPI  H13Y21700   2.824   1.488   8.324  0.3018 -0.4592  0.0507
  188SAPI  C31421701   2.856   1.680   8.409  0.4377  0.1545 -0.3855
  188SAPI  H14X21702   2.753   1.720   8.397  1.1921  2.8739  1.6582
  188SAPI  H14Y21703   2.920   1.770   8.411 -0.0726  0.5422 -1.3182
  188SAPI  C31521704   2.852   1.617   8.544 -0.9625 -0.8900  0.3886
  188SAPI  H15X21705   2.757   1.563   8.559 -1.4652 -0.8863 -2.4725
  188SAPI  H15Y21706   2.844   1.700   8.617 -0.9137 -1.1851  0.7255
  188SAPI  C31621707   2.964   1.518   8.590 -0.7550  0.4784 -0.4397
  188SAPI  H16X21708   3.064   1.564   8.574 -0.1407 -0.5373  0.3976
  188SAPI  H16Y21709   2.953   1.424   8.531  0.6514 -0.2986  0.5012
  188SAPI  C31721710   2.943   1.492   8.745  0.4318 -0.0235 -0.3481
  188SAPI  H17X21711   2.837   1.479   8.776  0.8477 -1.8420  0.3858
  188SAPI  H17Y21712   2.965   1.586   8.800  1.6364 -0.8032  0.5221
  188SAPI  C31821713   3.023   1.378   8.800  0.2641  1.0353 -0.2455
  188SAPI  H18X21714   2.971   1.323   8.881 -2.7018  1.9609 -1.4241
  188SAPI  H18Y21715   3.116   1.420   8.843  0.3968  0.8663 -0.3669
  188SAPI  H18Z21716   3.044   1.306   8.718  1.9710  1.8405 -0.5342
  189POPC     N21717   3.439   3.339  10.977  0.0063  0.1360  0.2305
  189POPC   C1221718   3.313   3.350  11.046 -0.8787  0.6476 -0.4248
  189POPC  H12A21719   3.266   3.445  11.027 -0.6020  0.6036 -1.3582
  189POPC  H12B21720   3.341   3.351  11.150 -0.9873  1.7453 -0.3991
  189POPC   C1321721   3.515   3.217  11.008 -0.2705  0.5749  0.0073
  189POPC  H13A21722   3.623   3.221  11.001 -0.2886 -0.1908 -0.8776
  189POPC  H13B21723   3.488   3.199  11.111  1.9082  1.2438  0.7117
  189POPC  H13C21724   3.489   3.129  10.951  2.4585 -0.1424 -0.1809
  189POPC   C1421725   3.435   3.352  10.828 -0.0930 -0.2157 -0.2511
  189POPC  H14A21726   3.414   3.453  10.795 -0.0812  0.2321  1.1015
  189POPC  H14B21727   3.536   3.353  10.790  0.6077  1.7202  1.6132
  189POPC  H14C21728   3.364   3.282  10.787 -2.4468  0.9655  1.6780
  189POPC   C1521729   3.526   3.449  11.021 -0.1653 -0.2769 -0.2955
  189POPC  H15A21730   3.560   3.423  11.120  1.1118  1.4978 -0.2322
  189POPC  H15B21731   3.476   3.544  11.023 -1.3311 -0.8932 -0.0354
  189POPC  H15C21732   3.612   3.448  10.956 -1.3195 -0.4571 -1.8445
  189POPC   C1121733   3.208   3.238  11.015 -0.7095  0.6810 -0.7683
  189POPC  H11A21734   3.138   3.230  11.101 -0.0711 -0.3280 -0.3246
  189POPC  H11B21735   3.249   3.135  11.004 -1.0030  0.4784 -0.0195
  189POPC     P21736   3.042   3.393  10.900  0.0725  0.0065  0.2814
  189POPC   O1321737   3.103   3.524  10.923 -0.0870 -0.4166 -0.8789
  189POPC   O1421738   2.917   3.356  10.972  0.3675  0.2822 -0.2339
  189POPC   O1221739   3.140   3.274  10.890 -0.1757 -0.1906  0.6784
  189POPC   O1121740   2.993   3.391  10.754  0.2298 -0.6557 -0.0562
  189POPC    C121741   3.090   3.429  10.653  0.4149 -0.2369 -0.8621
  189POPC    HA21742   3.175   3.358  10.649 -0.4883 -1.3244 -1.1464
  189POPC    HB21743   3.117   3.537  10.658 -0.3775 -0.1072  0.8934
  189POPC    C221744   3.014   3.441  10.513 -0.0845  0.4280 -0.0065
  189POPC    HS21745   2.962   3.538  10.507  0.2068  0.5479 -0.6632
  189POPC   O2121746   2.930   3.334  10.491 -0.4700 -0.2181 -0.1759
  189POPC   C2121747   2.806   3.354  10.458  0.2001 -0.1088 -0.0164
  189POPC   O2221748   2.750   3.461  10.467 -0.0931 -0.1877  0.2476
  189POPC   C2221749   2.740   3.231  10.403  0.2903 -0.0276 -0.0989
  189POPC   H2R21750   2.757   3.151  10.477  1.5853  1.8056  1.6387
  189POPC   H2S21751   2.787   3.209  10.305  0.2421  0.7300 -0.2997
  189POPC    C321752   3.122   3.437  10.401 -0.5268 -0.2165 -0.0758
  189POPC    HX21753   3.183   3.345  10.411  0.4837  0.6649  2.2703
  189POPC    HY21754   3.194   3.519  10.424 -0.0755 -0.1620 -1.5926
  189POPC   O3121755   3.063   3.449  10.267  0.3562  0.7309  0.0371
  189POPC   C3121756   3.014   3.571  10.237  0.3801 -0.0469  0.1935
  189POPC   O3221757   3.026   3.668  10.310  0.0656 -0.2453 -0.2478
  189POPC   C3221758   2.931   3.566  10.111  0.5248 -0.2895 -0.0713
  189POPC   H2X21759   2.858   3.648  10.130  0.7869 -0.3935  1.4653
  189POPC   H2Y21760   2.872   3.472  10.118  0.9242 -0.6579 -1.5018
  189POPC   C2321761   2.590   3.261  10.389 -0.1311  0.9279  0.0093
  189POPC   H3R21762   2.583   3.331  10.303  0.2940  0.8228 -0.1088
  189POPC   H3S21763   2.546   3.306  10.481  0.2853 -2.4712  1.9535
  189POPC   C2421764   2.506   3.143  10.348  0.5496 -0.2672 -0.2040
  189POPC   H4R21765   2.513   3.076  10.435  1.2360 -1.2986 -1.0441
  189POPC   H4S21766   2.540   3.107  10.248  0.7213  1.7634 -0.9180
  189POPC   C2521767   2.352   3.187  10.340  0.0123 -0.4292  0.4767
  189POPC   H5R21768   2.350   3.252  10.250  0.9787 -1.4967 -0.3265
  189POPC   H5S21769   2.337   3.245  10.434  2.2556 -1.4271  1.4807
  189POPC   C2621770   2.264   3.063  10.332  0.2248  0.6290 -0.1519
  189POPC   H6R21771   2.155   3.084  10.338  0.0795  0.0909 -0.8173
  189POPC   H6S21772   2.281   2.991  10.415  0.5944  0.0704 -0.6991
  189POPC   C2721773   2.297   2.975  10.213 -0.1140  0.4138  0.1684
  189POPC   H7R21774   2.396   2.931  10.237 -0.5747 -0.9457 -0.3695
  189POPC   H7S21775   2.303   3.038  10.122 -0.1954  0.7655  0.4034
  189POPC   C2821776   2.192   2.866  10.196 -0.2971  0.2560 -0.1021
  189POPC   H8R21777   2.158   2.809  10.286 -2.3577  0.7031 -0.5873
  189POPC   H8S21778   2.247   2.791  10.135 -1.6559 -0.3819 -0.5785
  189POPC   C2921779   2.073   2.907  10.122 -0.3986 -0.3291  0.1789
  189POPC   H9121780   1.998   2.961  10.182 -1.4423 -0.7445 -0.7286
  189POPC  C21021781   2.045   2.879   9.997 -0.0548 -0.4235  0.2640
  189POPC  H10121782   1.946   2.910   9.958 -0.3871 -1.1380  0.5309
  189POPC  C21121783   2.125   2.798   9.901  0.3406 -0.4406  0.9791
  189POPC  H11R21784   2.057   2.717   9.866 -0.3423  0.1275  0.9741
  189POPC  H11S21785   2.216   2.750   9.944  1.2819 -0.1459 -0.6583
  189POPC  C21221786   2.175   2.877   9.783  0.0527 -0.3936  0.1938
  189POPC  H12R21787   2.232   2.966   9.820  0.7064 -1.2439  1.2687
  189POPC  H12S21788   2.092   2.898   9.713 -1.2450  0.6807  2.0052
  189POPC  C21321789   2.278   2.797   9.695 -0.3042 -1.0342 -0.3819
  189POPC  H13R21790   2.229   2.700   9.670  1.3111 -1.4007 -2.2848
  189POPC  H13S21791   2.377   2.792   9.745 -1.5592  1.8397  2.5615
  189POPC  C21421792   2.304   2.859   9.559 -0.2392  0.0814  0.5314
  189POPC  H14R21793   2.348   2.959   9.579  1.1441 -0.7565  1.8602
  189POPC  H14S21794   2.223   2.871   9.485 -0.6234  1.5995  1.1857
  189POPC  C21521795   2.429   2.802   9.498  0.6117 -0.5582 -0.4213
  189POPC  H15R21796   2.411   2.694   9.482  0.8706 -0.8388  1.0683
  189POPC  H15S21797   2.515   2.806   9.568  0.8739  0.5685 -0.7993
  189POPC  C21621798   2.472   2.869   9.359  0.5179 -0.2132 -0.1034
  189POPC  H16R21799   2.474   2.980   9.362  0.7227 -0.1972 -0.9043
  189POPC  H16S21800   2.389   2.855   9.287  0.7199 -0.5440 -0.2696
  189POPC  C21721801   2.603   2.844   9.290  0.3937 -0.5257  0.0368
  189POPC  H17R21802   2.623   2.899   9.196  0.0877  0.0843  0.3269
  189POPC  H17S21803   2.612   2.734   9.278 -0.6255 -0.7828  1.4640
  189POPC  C21821804   2.723   2.877   9.385 -0.7889 -0.6800 -0.6504
  189POPC  H18R21805   2.742   2.985   9.400 -1.3901 -0.6673  0.0589
  189POPC  H18S21806   2.813   2.824   9.348 -1.5171 -1.8478 -0.7904
  189POPC  H18T21807   2.713   2.835   9.488  2.4062  3.3276  1.4705
  189POPC   C3321808   3.003   3.582   9.972 -0.1548  0.0752  0.1988
  189POPC   H3X21809   3.048   3.484   9.945 -0.5044 -0.3758  1.2492
  189POPC   H3Y21810   3.081   3.659   9.990 -0.8317  0.1385  3.0185
  189POPC   C3421811   2.905   3.638   9.867 -0.9141 -0.5122  0.0088
  189POPC   H4X21812   2.837   3.713   9.912  2.5877  2.0205  1.2627
  189POPC   H4Y21813   2.839   3.556   9.831 -0.7778 -0.8457  0.5047
  189POPC   C3521814   2.980   3.707   9.749 -0.6830 -0.3830  0.3425
  189POPC   H5X21815   3.051   3.775   9.801  0.3381 -1.8581  0.9264
  189POPC   H5Y21816   2.906   3.754   9.681 -1.9081 -0.8251  1.3334
  189POPC   C3621817   3.061   3.608   9.658  0.1733  0.1300 -0.5880
  189POPC   H6X21818   2.997   3.548   9.590 -0.4135 -0.1571  0.2036
  189POPC   H6Y21819   3.116   3.532   9.719 -1.6836 -0.3312  0.5413
  189POPC   C3721820   3.166   3.687   9.576 -0.0871 -0.2501  0.0243
  189POPC   H7X21821   3.126   3.716   9.477 -1.1944  1.4226  0.9343
  189POPC   H7Y21822   3.249   3.617   9.553 -0.6109 -0.3213 -1.6838
  189POPC   C3821823   3.217   3.823   9.629 -0.3554 -0.3673  0.2504
  189POPC   H8X21824   3.230   3.820   9.739 -0.8197 -1.9958  0.2721
  189POPC   H8Y21825   3.140   3.900   9.606 -0.4887 -0.8696 -1.0749
  189POPC   C3921826   3.347   3.877   9.567  0.4337  0.2623 -0.1709
  189POPC   H9X21827   3.431   3.829   9.621  0.8955  1.7171  0.4186
  189POPC   H9Y21828   3.353   3.984   9.596 -0.2049  0.6873 -1.5301
  189POPC  C31021829   3.359   3.845   9.427  0.3832 -0.2510  0.0670
  189POPC  H10X21830   3.342   3.737   9.403  1.1455 -0.6532  1.3132
  189POPC  H10Y21831   3.460   3.868   9.388  0.9297  0.2452  1.7397
  189POPC  C31121832   3.278   3.936   9.326 -0.6462  0.8591 -0.2342
  189POPC  H11X21833   3.306   4.041   9.344 -0.8880  0.4183  2.9661
  189POPC  H11Y21834   3.172   3.923   9.357 -0.5459 -1.3704 -0.7131
  189POPC  C31221835   3.295   3.895   9.182 -0.1840 -0.3225  0.2090
  189POPC  H12X21836   3.387   3.832   9.171 -0.4079 -0.6517  0.2198
  189POPC  H12Y21837   3.322   3.986   9.124  2.2399 -0.6336  0.7605
  189POPC  C31321838   3.172   3.834   9.112 -0.2405  0.0398  0.2268
  189POPC  H13X21839   3.086   3.894   9.148 -1.0766 -0.6713 -0.5678
  189POPC  H13Y21840   3.144   3.734   9.151 -0.6441 -0.0483 -0.2793
  189POPC  C31421841   3.176   3.825   8.958 -0.3955 -0.1012  0.3960
  189POPC  H14X21842   3.210   3.915   8.904  0.8969 -0.8664 -0.0876
  189POPC  H14Y21843   3.070   3.804   8.929 -0.4640  1.0339 -0.2124
  189POPC  C31521844   3.284   3.720   8.912  0.4500  0.0158  0.3875
  189POPC  H15X21845   3.266   3.629   8.973 -0.3896  1.1308  1.8231
  189POPC  H15Y21846   3.389   3.746   8.937  0.7960 -0.7616 -0.2097
  189POPC  C31621847   3.293   3.700   8.759 -0.1339 -0.3070 -0.0210
  189POPC  H16X21848   3.387   3.644   8.738  0.3428  0.9758 -1.3495
  189POPC  H16Y21849   3.287   3.798   8.707  1.6829 -0.2263 -0.1073
  189POPC  H16Z21850   3.204   3.647   8.718  0.7574 -1.1571 -0.8887
  190POPC     N21851   5.609   6.426  11.504 -0.4140 -0.2249  0.2344
  190POPC   C1221852   5.646   6.508  11.377 -0.4762 -0.3951  0.7335
  190POPC  H12A21853   5.746   6.547  11.374 -0.2759 -0.8602  1.2499
  190POPC  H12B21854   5.577   6.591  11.372  0.5719  0.3948 -1.3062
  190POPC   C1321855   5.654   6.502  11.618 -0.8929  0.7670 -0.2739
  190POPC  H13A21856   5.650   6.610  11.616  2.1836  0.9304 -0.0168
  190POPC  H13B21857   5.608   6.456  11.704 -1.5150 -0.6038 -1.3396
  190POPC  H13C21858   5.760   6.487  11.633 -0.5468  1.7097 -1.6731
  190POPC   C1421859   5.464   6.400  11.506  0.4942 -0.0382 -0.1798
  190POPC  H14A21860   5.420   6.470  11.575  0.9402 -1.1210  1.2336
  190POPC  H14B21861   5.411   6.406  11.412 -1.0053  1.1085  0.7207
  190POPC  H14C21862   5.450   6.305  11.555 -0.0256 -1.0088 -2.1563
  190POPC   C1521863   5.675   6.285  11.508  0.1626  0.3697  0.6243
  190POPC  H15A21864   5.638   6.226  11.591 -0.0522 -0.1250  0.1771
  190POPC  H15B21865   5.783   6.283  11.509  0.1502 -0.7517  1.3508
  190POPC  H15C21866   5.659   6.227  11.419  1.6797 -0.0180  0.5920
  190POPC   C1121867   5.618   6.445  11.234  0.8740  0.3569  0.5990
  190POPC  H11A21868   5.666   6.345  11.244 -1.5166 -0.8075  0.8584
  190POPC  H11B21869   5.667   6.517  11.166 -0.2009  0.4050 -0.1424
  190POPC     P21870   5.382   6.565  11.173  0.0685  0.4401  0.1255
  190POPC   O1321871   5.423   6.684  11.247 -0.5634 -0.2330  0.4011
  190POPC   O1421872   5.243   6.518  11.185  0.5457 -0.5192 -0.2830
  190POPC   O1221873   5.480   6.436  11.205 -0.1115  0.5020 -0.7139
  190POPC   O1121874   5.421   6.583  11.020 -0.2952 -0.5629 -0.6076
  190POPC    C121875   5.439   6.471  10.936  0.4817  0.1613 -0.1002
  190POPC    HA21876   5.380   6.382  10.965  1.5182 -0.3337  0.5024
  190POPC    HB21877   5.543   6.434  10.944  0.8434  1.0575 -0.5313
  190POPC    C221878   5.396   6.493  10.782 -0.5762  1.1899  0.5425
  190POPC    HS21879   5.477   6.551  10.733 -0.0350  0.1633  0.2068
  190POPC   O2121880   5.263   6.551  10.780  0.3352  0.2258  0.2255
  190POPC   C2121881   5.260   6.687  10.758  0.6095  0.4037  0.0939
  190POPC   O2221882   5.360   6.750  10.731 -0.1206  0.1691  0.2353
  190POPC   C2221883   5.117   6.739  10.790 -0.3518  0.2557 -0.4970
  190POPC   H2R21884   5.095   6.727  10.898 -1.8117 -0.0905 -0.8166
  190POPC   H2S21885   5.051   6.671  10.733  1.4382 -2.8616  1.0155
  190POPC    C321886   5.390   6.354  10.705 -0.1980 -0.0257 -0.1098
  190POPC    HX21887   5.305   6.292  10.739  0.4859 -1.4152 -0.9197
  190POPC    HY21888   5.480   6.296  10.736 -0.8795 -1.6153 -1.0786
  190POPC   O3121889   5.397   6.381  10.554 -0.4351 -0.0746 -0.0860
  190POPC   C3121890   5.283   6.417  10.502 -0.4204  0.1390 -0.0995
  190POPC   O3221891   5.178   6.410  10.554 -0.3951  0.2135  0.3126
  190POPC   C3221892   5.303   6.457  10.353  0.1620  0.3242 -0.2960
  190POPC   H2X21893   5.277   6.370  10.290 -0.4145  1.0228 -1.0474
  190POPC   H2Y21894   5.411   6.480  10.338  0.4883 -0.4057  0.8724
  190POPC   C2321895   5.111   6.887  10.753  0.6021 -0.4193  0.1374
  190POPC   H3R21896   5.191   6.943  10.806  0.8641  0.1238 -0.8388
  190POPC   H3S21897   5.014   6.919  10.798 -0.8739 -1.0651 -2.4613
  190POPC   C2421898   5.101   6.900  10.598  0.0147 -0.2913 -0.0712
  190POPC   H4R21899   5.202   6.883  10.555  0.0972  0.0350 -0.0138
  190POPC   H4S21900   5.080   7.007  10.579 -1.7272 -0.7696 -1.0137
  190POPC   C2521901   4.998   6.812  10.533 -0.0555 -0.1616  0.0428
  190POPC   H5R21902   4.908   6.821  10.597 -0.2985  0.5127 -0.3837
  190POPC   H5S21903   5.031   6.706  10.535 -0.7342 -0.3916 -0.7372
  190POPC   C2621904   4.974   6.838  10.377  0.7697  0.1245 -0.1790
  190POPC   H6R21905   5.070   6.828  10.322 -0.0079  0.7078 -1.6465
  190POPC   H6S21906   4.934   6.938  10.350  1.3452  0.5814  0.6259
  190POPC   C2721907   4.878   6.734  10.322 -1.1133  0.9804  0.2355
  190POPC   H7R21908   4.802   6.703  10.397 -0.6124 -0.3113  0.2259
  190POPC   H7S21909   4.934   6.639  10.305  1.0569  1.5824  3.5003
  190POPC   C2821910   4.822   6.771  10.192 -0.2033  0.1384  0.9479
  190POPC   H8R21911   4.777   6.873  10.204 -3.8268 -1.1912 -0.4789
  190POPC   H8S21912   4.734   6.710  10.163  0.5145 -0.6952  0.5428
  190POPC   C2921913   4.918   6.766  10.074  0.4260  0.5412 -0.5649
  190POPC   H9121914   5.023   6.756  10.104  0.0617  0.5056  0.7457
  190POPC  C21021915   4.883   6.760   9.943 -0.8472 -0.2688 -0.0783
  190POPC  H10121916   4.958   6.753   9.862  0.5096 -4.1125  1.3981
  190POPC  C21121917   4.742   6.747   9.890  0.1125  0.3546  0.4735
  190POPC  H11R21918   4.670   6.731   9.973 -1.2633  0.5071 -0.6709
  190POPC  H11S21919   4.721   6.673   9.810 -0.0492 -0.6083  1.3826
  190POPC  C21221920   4.687   6.884   9.828 -0.1715  0.5147  0.6797
  190POPC  H12R21921   4.694   6.961   9.907 -0.1124 -0.5001  1.6671
  190POPC  H12S21922   4.582   6.863   9.798 -0.2761  1.0071  0.7059
  190POPC  C21321923   4.757   6.939   9.703 -0.3823  0.1298  0.9144
  190POPC  H13R21924   4.866   6.940   9.723 -0.4670  1.7365  1.3806
  190POPC  H13S21925   4.733   7.046   9.686  0.4497  0.3246  0.9357
  190POPC  C21421926   4.712   6.856   9.581 -0.2422 -0.2540 -0.1337
  190POPC  H14R21927   4.602   6.863   9.566  0.0391 -0.1879 -2.1815
  190POPC  H14S21928   4.740   6.750   9.598  0.1328 -0.3856 -1.5749
  190POPC  C21521929   4.769   6.902   9.442 -0.1637 -0.0389  0.4382
  190POPC  H15R21930   4.878   6.919   9.453 -0.2098  1.1242 -0.8232
  190POPC  H15S21931   4.728   7.002   9.416 -2.0435 -0.9587 -0.2297
  190POPC  C21621932   4.757   6.804   9.333  0.9396  0.2940 -0.9885
  190POPC  H16R21933   4.653   6.813   9.294 -0.5088 -3.8675  1.5504
  190POPC  H16S21934   4.767   6.698   9.367  1.7743 -0.0485 -2.2787
  190POPC  C21721935   4.843   6.824   9.211  0.4479  0.7973 -0.6371
  190POPC  H17R21936   4.948   6.808   9.242 -0.5986 -2.1956  1.6635
  190POPC  H17S21937   4.827   6.928   9.175 -3.4726  0.1520 -1.0072
  190POPC  C21821938   4.814   6.735   9.091 -0.0621  0.4361 -0.3152
  190POPC  H18R21939   4.704   6.720   9.094 -0.0687  0.4986 -0.2287
  190POPC  H18S21940   4.873   6.642   9.106  1.2960  1.0181 -1.9398
  190POPC  H18T21941   4.842   6.770   8.990 -0.0216 -1.9305 -1.1760
  190POPC   C3321942   5.233   6.580  10.310  0.0145  0.3209 -0.4189
  190POPC   H3X21943   5.233   6.647  10.398  0.1558 -0.8096  0.4611
  190POPC   H3Y21944   5.130   6.552  10.281  0.0924 -0.7910  0.3183
  190POPC   C3421945   5.299   6.640  10.182 -0.6582  0.3951  0.2516
  190POPC   H4X21946   5.403   6.670  10.206 -0.7572  0.7800  0.2024
  190POPC   H4Y21947   5.232   6.722  10.150 -2.4772 -0.7801  1.0011
  190POPC   C3521948   5.285   6.537  10.061  0.2941 -0.2003 -0.1226
  190POPC   H5X21949   5.197   6.470  10.071  0.1906 -0.1737 -0.7808
  190POPC   H5Y21950   5.364   6.460  10.067  3.3133  2.9636  3.8763
  190POPC   C3621951   5.286   6.608   9.928  0.5327 -0.2043 -0.6926
  190POPC   H6X21952   5.389   6.637   9.898  1.1038 -0.9230  0.5338
  190POPC   H6Y21953   5.226   6.702   9.934 -0.5669 -1.0510  2.3394
  190POPC   C3721954   5.209   6.533   9.824 -0.0621 -0.3593 -0.0794
  190POPC   H7X21955   5.101   6.544   9.844 -0.4322 -0.6586 -1.7918
  190POPC   H7Y21956   5.232   6.426   9.841 -0.8345 -1.0021 -2.8349
  190POPC   C3821957   5.235   6.586   9.677  0.6324 -0.3109  0.0721
  190POPC   H8X21958   5.182   6.514   9.612 -1.2947 -0.2241  1.5215
  190POPC   H8Y21959   5.344   6.595   9.657  0.6216  1.1978  0.5809
  190POPC   C3921960   5.186   6.724   9.642 -1.1761  0.2050 -0.7279
  190POPC   H9X21961   5.195   6.788   9.733 -0.6448  1.9896 -1.9904
  190POPC   H9Y21962   5.076   6.727   9.628 -1.1584 -1.1023 -1.1923
  190POPC  C31021963   5.260   6.782   9.520  0.1772  0.5522  0.5693
  190POPC  H10X21964   5.370   6.774   9.534  0.6718  0.4054 -3.0167
  190POPC  H10Y21965   5.230   6.888   9.505  1.2753  0.8218  0.2100
  190POPC  C31121966   5.234   6.702   9.392  0.4374 -0.2506 -0.2305
  190POPC  H11X21967   5.128   6.669   9.396  1.4519 -4.2788 -3.7597
  190POPC  H11Y21968   5.299   6.612   9.395 -1.9420 -1.9781  0.4963
  190POPC  C31221969   5.250   6.782   9.266 -0.0262 -0.8669  0.4631
  190POPC  H12X21970   5.181   6.868   9.269 -0.9540 -1.6366  1.7713
  190POPC  H12Y21971   5.216   6.716   9.183 -1.8950  2.9977 -2.0059
  190POPC  C31321972   5.396   6.803   9.226 -0.0103  0.1714  1.0604
  190POPC  H13X21973   5.432   6.698   9.232 -3.1483 -0.9903  0.5151
  190POPC  H13Y21974   5.439   6.864   9.309  0.3628 -2.8178  3.1340
  190POPC  C31421975   5.439   6.864   9.091 -0.0749  0.4197 -0.3547
  190POPC  H14X21976   5.539   6.828   9.059 -0.2772 -1.0305  0.5665
  190POPC  H14Y21977   5.442   6.975   9.101  1.8487  0.3761 -0.2758
  190POPC  C31521978   5.338   6.834   8.973  0.1396  0.2017 -0.5662
  190POPC  H15X21979   5.257   6.908   8.988  0.8900  0.7865  0.6537
  190POPC  H15Y21980   5.301   6.729   8.979 -0.1080  0.3133 -0.1052
  190POPC  C31621981   5.374   6.868   8.829 -0.1910  0.4929 -0.1689
  190POPC  H16X21982   5.396   6.977   8.823  2.4707 -0.0430 -0.8165
  190POPC  H16Y21983   5.284   6.852   8.766 -1.2572  0.2399  1.3900
  190POPC  H16Z21984   5.465   6.813   8.796  1.0575  2.2813  0.2302
  191POPC     N21985   5.072   0.798   6.098  0.2281 -0.6780 -0.0049
  191POPC   C1221986   5.041   0.801   6.253  0.0732  1.1028 -0.4377
  191POPC  H12A21987   4.971   0.883   6.264  0.4408  1.1448  1.9483
  191POPC  H12B21988   5.125   0.832   6.313 -0.2896 -2.3655  2.0019
  191POPC   C1321989   5.138   0.930   6.065 -0.2807  0.3493  0.0244
  191POPC  H13A21990   5.210   0.913   5.986 -2.4874 -3.0836 -1.3720
  191POPC  H13B21991   5.077   1.009   6.025  1.4744  0.4533 -2.5603
  191POPC  H13C21992   5.198   0.960   6.150 -2.4380 -0.6620  1.9367
  191POPC   C1421993   5.169   0.684   6.078 -0.0218 -0.2334  0.4392
  191POPC  H14A21994   5.181   0.651   5.976  1.5370 -0.9292  0.8340
  191POPC  H14B21995   5.264   0.724   6.110  0.4886  0.1283 -1.5013
  191POPC  H14C21996   5.139   0.599   6.138 -1.6157  0.2087  0.3039
  191POPC   C1521997   4.954   0.781   6.013  0.5140 -0.5138 -0.1656
  191POPC  H15A21998   4.871   0.845   6.041 -0.5584 -2.3085  0.8758
  191POPC  H15B21999   4.919   0.679   6.025  0.1968 -0.1760  1.9207
  191POPC  H15C22000   4.971   0.814   5.911 -1.5989  2.5456  0.3902
  191POPC   C1122001   4.989   0.671   6.317  0.2990  0.0113 -0.7280
  191POPC  H11A22002   4.985   0.674   6.427  1.6305  2.1144 -0.7148
  191POPC  H11B22003   5.033   0.572   6.292 -2.2235 -0.6450 -2.8458
  191POPC     P22004   4.733   0.725   6.341 -0.3947  0.3152 -0.0290
  191POPC   O1322005   4.624   0.628   6.362 -0.3116  0.3530 -0.0801
  191POPC   O1422006   4.706   0.846   6.261 -0.0766 -0.0007 -0.0288
  191POPC   O1222007   4.856   0.655   6.266 -0.2003  0.5933 -0.3023
  191POPC   O1122008   4.784   0.776   6.479  0.1978 -0.3711 -0.0339
  191POPC    C122009   4.683   0.823   6.574  0.5263  0.2474  0.4019
  191POPC    HA22010   4.654   0.743   6.646 -0.6917  0.0662 -0.2866
  191POPC    HB22011   4.599   0.875   6.525  0.8192  0.7870  0.4658
  191POPC    C222012   4.744   0.930   6.671  0.0982  0.3052 -0.1270
  191POPC    HS22013   4.817   0.878   6.737 -0.6025 -0.1359  0.3035
  191POPC   O2122014   4.636   1.000   6.732  0.1095  0.1743  0.1921
  191POPC   C2122015   4.585   0.930   6.829  0.1043  0.7401 -0.0285
  191POPC   O2222016   4.630   0.826   6.875 -0.2232 -0.4923 -0.7610
  191POPC   C2222017   4.462   1.002   6.891 -0.6886 -0.9828 -0.3449
  191POPC   H2R22018   4.375   0.933   6.880 -1.3858 -0.2623  0.6010
  191POPC   H2S22019   4.443   1.094   6.832  1.4925 -0.5301 -0.3552
  191POPC    C322020   4.838   1.042   6.601 -0.3570  0.4062 -0.2613
  191POPC    HX22021   4.783   1.099   6.523  0.3374  0.7555 -0.5056
  191POPC    HY22022   4.920   0.989   6.549 -3.3529 -2.3161 -2.4106
  191POPC   O3122023   4.890   1.136   6.705  0.7609 -0.5237  0.6698
  191POPC   C3122024   4.993   1.078   6.770 -0.5352 -0.1049  0.4849
  191POPC   O3222025   5.046   0.974   6.740  0.0729  0.3813 -0.1828
  191POPC   C3222026   5.029   1.172   6.885 -0.0468 -0.1258 -0.7891
  191POPC   H2X22027   4.938   1.203   6.941 -1.7156 -0.5337 -3.2331
  191POPC   H2Y22028   5.086   1.259   6.844  0.0004  0.6292  0.8134
  191POPC   C2322029   4.473   1.032   7.045 -0.4679  0.0960 -0.1540
  191POPC   H3R22030   4.531   0.952   7.094  1.7453  0.7433 -1.6308
  191POPC   H3S22031   4.367   1.032   7.077 -0.8059 -0.1408 -1.2364
  191POPC   C2422032   4.548   1.162   7.063 -0.1589 -0.5206  0.8415
  191POPC   H4R22033   4.483   1.232   7.008  2.4728  3.2404  2.3389
  191POPC   H4S22034   4.649   1.151   7.017 -0.5554 -0.3223 -0.0958
  191POPC   C2522035   4.563   1.195   7.213 -0.1988 -0.3484  0.0782
  191POPC   H5R22036   4.618   1.123   7.278  0.1326  0.9246  1.2316
  191POPC   H5S22037   4.459   1.200   7.253 -0.3252 -0.9309 -0.1716
  191POPC   C2622038   4.626   1.332   7.242 -0.0451  0.3384 -0.1817
  191POPC   H6R22039   4.579   1.408   7.176 -3.0475  0.2521  1.7863
  191POPC   H6S22040   4.734   1.345   7.219 -0.1406 -1.2479 -1.6118
  191POPC   C2722041   4.592   1.381   7.379 -0.2488 -0.5909  0.6462
  191POPC   H7R22042   4.623   1.300   7.448 -0.1866  2.0451  3.8248
  191POPC   H7S22043   4.484   1.400   7.394 -0.4944 -1.2331 -0.2291
  191POPC   C2822044   4.670   1.505   7.416 -0.5535 -0.0042 -0.0783
  191POPC   H8R22045   4.627   1.549   7.509 -3.3791 -2.3939 -0.1915
  191POPC   H8S22046   4.646   1.574   7.332  1.5627 -0.4445 -1.0764
  191POPC   C2922047   4.822   1.503   7.421 -0.0655 -0.0239  0.1098
  191POPC   H9122048   4.866   1.541   7.327 -0.2642  0.4661  0.2127
  191POPC  C21022049   4.899   1.465   7.529 -0.3346  0.8423 -0.3019
  191POPC  H10122050   5.008   1.460   7.516 -0.1020 -3.2626  2.2316
  191POPC  C21122051   4.843   1.414   7.652  0.0897  0.3801  0.2829
  191POPC  H11R22052   4.917   1.349   7.704 -1.8759 -1.1028  1.3057
  191POPC  H11S22053   4.754   1.353   7.627 -0.9365  1.2568  1.7001
  191POPC  C21222054   4.798   1.523   7.752 -0.0087 -1.0864 -0.8964
  191POPC  H12R22055   4.730   1.589   7.694  0.4157  2.1993  2.1540
  191POPC  H12S22056   4.882   1.592   7.775 -0.1057 -0.6773 -1.7629
  191POPC  C21322057   4.737   1.477   7.884  0.2211  0.6997 -0.5073
  191POPC  H13R22058   4.815   1.414   7.931  0.8252  3.5286  2.4585
  191POPC  H13S22059   4.639   1.424   7.881 -0.2558  1.5589 -0.4399
  191POPC  C21422060   4.721   1.603   7.978  0.1259  0.3692  0.4482
  191POPC  H14R22061   4.644   1.666   7.928  0.7921 -0.3881 -1.5893
  191POPC  H14S22062   4.811   1.666   7.992 -2.0492  3.3322  1.6466
  191POPC  C21522063   4.685   1.544   8.110  0.7577 -0.2543 -0.7079
  191POPC  H15R22064   4.758   1.465   8.138  0.7425 -0.1112 -0.2608
  191POPC  H15S22065   4.583   1.501   8.105  0.2754  0.7953 -0.0133
  191POPC  C21622066   4.688   1.635   8.232  0.2066 -0.2411  0.0120
  191POPC  H16R22067   4.787   1.684   8.231 -0.3962  1.0016  0.8375
  191POPC  H16S22068   4.673   1.577   8.326  0.6840 -0.3032  0.0485
  191POPC  C21722069   4.580   1.738   8.224 -0.3652 -0.2358  0.2775
  191POPC  H17R22070   4.480   1.689   8.218  0.0962 -1.0757 -0.4756
  191POPC  H17S22071   4.577   1.805   8.136 -2.2907 -1.3306 -0.5201
  191POPC  C21822072   4.595   1.823   8.357 -0.4519 -0.9086 -0.9124
  191POPC  H18R22073   4.498   1.873   8.375  0.3949  0.9763 -1.3837
  191POPC  H18S22074   4.661   1.911   8.339  1.3593 -1.6901  1.6333
  191POPC  H18T22075   4.643   1.770   8.442 -1.0831  1.7639  1.2015
  191POPC   C3322076   5.131   1.108   6.987  0.1743 -0.9397  0.2772
  191POPC   H3X22077   5.148   1.185   7.065 -2.0657 -1.4890  1.3559
  191POPC   H3Y22078   5.225   1.083   6.935  0.2621  1.7577 -0.9423
  191POPC   C3422079   5.075   0.986   7.060  0.6501  0.0084 -0.5059
  191POPC   H4X22080   5.169   0.939   7.098  0.4995 -1.6814 -2.1806
  191POPC   H4Y22081   5.031   0.911   6.991 -1.9289 -0.1160  1.1859
  191POPC   C3522082   4.965   1.014   7.161  0.3728 -0.5534  0.5054
  191POPC   H5X22083   4.911   0.924   7.196 -0.1326 -1.0672 -1.4951
  191POPC   H5Y22084   4.881   1.072   7.116  1.2460  1.9428  2.0044
  191POPC   C3622085   5.011   1.105   7.277  0.2504  0.4748 -0.1564
  191POPC   H6X22086   4.918   1.117   7.337 -0.2987 -0.0690 -0.8889
  191POPC   H6Y22087   5.057   1.202   7.251  1.4894  0.1100  0.6037
  191POPC   C3722088   5.113   1.026   7.373  1.1394  0.8236  0.7675
  191POPC   H7X22089   5.191   0.974   7.313  2.0678  1.6412  1.2591
  191POPC   H7Y22090   5.052   0.950   7.427  1.1555 -0.7401 -1.3143
  191POPC   C3822091   5.176   1.112   7.484 -0.3723  0.3547 -0.4049
  191POPC   H8X22092   5.097   1.176   7.528  0.6578 -0.3626  2.5920
  191POPC   H8Y22093   5.263   1.170   7.445 -0.0499 -1.2596 -2.1813
  191POPC   C3922094   5.225   1.021   7.598  0.7233 -0.2683 -0.2637
  191POPC   H9X22095   5.322   0.972   7.572  0.4638 -0.9315 -0.0035
  191POPC   H9Y22096   5.150   0.939   7.607 -0.4290  0.5914 -1.9192
  191POPC  C31022097   5.228   1.097   7.732 -0.3480 -0.6620 -0.1270
  191POPC  H10X22098   5.267   1.031   7.814  1.3242  0.5314  0.0670
  191POPC  H10Y22099   5.129   1.143   7.752 -0.8701 -0.9220 -2.0248
  191POPC  C31122100   5.333   1.217   7.725  0.3961  0.4107  0.3295
  191POPC  H11X22101   5.319   1.273   7.631  0.2343  1.7995  1.1672
  191POPC  H11Y22102   5.437   1.180   7.715  0.2160  0.0868 -0.3419
  191POPC  C31222103   5.311   1.303   7.855 -0.7170  0.2450 -0.8491
  191POPC  H12X22104   5.202   1.311   7.877 -0.9252 -2.0835 -0.9070
  191POPC  H12Y22105   5.350   1.402   7.822  0.4979 -0.5061 -1.7187
  191POPC  C31322106   5.378   1.249   7.982 -0.5297  0.3509 -0.0127
  191POPC  H13X22107   5.487   1.231   7.964 -0.3596  0.6260  0.7208
  191POPC  H13Y22108   5.338   1.149   8.009 -1.2077  0.8489  0.8649
  191POPC  C31422109   5.364   1.335   8.105  0.4002  1.2560 -0.4784
  191POPC  H14X22110   5.261   1.377   8.107 -0.8365 -1.6601  0.3094
  191POPC  H14Y22111   5.435   1.420   8.100 -1.4868  2.8984 -0.1597
  191POPC  C31522112   5.379   1.251   8.229 -0.4390 -0.1900 -0.0585
  191POPC  H15X22113   5.482   1.209   8.221 -0.0110  1.0261 -1.0511
  191POPC  H15Y22114   5.308   1.166   8.219 -0.6152 -0.1601  0.9153
  191POPC  C31622115   5.363   1.332   8.362 -0.6332 -0.6724  0.5762
  191POPC  H16X22116   5.255   1.351   8.380 -0.6562  0.7282 -0.9112
  191POPC  H16Y22117   5.420   1.427   8.359 -3.3554  0.9758  0.3002
  191POPC  H16Z22118   5.399   1.280   8.454  0.5170  2.3280  1.9076
  192POPC     N22119   4.703   3.433   5.958 -0.1799 -0.5041  1.0841
  192POPC   C1222120   4.597   3.475   6.060  0.1898  0.0390 -0.2837
  192POPC  H12A22121   4.517   3.404   6.069  1.8360 -1.7532  0.6299
  192POPC  H12B22122   4.558   3.573   6.037 -1.0148  0.0627  1.7759
  192POPC   C1322123   4.637   3.419   5.820  0.3425  0.1818  0.2479
  192POPC  H13A22124   4.706   3.366   5.756 -0.7605 -1.7867  0.6368
  192POPC  H13B22125   4.554   3.350   5.822 -0.4429  1.1118  0.0092
  192POPC  H13C22126   4.602   3.516   5.790  0.3633 -0.1568 -0.8916
  192POPC   C1422127   4.804   3.537   5.946 -0.0863 -0.0507  0.0175
  192POPC  H14A22128   4.767   3.636   5.921  2.3083  2.2298  4.7501
  192POPC  H14B22129   4.849   3.558   6.042  1.2759 -0.2203 -0.5707
  192POPC  H14C22130   4.889   3.520   5.882  1.0133  0.1402  1.4024
  192POPC   C1522131   4.764   3.302   5.993  1.0003 -0.4551 -0.1470
  192POPC  H15A22132   4.829   3.262   5.916  0.2573  0.0372 -1.0374
  192POPC  H15B22133   4.678   3.242   6.020  0.3721 -0.4421 -2.0336
  192POPC  H15C22134   4.825   3.309   6.081 -0.1026  0.6984  0.5487
  192POPC   C1122135   4.661   3.493   6.204  0.4616  0.2028  0.2109
  192POPC  H11A22136   4.709   3.397   6.233 -0.5243 -0.6240 -0.8502
  192POPC  H11B22137   4.569   3.507   6.265  0.3449  2.5631 -0.4690
  192POPC     P22138   4.840   3.612   6.350 -0.7438  0.1317 -0.0030
  192POPC   O1322139   4.933   3.725   6.352  0.0354  0.3117 -0.6927
  192POPC   O1422140   4.900   3.473   6.364 -0.3157 -0.1792 -0.2755
  192POPC   O1222141   4.755   3.603   6.221 -0.0550 -0.6415  0.2830
  192POPC   O1122142   4.739   3.632   6.470 -0.7278 -0.5342 -0.6639
  192POPC    C122143   4.661   3.755   6.480  0.3196 -0.7204 -0.2388
  192POPC    HA22144   4.620   3.784   6.381  2.3745  0.9763 -0.6300
  192POPC    HB22145   4.722   3.841   6.514 -1.3269  0.3332  0.0974
  192POPC    C222146   4.542   3.747   6.584  0.0127 -0.4093 -0.4702
  192POPC    HS22147   4.523   3.846   6.631 -0.7176 -0.4895 -0.6054
  192POPC   O2122148   4.576   3.653   6.690 -0.4781 -0.0069 -0.2468
  192POPC   C2122149   4.683   3.687   6.755 -0.5910 -0.0347  0.8082
  192POPC   O2222150   4.737   3.801   6.759 -0.3606  0.3941 -1.0655
  192POPC   C2222151   4.725   3.557   6.824  0.2826 -0.2297 -0.1644
  192POPC   H2R22152   4.668   3.478   6.772 -0.4919  0.0561  0.2391
  192POPC   H2S22153   4.695   3.563   6.931  0.0509  2.3117 -0.3415
  192POPC    C322154   4.411   3.697   6.519 -0.6064  0.1664  0.0890
  192POPC    HX22155   4.444   3.598   6.482 -0.4476  0.1952  0.1521
  192POPC    HY22156   4.392   3.754   6.426 -1.7031 -0.8851 -0.3456
  192POPC   O3122157   4.308   3.706   6.619  0.2455  0.1293  0.9144
  192POPC   C3122158   4.258   3.593   6.671 -0.1435  0.1166 -0.5664
  192POPC   O3222159   4.290   3.478   6.639 -0.5794 -0.8014  0.2447
  192POPC   C3222160   4.140   3.619   6.768 -0.0968 -1.1651 -0.9833
  192POPC   H2X22161   4.059   3.553   6.729 -0.5427 -0.7869 -0.7055
  192POPC   H2Y22162   4.111   3.724   6.746  3.6244 -0.1455 -1.2794
  192POPC   C2322163   4.877   3.525   6.812  0.3454 -0.0932  0.3006
  192POPC   H3R22164   4.929   3.617   6.849  0.2573  0.6214 -1.2941
  192POPC   H3S22165   4.903   3.505   6.706  0.5138  1.4906  0.0294
  192POPC   C2422166   4.914   3.407   6.885  0.0099  0.4019 -0.3573
  192POPC   H4R22167   4.843   3.327   6.854 -0.1902  0.1029  0.8449
  192POPC   H4S22168   4.888   3.430   6.991 -0.6123 -2.2014  0.0860
  192POPC   C2522169   5.064   3.371   6.871  0.3497 -0.7045  0.0562
  192POPC   H5R22170   5.100   3.370   6.765  1.8788 -0.9028  0.5565
  192POPC   H5S22171   5.081   3.264   6.892 -0.6119 -1.0870 -1.0555
  192POPC   C2622172   5.170   3.450   6.952  0.8702 -0.1890 -0.0285
  192POPC   H6R22173   5.159   3.560   6.940 -1.2819 -0.1367  2.1247
  192POPC   H6S22174   5.274   3.428   6.919  0.7134 -2.9515  1.2266
  192POPC   C2722175   5.159   3.418   7.100  0.5306 -0.2427 -0.3381
  192POPC   H7R22176   5.167   3.311   7.131  0.4281 -0.0442  0.3567
  192POPC   H7S22177   5.059   3.449   7.135 -0.0045 -1.6770 -0.5335
  192POPC   C2822178   5.260   3.489   7.201 -0.1709  0.9162  0.8926
  192POPC   H8R22179   5.246   3.460   7.308 -1.9858  0.9900  0.6764
  192POPC   H8S22180   5.233   3.597   7.212  0.7093  1.0409  2.0515
  192POPC   C2922181   5.410   3.467   7.195  0.1954 -0.5599  0.4129
  192POPC   H9122182   5.442   3.362   7.189 -0.3363 -0.7100  0.1839
  192POPC  C21022183   5.508   3.563   7.181 -0.3353 -0.4192  0.0386
  192POPC  H10122184   5.613   3.536   7.168 -0.9317 -2.2824 -0.9752
  192POPC  C21122185   5.496   3.714   7.186  0.3032  1.0075  0.4950
  192POPC  H11R22186   5.416   3.747   7.256  1.1207  3.9349  0.1074
  192POPC  H11S22187   5.472   3.756   7.086 -1.3348 -2.8465 -0.8233
  192POPC  C21222188   5.633   3.785   7.224  0.4152 -0.5571  0.6754
  192POPC  H12R22189   5.623   3.890   7.192  3.0462 -1.1419 -2.2663
  192POPC  H12S22190   5.703   3.740   7.150 -0.2319 -0.2185 -0.1547
  192POPC  C21322191   5.705   3.767   7.351 -0.5089  0.1644 -0.0500
  192POPC  H13R22192   5.742   3.663   7.369 -3.0985 -0.4017  2.5164
  192POPC  H13S22193   5.627   3.786   7.428 -0.6035  1.1434 -0.3912
  192POPC  C21422194   5.827   3.862   7.359  0.3723 -0.6505  0.4567
  192POPC  H14R22195   5.808   3.968   7.332  1.6343 -0.2587  1.0571
  192POPC  H14S22196   5.884   3.830   7.269  1.7753  3.8945 -0.4493
  192POPC  C21522197   5.905   3.876   7.487  0.3862 -0.2044  0.6761
  192POPC  H15R22198   6.012   3.889   7.464  0.1506  2.3566  0.8905
  192POPC  H15S22199   5.899   3.784   7.550  1.0236  1.0577  2.6421
  192POPC  C21622200   5.884   4.005   7.561  0.3833  0.8347 -0.2577
  192POPC  H16R22201   5.779   4.041   7.565 -0.0430 -0.5294  2.4024
  192POPC  H16S22202   5.947   4.083   7.514  0.9042  0.5261 -0.0725
  192POPC  C21722203   5.938   4.003   7.701  0.9988 -0.3547  1.0692
  192POPC  H17R22204   5.877   3.943   7.772  0.7721 -1.3235  0.0502
  192POPC  H17S22205   5.921   4.106   7.740  1.8763  0.3897 -0.4708
  192POPC  C21822206   6.086   3.971   7.708  0.1953  0.0887 -0.6110
  192POPC  H18R22207   6.131   3.973   7.810 -1.9918 -1.9075  0.4265
  192POPC  H18S22208   6.148   4.038   7.644  1.7833 -0.9026 -0.1348
  192POPC  H18T22209   6.112   3.872   7.666  1.1106 -0.0235  0.1882
  192POPC   C3322210   4.162   3.585   6.915  0.1807  0.9380 -0.0747
  192POPC   H3X22211   4.201   3.482   6.924 -1.3836  0.2326 -1.1087
  192POPC   H3Y22212   4.062   3.581   6.965 -1.1994  1.0261 -2.7530
  192POPC   C3422213   4.263   3.673   6.983 -0.1171  0.2830  0.1363
  192POPC   H4X22214   4.234   3.780   6.986 -0.3278  0.2066  1.0703
  192POPC   H4Y22215   4.356   3.681   6.924  1.4755  0.0510  2.5743
  192POPC   C3522216   4.304   3.632   7.124  0.0818  0.1210 -0.1932
  192POPC   H5X22217   4.325   3.524   7.111  0.2267  0.1697 -0.3615
  192POPC   H5Y22218   4.209   3.636   7.182 -1.2554 -0.6697 -2.2538
  192POPC   C3622219   4.416   3.713   7.194 -0.5259  0.5831 -0.8880
  192POPC   H6X22220   4.423   3.691   7.303 -0.0073  0.4291 -0.9497
  192POPC   H6Y22221   4.385   3.818   7.179  0.8993  1.1305 -0.0982
  192POPC   C3722222   4.551   3.695   7.133 -0.5815 -0.6173 -0.0859
  192POPC   H7X22223   4.569   3.734   7.031 -0.8328 -1.8433 -0.6036
  192POPC   H7Y22224   4.587   3.591   7.131 -1.8582 -1.0539 -3.6851
  192POPC   C3822225   4.654   3.778   7.216  0.3342  0.7464 -0.8602
  192POPC   H8X22226   4.755   3.738   7.190 -0.1473  0.5385 -2.4230
  192POPC   H8Y22227   4.645   3.757   7.325  2.7065  0.7298 -0.6265
  192POPC   C3922228   4.667   3.926   7.186  0.4418  0.5894  0.6797
  192POPC   H9X22229   4.565   3.961   7.160  0.6547  0.2787 -0.5605
  192POPC   H9Y22230   4.721   3.924   7.089  0.6430 -0.0520  0.8030
  192POPC  C31022231   4.745   4.002   7.290 -0.1529 -0.6223  0.7466
  192POPC  H10X22232   4.781   4.097   7.246 -1.0946 -0.7325 -0.2704
  192POPC  H10Y22233   4.829   3.934   7.319  0.5909  0.6124  1.5300
  192POPC  C31122234   4.662   4.022   7.411  0.1285 -0.5549  0.5118
  192POPC  H11X22235   4.638   3.931   7.469  0.1253 -1.1923 -0.4783
  192POPC  H11Y22236   4.561   4.050   7.373  0.2409 -1.3022 -0.3607
  192POPC  C31222237   4.716   4.131   7.506  0.3116 -0.1693 -0.5382
  192POPC  H12X22238   4.744   4.214   7.438  0.1963  0.8880  0.6782
  192POPC  H12Y22239   4.815   4.087   7.532 -1.0954 -3.1527  0.0019
  192POPC  C31322240   4.637   4.161   7.637  0.0256 -0.2607  0.1910
  192POPC  H13X22241   4.617   4.072   7.701 -1.3750 -0.5522 -0.6158
  192POPC  H13Y22242   4.541   4.211   7.611  0.5651  1.6175  1.7250
  192POPC  C31422243   4.716   4.251   7.733 -0.2141 -0.1838  0.1254
  192POPC  H14X22244   4.706   4.353   7.688  0.7561  0.3645  1.1280
  192POPC  H14Y22245   4.823   4.223   7.744  0.1947  0.6109 -1.6201
  192POPC  C31522246   4.652   4.268   7.873  0.6439  0.1494  0.2582
  192POPC  H15X22247   4.717   4.342   7.925  1.4165 -0.4638  0.1725
  192POPC  H15Y22248   4.653   4.171   7.928 -0.1463 -1.0823 -1.8570
  192POPC  C31622249   4.507   4.323   7.876  0.4841 -0.4745 -0.5946
  192POPC  H16X22250   4.516   4.431   7.853  2.4830 -0.7525 -1.2493
  192POPC  H16Y22251   4.449   4.319   7.970 -1.6654  2.8169 -1.7212
  192POPC  H16Z22252   4.443   4.261   7.809 -2.0805  0.2673  1.1332
  193SOD    SOD22253   5.476   2.137   2.195  0.2506 -0.6481  0.4479
  194SOD    SOD22254   1.034   3.539   1.503  0.3376 -0.0968 -0.2282
  195SOD    SOD22255   4.855   1.002  12.123  0.1432 -0.2029 -0.0672
  196SOD    SOD22256   1.493   4.048  11.847  0.2616  0.1517 -0.0038
  197SOD    SOD22257   1.422   6.247  11.767  0.1937  0.4792 -0.4933
  198SOD    SOD22258   0.504   2.799  10.557 -0.4348  0.1687  0.7551
  199SOD    SOD22259   0.777   2.864   0.430 -0.1362  0.4666 -0.1280
  200SOD    SOD22260   5.148   3.590   2.562 -0.0187  0.3147 -0.5876
  201SOD    SOD22261   5.996   6.686  13.166  0.2198  0.0137  0.1532
  202SOD    SOD22262   4.890   4.017  11.278  0.1517 -0.2800  0.1930
  203SOD    SOD22263   0.583   1.513   6.327  0.2564  0.0189 -0.3206
  204SOD    SOD22264   0.388   3.587  15.357 -0.3136  0.1572 -0.3014
  205SOD    SOD22265   1.122   4.734  15.880 -0.4097  0.2742 -0.1419
  206SOD    SOD22266   4.090   1.689  15.380 -0.0789 -0.4105 -0.7139
  207SOD    SOD22267   1.607   0.236   1.423 -0.3051  0.0326  0.4358
  208SOD    SOD22268   0.557   2.293  16.289  0.4098 -0.4449  0.0943
  209SOD    SOD22269   3.614   1.488  12.869 -0.1837 -0.0114 -0.0519
  210SOD    SOD22270   0.588   5.771   6.394 -0.7353  0.0063  0.3176
  211SOD    SOD22271   3.963   3.656   4.279 -0.2198  0.1837 -0.4210
  212SOD    SOD22272   4.834   2.602   1.801  0.2589  0.1786 -0.2852
  213SOD    SOD22273   2.576   3.489  13.811  0.2746  0.1237 -0.1531
  214SOD    SOD22274   5.061   1.059   4.144  0.0101  0.5089 -0.0139
  215SOD    SOD22275   2.286   4.019  14.406 -0.2972  0.2859 -0.1982
  216SOD    SOD22276   3.822   5.486  14.903  0.0353  0.5318 -0.2065
  217SOD    SOD22277   1.471   6.350   6.391 -0.4498  0.0779 -0.3855
  218SOD    SOD22278   5.531   4.896  10.732 -0.0812 -0.0360 -0.4595
  219SOD    SOD22279   3.997   2.186   5.004 -0.1707 -0.3479  0.4462
  220SOD    SOD22280   3.725   6.123  13.615 -0.4942  0.1784  0.1695
  221SOD    SOD22281   5.273   4.162  16.312  0.2714 -0.4660 -0.2706
  222SOD    SOD22282   1.946   3.150   2.113 -0.5640 -0.3951 -0.0900
  223SOD    SOD22283   4.527   6.528   6.708 -0.1016 -0.4080  0.4634
  224SOD    SOD22284   5.866   1.866   3.240 -0.1049 -0.4542  0.2431
  225SOD    SOD22285   1.483   2.736  11.334  0.4348 -0.0015 -0.0185
  226SOD    SOD22286   3.602   1.186   6.066 -0.3380 -0.2789  0.3603
  227SOD    SOD22287   3.156   4.212   0.581 -0.6189  0.2148  0.1410
  228SOD    SOD22288   3.717   0.064  15.016  0.2654  0.5698 -0.2853
  229SOD    SOD22289   2.430   1.308   5.845 -0.0082  0.1619  0.0779
  230SOD    SOD22290   4.659   3.085  10.753  0.1347 -0.1575  0.0929
  231SOD    SOD22291   2.870   2.122   2.654  0.1917  0.4167 -0.3098
  232SOD    SOD22292   6.519   2.234  13.542 -0.3948  0.0497  0.0744
  233SOD    SOD22293   2.480   6.300   6.110  0.2824 -0.3721  0.9496
  234SOD    SOD22294   0.704   1.716   1.821 -0.3358 -0.2793  0.0289
  235SOD    SOD22295   0.922   0.918  11.919 -0.1364  0.2552 -0.0617
  236SOD    SOD22296   5.710   1.948  17.093 -0.7207 -0.0061 -0.0819
  237SOD    SOD22297   1.640   0.966  15.100 -0.3925  0.3558  0.4019
  238SOD    SOD22298   3.816   3.420   5.351 -0.3706 -0.3624 -0.4649
  239SOD    SOD22299   1.476   4.307  17.091  0.2486 -0.1383 -0.2129
  240SOD    SOD22300   6.381   1.038   2.208  0.1211  0.1097 -0.0307
  241SOD    SOD22301   4.241   5.869   5.604 -0.2055  0.2574  0.3695
  242SOD    SOD22302   5.884   4.989  11.557  0.4183  0.2355  0.3923
  243SOD    SOD22303   1.773   1.335  13.929 -0.4298 -0.0677 -0.2422
  244SOD    SOD22304   6.260   4.899   1.408 -0.1031  0.1127 -0.4472
  245SOD    SOD22305   1.875   2.136   0.745  0.2822 -0.4284  0.8927
  246SOD    SOD22306   1.635   6.352   4.217 -0.0844  0.4395  0.3135
  247SOD    SOD22307   5.350   3.401  11.406  0.1764 -0.0417 -0.6756
  248SOD    SOD22308   3.448   5.707  12.566  0.1222  0.4059  0.0400
  249SOD    SOD22309   1.901   6.726  16.183 -0.1543  0.5045  0.4770
  250SOD    SOD22310   4.197   3.373   6.291  0.1963  0.3132  0.0586
  251SOD    SOD22311   1.485   5.076   6.593  1.2742  0.0961 -0.2882
  252SOD    SOD22312   3.284   2.127  14.509  0.2094 -0.3777 -0.5637
  253SOD    SOD22313   5.988   6.175  16.815 -0.1816 -0.3365 -0.0336
  254SOD    SOD22314   4.600   5.703   0.572  0.0806  0.3467  0.1754
  255SOD    SOD22315   2.608   6.137  11.432 -0.0419  0.2003  0.1062
  256SOD    SOD22316   3.636   6.513  16.843  0.6012  0.3915  0.2476
  257SOD    SOD22317   0.657   3.949  16.353 -0.4705 -0.1424  0.0665
  258SOD    SOD22318   2.495   5.478  11.904 -0.5613  0.3790 -0.4866
  259SOD    SOD22319   5.902   3.926  16.690 -0.5767  0.3202  0.0755
  260SOD    SOD22320   4.575   4.459  11.671  0.1384 -0.1270  0.0824
  261SOD    SOD22321   2.929   1.653   1.161  0.3087 -0.0078 -0.0009
  262SOD    SOD22322   5.880   1.131  15.521  0.1268 -0.0258 -0.3593
  263SOD    SOD22323   2.192   4.450   4.049  0.3738 -0.0812 -0.3458
  264SOD    SOD22324   4.509   3.542  14.104 -0.0162 -0.1322  0.3684
  265SOD    SOD22325   0.981   2.868   5.960 -0.0770 -0.3405  0.2096
  266SOD    SOD22326   6.315   2.951  13.726 -0.3474 -0.4707  0.4478
  267SOD    SOD22327   1.522   2.649  10.725 -0.1122 -0.1529  0.1119
  268SOD    SOD22328   1.741   1.588  11.713  0.3860 -0.0768 -0.4216
  269SOD    SOD22329   3.339   1.256  11.610 -0.6652 -0.0287 -0.2349
  270CLA    CLA22330   0.185   5.651   3.833  0.2031 -0.2817  0.7326
  271CLA    CLA22331   3.332   3.327   4.704 -0.0058  0.1588 -0.1893
  272CLA    CLA22332   5.812   5.841   0.772  0.5261  0.3435 -0.2977
  273CLA    CLA22333   0.726   1.118  12.285  0.1039  0.0341 -0.2844
  274CLA    CLA22334   6.699   0.813   3.961  0.4920  0.0270  0.3257
  275CLA    CLA22335   2.037   5.675   5.786  0.2737  0.2606  0.2699
  276CLA    CLA22336   0.674   6.367   2.701  0.2725  0.1866 -0.1213
  277CLA    CLA22337   1.092   2.397  13.713  0.3503 -0.0570 -0.2339
  278CLA    CLA22338   3.229   0.007   3.071 -0.2011  0.1183 -0.1183
  279CLA    CLA22339   2.306   3.667  11.847 -0.1347  0.1689 -0.1370
  280CLA    CLA22340   0.623   3.105   0.501  0.1739 -0.0042  0.2257
  281CLA    CLA22341   4.602   3.655  15.982 -0.0006 -0.2710 -0.0277
  282CLA    CLA22342   3.344   2.946   0.999  0.0815  0.0680  0.4003
  283CLA    CLA22343   3.322   1.319   2.080 -0.0475  0.0897 -0.0290
  284CLA    CLA22344   4.938   1.070   0.019 -0.3544 -0.0523 -0.1325
  285CLA    CLA22345   2.356   6.452  15.696 -0.3493 -0.2701 -0.1405
  286CLA    CLA22346   6.084   4.799   2.741 -0.2078  0.1843 -0.2075
  287CLA    CLA22347   5.955   6.310  14.873  0.1050  0.2104  0.3214
  288CLA    CLA22348   3.133   3.589  13.167 -0.0296  0.1717 -0.5806
  289CLA    CLA22349   0.010   2.464   0.371 -0.0806 -0.1796 -0.1930
  290CLA    CLA22350   2.965   1.387   4.716 -0.4430  0.1136  0.0148
  291CLA    CLA22351   1.811   2.505  11.638 -0.2789  0.1642  0.1488
  292CLA    CLA22352   3.559   6.604  15.938  0.1004  0.4769 -0.4278
  293CLA    CLA22353   6.567   1.147  11.636  0.2046  0.1104  0.0956
  294CLA    CLA22354   3.174   3.683   0.923 -0.1491 -0.0781  0.0022
  295CLA    CLA22355   2.952   0.793  16.077 -0.1973 -0.0993  0.3411
  296CLA    CLA22356   3.497   4.364   4.977  0.4851 -0.5231 -0.1170
  297CLA    CLA22357   3.220   1.116   3.638 -0.2743 -0.2181  0.2098
  298CLA    CLA22358   1.106   0.636   1.547  0.2447  0.3767  0.1203
  299CLA    CLA22359   1.714   1.556  16.886  0.2702 -0.0223  0.0848
  300CLA    CLA22360   0.669   1.139   0.604  0.2630  0.4214  0.2474
  301CLA    CLA22361   1.256   1.755  14.614  0.1769  0.3528 -0.1207
  302CLA    CLA22362   2.329   3.751  14.373 -0.3047 -0.0624  0.6874
  303CLA    CLA22363   4.152   2.616  16.535  0.2422 -0.1972  0.3492
  304CLA    CLA22364   6.066   4.298   4.993  0.2145  0.1042 -0.0736
  305CLA    CLA22365   5.366   4.793  15.529 -0.1172  0.4431  0.0094
  306CLA    CLA22366   2.530   6.259  14.897 -0.2464 -0.1400 -0.2028
  307CLA    CLA22367   0.912   5.150  13.175  0.5848 -0.1034  0.5086
  308CLA    CLA22368   1.456   2.413   2.714  0.0970  0.1132 -0.3993
  309CLA    CLA22369   0.183   4.125  15.718  0.0840  0.1806 -0.1148
  310CLA    CLA22370   5.710   5.028  11.782 -0.0850  0.1455 -0.6583
  311CLA    CLA22371   3.765   5.957  13.414 -0.0602 -0.1093  0.2820
  312CLA    CLA22372   6.589   2.536  13.225 -0.1450  0.2306  0.0301
  313CLA    CLA22373   0.547   5.529  13.608 -0.4022  0.2309 -0.5528
  314CLA    CLA22374   5.423   1.866  15.985 -0.2426  0.1899  0.0994
  315CLA    CLA22375   4.137   2.121  14.438  0.1405  0.1453 -0.2113
  316CLA    CLA22376   4.361   0.807  13.614 -0.3870 -0.5408  0.2251
  317CLA    CLA22377   2.986   3.044  13.146 -0.4680  0.1218 -0.0156
  318CLA    CLA22378   5.670   3.866   0.324  0.0003 -0.2322 -0.1497
  319CLA    CLA22379   4.769   2.099  11.593 -0.2224  0.3805 -0.3139
  320CLA    CLA22380   0.687   2.145  14.886 -0.0406  0.1317 -0.1590
  321CLA    CLA22381   5.244   2.050   0.878 -0.0523  0.5257  0.0093
  322CLA    CLA22382   4.068   4.586   1.050 -0.0775  0.2428  0.0544
  323TIP3   OH222383   5.062   6.601  16.318  0.2188 -0.0481 -0.6596
  323TIP3    H122384   4.977   6.628  16.355  0.7786 -0.7617  1.1959
  323TIP3    H222385   5.106   6.684  16.298 -0.7540  0.3326 -1.3085
  324TIP3   OH222386   4.141   0.579   4.626  0.0681  0.0917  0.4654
  324TIP3    H122387   4.055   0.540   4.642 -0.5629  1.6078  0.8048
  324TIP3    H222388   4.133   0.668   4.659  0.6092  1.4053 -2.7994
  325TIP3   OH222389   2.119   4.815  16.903  0.5439  0.1192 -0.0325
  325TIP3    H122390   2.200   4.846  16.943  1.5127 -1.6794 -0.5413
  325TIP3    H222391   2.067   4.783  16.976  0.2154  1.3805  0.3079
  326TIP3   OH222392   1.397   1.117  12.052 -0.1993  0.8795 -0.1930
  326TIP3    H122393   1.379   1.024  12.051  0.2329  0.7447  1.5219
  326TIP3    H222394   1.493   1.123  12.059 -0.2097  1.4413 -0.4799
  327TIP3   OH222395   1.977   6.193   3.363  0.0019  0.0997 -0.1516
  327TIP3    H122396   1.993   6.177   3.270  0.7543  0.3659 -0.0744
  327TIP3    H222397   1.956   6.107   3.399  0.8161 -0.1946 -0.3596
  328TIP3   OH222398   3.719   5.976  14.872 -0.1586 -0.3537 -0.0224
  328TIP3    H122399   3.640   5.954  14.921  0.7861 -0.9910  1.2444
  328TIP3    H222400   3.747   5.893  14.834  1.0940 -0.5633  1.3186
  329TIP3   OH222401   1.343   1.077   4.726  0.1249  0.0744 -0.2743
  329TIP3    H122402   1.373   1.100   4.638  3.7070  1.7324  1.2595
  329TIP3    H222403   1.423   1.056   4.774 -1.6778 -0.1086  2.7865
  330TIP3   OH222404   0.830   2.397  14.081  0.4283  0.5643  0.2860
  330TIP3    H122405   0.886   2.381  14.158  0.8699  0.0605 -0.1361
  330TIP3    H222406   0.883   2.369  14.007  0.2342  1.6218 -0.2659
  331TIP3   OH222407   5.695   4.321   0.478  0.7729 -0.2005 -0.2551
  331TIP3    H122408   5.733   4.258   0.418 -1.2427 -0.7600 -0.9980
  331TIP3    H222409   5.619   4.276   0.515 -2.3878  2.6566 -2.9166
  332TIP3   OH222410   3.040   0.066  13.847 -0.1746 -0.6332  0.2376
  332TIP3    H122411   3.058   0.102  13.760  0.6499 -0.4776  0.4610
  332TIP3    H222412   3.057   0.139  13.906  1.3538 -1.3190  0.6878
  333TIP3   OH222413   1.573   3.900  13.558  0.2163 -0.6955 -0.0551
  333TIP3    H122414   1.629   3.966  13.516 -1.9137  0.4431 -1.1994
  333TIP3    H222415   1.624   3.869  13.633  1.7696  1.3542 -0.2231
  334TIP3   OH222416   0.579   0.808   5.077  0.5399  0.0282  1.1200
  334TIP3    H122417   0.591   0.801   5.172  2.4206 -0.5123  0.8721
  334TIP3    H222418   0.511   0.744   5.057  0.3912 -0.1192  2.0580
  335TIP3   OH222419   0.154   3.907   4.020  0.5596 -0.1313 -0.4990
  335TIP3    H122420   0.209   3.860   4.084  0.8508  0.0107 -0.6464
  335TIP3    H222421   0.207   3.910   3.941  0.1155 -0.4830 -0.8096
  336TIP3   OH222422   5.225   0.086  12.947 -0.1382  0.3113 -1.1863
  336TIP3    H122423   5.273   0.011  12.912 -0.9073 -0.6033 -0.3165
  336TIP3    H222424   5.165   0.111  12.876 -1.5905 -1.4410 -0.6217
  337TIP3   OH222425   5.610   6.435  16.673 -0.0426 -0.2906 -0.0886
  337TIP3    H122426   5.578   6.498  16.738  0.7295 -0.2665  0.2712
  337TIP3    H222427   5.543   6.367  16.671 -1.2631  0.9001 -1.0039
  338TIP3   OH222428   2.540   3.494  12.253 -0.1779 -0.2688 -0.4000
  338TIP3    H122429   2.516   3.450  12.334 -0.0496 -1.4611 -0.9860
  338TIP3    H222430   2.576   3.424  12.198  0.8411  0.7344 -1.0422
  339TIP3   OH222431   6.097   1.065  15.590 -0.3394 -0.1581 -0.0693
  339TIP3    H122432   6.165   1.069  15.523  0.1383 -1.6652  0.2888
  339TIP3    H222433   6.084   0.971  15.604  0.4211  0.1234  2.7725
  340TIP3   OH222434   4.829   2.136  16.947 -0.3111 -0.0878 -0.0246
  340TIP3    H122435   4.768   2.091  17.005 -1.1212  1.0622  0.0287
  340TIP3    H222436   4.863   2.209  16.999  0.5550 -0.2824 -0.2989
  341TIP3   OH222437   6.713   1.924   3.958  0.1353 -0.3078  0.5162
  341TIP3    H122438   6.726   1.980   4.034 -1.0931  1.1780 -0.3351
  341TIP3    H222439   6.651   1.972   3.903  1.7886 -0.8697 -1.9191
  342TIP3   OH222440   1.653   2.197   5.449  0.0422 -0.3057 -0.4394
  342TIP3    H122441   1.651   2.110   5.407 -1.2575 -1.3720  1.7733
  342TIP3    H222442   1.656   2.178   5.542 -0.1032  2.0671  0.0553
  343TIP3   OH222443   5.161   2.462   5.723 -0.7498 -0.0689  0.3425
  343TIP3    H122444   5.167   2.430   5.633 -0.5433  0.5987  0.1153
  343TIP3    H222445   5.191   2.553   5.718 -1.7620  0.3008  0.9046
  344TIP3   OH222446   3.641   3.782  13.698 -0.0815  0.6313  0.0728
  344TIP3    H122447   3.585   3.782  13.620 -0.9061  1.3048  0.6473
  344TIP3    H222448   3.726   3.750  13.668 -0.8526 -0.6778 -0.7619
  345TIP3   OH222449   5.885   5.294   4.542  0.5141  0.2928 -0.0705
  345TIP3    H122450   5.796   5.272   4.511  0.9532 -1.2357 -0.3196
  345TIP3    H222451   5.924   5.343   4.470  0.6695 -1.0835 -0.9435
  346TIP3   OH222452   3.325   2.913  13.321 -0.2493 -0.2814 -0.2705
  346TIP3    H122453   3.273   2.932  13.399  0.4594 -0.4059  0.2449
  346TIP3    H222454   3.415   2.935  13.347  0.1549 -1.4158 -0.6664
  347TIP3   OH222455   5.793   0.962  16.260  0.0275  0.2167  0.2737
  347TIP3    H122456   5.859   0.987  16.196  0.3063  1.3882  1.0072
  347TIP3    H222457   5.840   0.956  16.343 -0.3546 -1.1837  0.3959
  348TIP3   OH222458   3.151   1.052   2.605  0.1899 -0.6105  0.2775
  348TIP3    H122459   3.166   0.963   2.637  1.2466 -0.4725  0.1674
  348TIP3    H222460   3.219   1.066   2.540 -0.0018  0.2640  0.2641
  349TIP3   OH222461   4.340   3.210   3.145  0.2221  0.1378 -0.2609
  349TIP3    H122462   4.375   3.130   3.105 -2.2133 -1.3876  0.4895
  349TIP3    H222463   4.374   3.281   3.091  0.9741 -1.5483 -2.0704
  350TIP3   OH222464   4.664   4.761  10.696  0.1659  0.3830 -0.0920
  350TIP3    H122465   4.610   4.749  10.774  0.5394  0.4477  0.1742
  350TIP3    H222466   4.624   4.835  10.651 -0.3530  0.0331 -0.2234
  351TIP3   OH222467   4.750   4.909  13.591  0.0111  0.8464 -0.1397
  351TIP3    H122468   4.666   4.907  13.545  0.7059 -0.4406 -1.3767
  351TIP3    H222469   4.756   4.998  13.626 -1.5704  1.1467 -0.5900
  352TIP3   OH222470   2.223   4.208   0.825 -0.3120 -0.2248  0.1990
  352TIP3    H122471   2.302   4.158   0.845  1.1137  2.3688  1.2925
  352TIP3    H222472   2.206   4.258   0.905 -3.2107 -0.9043  0.0519
  353TIP3   OH222473   0.423   0.305   4.128 -0.5839 -0.9086 -0.1424
  353TIP3    H122474   0.451   0.289   4.218  0.8066  2.1663  0.0459
  353TIP3    H222475   0.450   0.226   4.080  1.4935 -1.2836  1.5425
  354TIP3   OH222476   5.968   1.616   0.464 -0.3516 -0.4382 -0.0852
  354TIP3    H122477   5.880   1.604   0.499  0.1184 -1.1793  0.8696
  354TIP3    H222478   5.971   1.559   0.387 -0.9510  0.1613 -0.5532
  355TIP3   OH222479   6.628   5.741  15.343  0.1908 -0.3241  0.3085
  355TIP3    H122480   6.580   5.809  15.296 -1.0337 -0.9775  0.5897
  355TIP3    H222481   6.685   5.789  15.403  0.2233  0.4701 -0.3506
  356TIP3   OH222482   5.403   3.229  10.342  0.0967 -0.1031 -0.3406
  356TIP3    H122483   5.343   3.293  10.380  1.5677  1.3540 -0.4426
  356TIP3    H222484   5.484   3.238  10.394  0.6775 -1.1171 -1.0517
  357TIP3   OH222485   4.739   6.769   4.281  0.5805  0.0792  0.2121
  357TIP3    H122486   4.705   6.803   4.364 -1.3346 -1.0605 -0.0920
  357TIP3    H222487   4.671   6.788   4.217  0.4005 -2.3884 -0.3745
  358TIP3   OH222488   1.875   1.741   0.162 -0.2672  0.5676 -0.3970
  358TIP3    H122489   1.959   1.738   0.116 -0.4485  0.1832 -0.7093
  358TIP3    H222490   1.857   1.834   0.173 -0.5890  0.6905 -1.7981
  359TIP3   OH222491   6.786   1.960  15.042 -0.2241 -0.1897 -0.0038
  359TIP3    H122492   6.877   1.929  15.042 -0.1666 -0.0250  0.1811
  359TIP3    H222493   6.736   1.889  15.002  0.1643  0.2512 -1.2745
  360TIP3   OH222494   6.156   4.229  16.051 -0.1410 -0.3407  0.8169
  360TIP3    H122495   6.121   4.317  16.034 -2.1213 -0.9378  1.6302
  360TIP3    H222496   6.250   4.237  16.034 -0.4383  1.6871 -0.0691
  361TIP3   OH222497   4.606   2.550   1.781  0.0321  0.2688 -0.1074
  361TIP3    H122498   4.556   2.536   1.862 -0.1893  2.4036  0.1764
  361TIP3    H222499   4.539   2.566   1.715  0.2566  0.1133 -0.3719
  362TIP3   OH222500   4.248   4.124  13.470 -0.2866  0.2353  0.3249
  362TIP3    H122501   4.197   4.169  13.403 -0.8212 -1.2429 -0.2848
  362TIP3    H222502   4.290   4.052  13.424  0.8217  0.2954  1.2206
  363TIP3   OH222503   6.455   6.565  12.909  0.4720 -0.2469 -0.1100
  363TIP3    H122504   6.430   6.493  12.851 -1.0736  0.4109 -0.2766
  363TIP3    H222505   6.506   6.624  12.853 -0.2756 -0.0466 -0.5930
  364TIP3   OH222506   4.426   0.416   3.660  0.1356 -0.6592 -0.1273
  364TIP3    H122507   4.510   0.404   3.616  0.2762 -0.0701 -0.0196
  364TIP3    H222508   4.363   0.371   3.604  0.5046 -0.9964 -0.2711
  365TIP3   OH222509   5.931   4.457   0.315 -0.0097  0.0624 -0.4375
  365TIP3    H122510   5.989   4.533   0.326 -0.1166  0.1879 -0.7338
  365TIP3    H222511   5.848   4.485   0.354  0.6487 -0.7576  1.6151
  366TIP3   OH222512   2.286   1.850   2.186  0.2954  0.1568  0.0768
  366TIP3    H122513   2.343   1.782   2.222 -0.2098  0.2238  0.9977
  366TIP3    H222514   2.202   1.836   2.229 -0.0187  0.8967 -0.2979
  367TIP3   OH222515   0.511   2.269  11.055  0.7686  0.1859  0.1971
  367TIP3    H122516   0.442   2.301  10.997  0.6995 -0.5634 -0.1391
  367TIP3    H222517   0.512   2.331  11.128 -1.0657 -0.4662  0.8066
  368TIP3   OH222518   0.024   4.535  10.602 -0.0428 -0.2369 -0.0047
  368TIP3    H122519   0.072   4.618  10.607  1.5012 -1.1659  0.9976
  368TIP3    H222520   0.013   4.508  10.693  0.7460 -1.8426 -0.3592
  369TIP3   OH222521   6.048   1.606   5.710  0.3230  0.7528  1.1751
  369TIP3    H122522   6.017   1.689   5.746 -1.6145  1.0216 -0.9997
  369TIP3    H222523   5.985   1.541   5.741 -0.2326  0.6839 -0.0699
  370TIP3   OH222524   4.317   2.585   6.105 -0.3991 -0.1901 -0.1994
  370TIP3    H122525   4.296   2.674   6.076 -1.3286 -0.3632 -0.0829
  370TIP3    H222526   4.409   2.574   6.084 -0.1078  1.0408  0.3850
  371TIP3   OH222527   5.164   1.811  12.408 -0.2734 -0.0202 -0.5082
  371TIP3    H122528   5.133   1.896  12.439 -2.1017 -0.6384 -0.5562
  371TIP3    H222529   5.124   1.801  12.322  1.8665  0.1050 -1.5577
  372TIP3   OH222530   5.008   2.368   6.093 -0.0155  0.0044  0.3390
  372TIP3    H122531   5.051   2.282   6.096 -2.4729 -1.3419 -1.2776
  372TIP3    H222532   5.074   2.428   6.060  1.1836 -1.6273 -0.2496
  373TIP3   OH222533   3.154   4.119   2.161 -0.0736 -0.5125  0.1324
  373TIP3    H122534   3.128   4.095   2.250 -0.5262  0.1412  0.1850
  373TIP3    H222535   3.240   4.079   2.150 -1.0024 -2.5381  0.0254
  374TIP3   OH222536   2.349   1.185   3.210 -0.0712 -0.3798  0.0633
  374TIP3    H122537   2.383   1.274   3.217  0.4083 -0.5805  0.2913
  374TIP3    H222538   2.260   1.191   3.246  0.3305 -0.2021  1.0562
  375TIP3   OH222539   4.336   5.699   1.454  0.1166 -1.0792  0.0768
  375TIP3    H122540   4.267   5.659   1.402  0.8216 -2.8976  0.4915
  375TIP3    H222541   4.389   5.748   1.390 -1.9827  1.0307 -0.1218
  376TIP3   OH222542   5.713   0.150   0.420  0.1494 -0.1672  0.5872
  376TIP3    H122543   5.629   0.104   0.416  0.1492 -0.2105  1.0762
  376TIP3    H222544   5.691   0.241   0.404  0.2747 -0.4692 -1.4197
  377TIP3   OH222545   6.013   2.798  11.071 -0.0277  0.1778 -0.0023
  377TIP3    H122546   5.935   2.850  11.057  0.0109  0.3007  0.2319
  377TIP3    H222547   6.000   2.757  11.157  0.8393  1.4122  0.7507
  378TIP3   OH222548   5.394   0.243   1.589  0.5757  0.3991  0.0467
  378TIP3    H122549   5.325   0.280   1.535  0.7656  0.1474 -0.3766
  378TIP3    H222550   5.453   0.316   1.607  2.0862 -0.1041 -2.5621
  379TIP3   OH222551   1.243   1.269  13.760 -0.4750 -0.3597  0.0625
  379TIP3    H122552   1.245   1.361  13.734  0.9840  0.0650  1.6089
  379TIP3    H222553   1.269   1.221  13.681  0.5716  0.6864 -0.2379
  380TIP3   OH222554   2.326   0.622   5.274  0.0696 -0.3750  0.3983
  380TIP3    H122555   2.292   0.700   5.230 -2.6154 -1.0128  1.2670
  380TIP3    H222556   2.419   0.621   5.251  0.1742  3.0723  0.3586
  381TIP3   OH222557   0.880   0.559  12.099 -0.2869 -0.0277  0.2582
  381TIP3    H122558   0.865   0.466  12.084 -0.6984  0.2372 -1.0650
  381TIP3    H222559   0.809   0.586  12.158 -0.2646 -0.5167  0.5099
  382TIP3   OH222560   0.937   2.174   4.347  0.1019 -0.0293  0.3138
  382TIP3    H122561   1.017   2.189   4.297 -1.1105 -1.4635 -2.1110
  382TIP3    H222562   0.889   2.108   4.297 -1.7118 -0.6287  2.7524
  383TIP3   OH222563   3.889   2.890   4.457  0.0367  0.2973 -0.5185
  383TIP3    H122564   3.951   2.963   4.468  1.1279 -1.0778  3.2894
  383TIP3    H222565   3.806   2.924   4.492 -0.1288  0.5016 -1.0916
  384TIP3   OH222566   1.857   3.994  17.050  0.4009  0.0786 -0.0768
  384TIP3    H122567   1.930   4.042  17.011  0.5200 -0.0987 -0.0779
  384TIP3    H222568   1.853   3.913  16.999 -1.0418  0.9300 -1.3441
  385TIP3   OH222569   1.640   4.149  17.000  0.0622 -0.1022  0.1967
  385TIP3    H122570   1.685   4.064  17.009 -1.0191 -0.6173  0.8960
  385TIP3    H222571   1.695   4.199  16.939  0.3694 -1.5419 -0.7405
  386TIP3   OH222572   6.305   1.331   0.646  0.1597 -0.0074 -0.0631
  386TIP3    H122573   6.343   1.400   0.700 -1.4495  0.1503  0.8790
  386TIP3    H222574   6.375   1.307   0.586  2.1673 -0.5824  2.4419
  387TIP3   OH222575   0.785   6.280  15.632  0.4636 -0.1479 -0.3082
  387TIP3    H122576   0.868   6.319  15.658  0.5490 -0.7875  0.4146
  387TIP3    H222577   0.809   6.209  15.572  0.4596 -0.5247  0.1359
  388TIP3   OH222578   0.274   6.357  14.083 -0.2510  0.4636  0.3995
  388TIP3    H122579   0.180   6.363  14.098 -0.1507 -1.5753  2.0536
  388TIP3    H222580   0.313   6.392  14.163  0.4234  1.5196 -0.3753
  389TIP3   OH222581   5.192   3.756   3.655  0.0425  0.1842  0.2419
  389TIP3    H122582   5.127   3.686   3.653 -1.3760  1.5006 -3.0319
  389TIP3    H222583   5.175   3.801   3.738 -2.2369 -0.4454  0.1682
  390TIP3   OH222584   0.731   3.297   1.387 -0.1741 -0.3267 -0.6356
  390TIP3    H122585   0.802   3.357   1.365  0.7189 -0.7817  0.9241
  390TIP3    H222586   0.678   3.344   1.451 -0.9759 -0.2116 -1.3680
  391TIP3   OH222587   5.738   0.045  12.191  0.0921 -0.0562 -0.5694
  391TIP3    H122588   5.750  -0.047  12.170 -0.2070 -0.8428  2.4054
  391TIP3    H222589   5.826   0.076  12.214 -0.1460 -0.2165  0.6008
  392TIP3   OH222590   2.268   5.526   1.359  0.7889 -0.4523 -0.1701
  392TIP3    H122591   2.333   5.594   1.343  0.8143 -0.8234 -1.7320
  392TIP3    H222592   2.186   5.574   1.372  1.3814  0.0306  2.0596
  393TIP3   OH222593   3.394   3.860  12.633 -0.3938 -0.4441  0.1356
  393TIP3    H122594   3.317   3.917  12.629  0.1676  0.2286 -1.0426
  393TIP3    H222595   3.386   3.802  12.557  0.0740 -0.6273  0.2211
  394TIP3   OH222596   3.536   4.191   0.008  0.5147 -0.5027  0.2054
  394TIP3    H122597   3.463   4.202   0.069  0.7641 -2.5778  0.9035
  394TIP3    H222598   3.501   4.133  -0.060  0.4306  1.3053 -1.3518
  395TIP3   OH222599   0.575   1.650   0.572  0.5728 -0.2033 -0.0200
  395TIP3    H122600   0.576   1.595   0.494 -1.1312  0.8614 -0.8118
  395TIP3    H222601   0.622   1.730   0.546 -1.5513  0.9138 -0.5710
  396TIP3   OH222602   0.157   5.648  11.709  0.1987 -0.1473  0.0193
  396TIP3    H122603   0.225   5.696  11.663  0.2560 -0.4391 -0.2007
  396TIP3    H222604   0.079   5.657  11.654  0.1633 -0.1486  0.0702
  397TIP3   OH222605   1.262   4.689  16.320  0.3905 -0.1201  0.2660
  397TIP3    H122606   1.332   4.752  16.305  0.9614 -1.0077 -0.8113
  397TIP3    H222607   1.285   4.649  16.404  0.2106  0.8429  0.7871
  398TIP3   OH222608   2.160   2.263  16.116 -0.3453 -0.5468 -0.1616
  398TIP3    H122609   2.163   2.200  16.188 -0.0902 -0.7383 -0.3399
  398TIP3    H222610   2.112   2.218  16.047 -0.6589 -0.3343 -0.0891
  399TIP3   OH222611   6.317   4.192   5.185 -0.3360 -0.1807 -0.1377
  399TIP3    H122612   6.325   4.256   5.256  0.8997  1.3437 -1.5906
  399TIP3    H222613   6.227   4.201   5.154 -0.4982  0.0391  0.3841
  400TIP3   OH222614   0.935   6.402   1.724  0.3872 -0.5586  0.2206
  400TIP3    H122615   0.997   6.445   1.665  1.1998  0.3054  1.6655
  400TIP3    H222616   0.930   6.461   1.799 -0.8074 -1.5293  0.9091
  401TIP3   OH222617   3.006   4.256  12.783  0.4003 -0.2592 -0.4078
  401TIP3    H122618   3.088   4.215  12.810  0.8737 -0.0096 -1.4303
  401TIP3    H222619   2.945   4.184  12.768  0.6075 -0.4754 -0.1953
  402TIP3   OH222620   3.665   1.526   4.091  0.2649 -0.0195 -0.0332
  402TIP3    H122621   3.597   1.545   4.156 -1.8110 -2.1260 -1.5230
  402TIP3    H222622   3.748   1.537   4.139 -1.1360  0.9420  2.2601
  403TIP3   OH222623   1.369   4.337   2.975 -0.6029 -0.5511  0.3222
  403TIP3    H122624   1.355   4.357   2.882 -1.2959 -0.8078  0.3683
  403TIP3    H222625   1.324   4.254   2.988 -1.2861 -0.0718  1.0980
  404TIP3   OH222626   4.955   0.868  10.449 -0.2504 -0.0673  0.1574
  404TIP3    H122627   4.957   0.828  10.536 -0.6031  0.6922  0.5231
  404TIP3    H222628   4.867   0.851  10.417  0.3399 -1.6574 -0.6907
  405TIP3   OH222629   3.170   2.513   4.749  0.0942 -0.7273 -0.1598
  405TIP3    H122630   3.232   2.574   4.710  0.0468 -0.5598  0.0276
  405TIP3    H222631   3.120   2.479   4.675  0.1255 -0.5453 -0.2637
  406TIP3   OH222632   2.967   4.160   0.724  0.0315  0.2732  0.3904
  406TIP3    H122633   2.993   4.114   0.803 -0.0545  2.3450  1.6676
  406TIP3    H222634   2.874   4.180   0.737 -0.3299 -0.5372 -0.8402
  407TIP3   OH222635   2.219   4.541  16.252 -0.1008  0.5239  0.3766
  407TIP3    H122636   2.157   4.610  16.277 -0.1027  0.7546 -0.2450
  407TIP3    H222637   2.190   4.464  16.300 -2.4606 -0.0636 -1.8814
  408TIP3   OH222638   1.784   3.403   5.396  0.2821  0.3332 -0.3211
  408TIP3    H122639   1.706   3.445   5.432 -0.7660 -0.6021 -1.4715
  408TIP3    H222640   1.750   3.338   5.335  1.9749  0.2098 -1.1455
  409TIP3   OH222641   5.459   4.587   1.714  0.6019  0.1769  0.0083
  409TIP3    H122642   5.447   4.645   1.639 -0.6667  0.3717  0.3558
  409TIP3    H222643   5.373   4.545   1.725  0.7767  0.1751  1.3728
  410TIP3   OH222644   4.647   3.689  10.188 -0.2659 -0.0148  0.3692
  410TIP3    H122645   4.728   3.712  10.143  0.9272 -2.1313  1.3426
  410TIP3    H222646   4.638   3.594  10.174 -1.0059 -0.3241  2.7676
  411TIP3   OH222647   5.739   1.469  14.426 -0.0514 -0.0064  0.4485
  411TIP3    H122648   5.715   1.426  14.345 -0.5708 -0.9900  1.1169
  411TIP3    H222649   5.656   1.485  14.471  0.3944 -1.8131  1.9605
  412TIP3   OH222650   2.582   4.911   1.887  0.9394  0.3321  0.0723
  412TIP3    H122651   2.571   4.989   1.941  0.2417  0.9329 -0.9145
  412TIP3    H222652   2.528   4.844   1.928  0.0616  0.9154 -0.1298
  413TIP3   OH222653   3.585   5.516  14.862 -0.7388  0.1379 -0.0056
  413TIP3    H122654   3.567   5.428  14.894 -0.3776  0.1931  0.3581
  413TIP3    H222655   3.518   5.532  14.796 -3.3790  1.1463  2.7828
  414TIP3   OH222656   5.369   1.711  16.706 -0.2147 -0.0472  0.1093
  414TIP3    H122657   5.326   1.720  16.621 -0.7917 -0.8841  0.3145
  414TIP3    H222658   5.379   1.801  16.737  0.0330  0.2647 -0.8579
  415TIP3   OH222659   3.427   2.718   1.428 -0.2940  0.5429 -0.1628
  415TIP3    H122660   3.393   2.721   1.339 -0.0543  1.6392 -0.2186
  415TIP3    H222661   3.522   2.710   1.418 -0.3965 -1.0647 -0.0013
  416TIP3   OH222662   0.582   0.872   0.681 -0.2171  0.7101  0.3423
  416TIP3    H122663   0.491   0.895   0.702 -0.6766  0.2504 -1.0511
  416TIP3    H222664   0.622   0.955   0.655 -0.3666  0.8331  0.5027
  417TIP3   OH222665   0.272   0.537  13.721 -0.0905  0.5256  0.5219
  417TIP3    H122666   0.317   0.495  13.648 -0.0442 -0.6079  1.2026
  417TIP3    H222667   0.334   0.604  13.751  0.7117 -0.3146  0.7701
  418TIP3   OH222668   2.204   5.688  11.354 -0.1012 -0.3722 -0.2307
  418TIP3    H122669   2.164   5.770  11.382 -0.6941 -1.4441  2.2176
  418TIP3    H222670   2.210   5.695  11.258 -2.5346  1.4326 -0.2857
  419TIP3   OH222671   0.027   4.751   1.335 -0.0039  0.3004 -0.1501
  419TIP3    H122672   0.092   4.682   1.321  0.1781  0.5973 -0.8235
  419TIP3    H222673  -0.052   4.705   1.362  0.3525 -0.1017  0.2210
  420TIP3   OH222674   0.986   3.666   2.479  0.2782 -0.5639 -0.2859
  420TIP3    H122675   1.074   3.639   2.453  0.1187  1.0427 -2.6367
  420TIP3    H222676   0.997   3.702   2.567  2.4241  1.6628 -1.3920
  421TIP3   OH222677   5.840   1.549  12.648  0.8035 -0.2237  0.3572
  421TIP3    H122678   5.879   1.464  12.664 -1.2607 -1.5677 -1.3520
  421TIP3    H222679   5.900   1.612  12.687  1.2479 -2.5821  3.6361
  422TIP3   OH222680   1.425   2.548  11.101 -0.0047  0.1650 -0.2790
  422TIP3    H122681   1.395   2.465  11.065 -2.7342  0.1991  1.7413
  422TIP3    H222682   1.501   2.525  11.155 -2.0524 -1.4329  2.0440
  423TIP3   OH222683   3.138   2.107   3.257 -0.0136  0.0306  0.2964
  423TIP3    H122684   3.182   2.075   3.336  0.4373 -0.4302 -0.1329
  423TIP3    H222685   3.069   2.166   3.289 -0.9308 -1.4574  1.1124
  424TIP3   OH222686   2.844   3.766   3.432  0.5708  0.4834 -0.2046
  424TIP3    H122687   2.821   3.752   3.340  0.2979  0.4036 -0.1235
  424TIP3    H222688   2.931   3.806   3.428  0.2211  1.2363 -0.5302
  425TIP3   OH222689   2.930   6.347  14.291 -0.3077 -0.3860  0.4307
  425TIP3    H122690   2.839   6.348  14.323  0.7106 -0.1253  3.4802
  425TIP3    H222691   2.944   6.435  14.257 -0.2274  0.6067  2.9539
  426TIP3   OH222692   1.111   6.059  14.662 -0.8876  0.8441  0.2657
  426TIP3    H122693   1.163   6.109  14.599 -2.3890  0.7187 -1.1037
  426TIP3    H222694   1.099   5.974  14.621  1.3086 -0.5730  2.4185
  427TIP3   OH222695   1.162   2.746   2.376 -0.2451  0.4611 -0.0272
  427TIP3    H122696   1.228   2.683   2.406 -0.9496 -1.6977 -2.7184
  427TIP3    H222697   1.079   2.710   2.405 -0.4678  1.7276  0.9533
  428TIP3   OH222698   6.594   6.627   3.924 -0.1416 -0.4938  0.3705
  428TIP3    H122699   6.672   6.669   3.887 -0.9409  1.0101  0.3373
  428TIP3    H222700   6.603   6.638   4.018 -0.4253 -0.0770  0.3540
  429TIP3   OH222701   5.473   4.530  14.777 -0.2834 -0.2648  0.0079
  429TIP3    H122702   5.486   4.545  14.871  3.6058 -2.1200 -0.1570
  429TIP3    H222703   5.400   4.469  14.773 -1.1577  0.6242  1.7588
  430TIP3   OH222704   1.268   5.125  15.588  0.2282  0.2242 -0.5845
  430TIP3    H122705   1.178   5.127  15.620 -0.4574 -0.1709 -2.4077
  430TIP3    H222706   1.321   5.104  15.665 -1.3978 -1.2290  0.1570
  431TIP3   OH222707   3.514   4.759  15.747 -0.4896  0.2594 -0.1549
  431TIP3    H122708   3.475   4.699  15.683  1.3998  0.4960 -1.5902
  431TIP3    H222709   3.444   4.776  15.809 -1.6607 -1.8804 -0.8175
  432TIP3   OH222710   4.761   4.771   3.372  0.0813  0.3803 -0.3942
  432TIP3    H122711   4.825   4.704   3.349  1.0100  0.4319  1.9246
  432TIP3    H222712   4.748   4.760   3.466 -2.1746  1.3740 -0.5602
  433TIP3   OH222713   1.324   4.845   4.006 -0.0813 -0.0924 -0.3461
  433TIP3    H122714   1.261   4.916   3.994 -1.3934 -0.7022  2.5310
  433TIP3    H222715   1.276   4.766   3.981 -0.4564 -0.5451  1.7282
  434TIP3   OH222716   1.381   1.606  12.558  0.3082 -0.3432 -0.2267
  434TIP3    H122717   1.349   1.587  12.471 -0.8601  2.0211 -0.3524
  434TIP3    H222718   1.340   1.690  12.582  2.0673  0.0042  1.8149
  435TIP3   OH222719   0.428   6.579   6.815 -0.3135  0.0350 -0.0060
  435TIP3    H122720   0.516   6.549   6.791 -0.6769 -1.6253  0.6679
  435TIP3    H222721   0.373   6.551   6.741 -0.5314 -0.3227  0.2901
  436TIP3   OH222722   4.197   4.742  14.440  0.5646  1.0265 -0.3952
  436TIP3    H122723   4.282   4.784  14.427  1.2018 -0.8246 -2.4787
  436TIP3    H222724   4.176   4.704  14.355 -1.6950  0.2410  0.4861
  437TIP3   OH222725   3.538   4.111  13.846 -0.3873 -0.1611  0.0577
  437TIP3    H122726   3.458   4.064  13.821 -1.5746  1.0933  1.3458
  437TIP3    H222727   3.531   4.120  13.941  1.3336 -0.0902  0.1852
  438TIP3   OH222728   4.344   2.722  14.664  0.4844  0.0912  0.7171
  438TIP3    H122729   4.281   2.789  14.691  0.7302  0.4722  0.3551
  438TIP3    H222730   4.407   2.718  14.736  1.6837  1.7957 -0.1881
  439TIP3   OH222731   3.075   3.558  16.907  0.3534 -0.3626 -0.2609
  439TIP3    H122732   3.163   3.579  16.938  0.5328 -0.4017 -0.7419
  439TIP3    H222733   3.045   3.638  16.863  0.4062 -0.5726 -0.6768
  440TIP3   OH222734   4.168   0.294  14.634  0.6475 -0.1649  0.1851
  440TIP3    H122735   4.206   0.210  14.606 -0.4063 -0.4400 -0.4599
  440TIP3    H222736   4.243   0.344  14.667  1.3436 -1.2331  0.2753
  441TIP3   OH222737   0.910   4.301   5.930 -0.6419  0.1208 -0.3476
  441TIP3    H122738   0.892   4.380   5.880 -0.4684  0.9499  0.8746
  441TIP3    H222739   0.998   4.275   5.904 -0.3989  0.7734 -0.1926
  442TIP3   OH222740   1.699   2.465   2.565 -0.4055  0.3303 -0.2720
  442TIP3    H122741   1.627   2.460   2.628  0.4944 -2.0879  0.6154
  442TIP3    H222742   1.775   2.490   2.618 -0.4078  2.1503 -1.0848
  443TIP3   OH222743   3.225   6.275  11.265 -0.2718  0.1075 -0.2683
  443TIP3    H122744   3.302   6.226  11.235  0.0313  0.2353  0.3059
  443TIP3    H222745   3.237   6.363  11.229  0.1123  0.2720  0.2479
  444TIP3   OH222746   6.544   4.621  13.784  0.1441  0.2770  0.2412
  444TIP3    H122747   6.520   4.573  13.864  1.3267 -3.8320 -1.7457
  444TIP3    H222748   6.629   4.661  13.806 -0.4515  0.8034  1.6681
  445TIP3   OH222749   1.866   0.743   4.684 -0.2679  0.8752  0.5272
  445TIP3    H122750   1.881   0.667   4.628 -0.4855  2.6487 -2.0084
  445TIP3    H222751   1.954   0.769   4.712  0.0547  1.2603 -0.7820
  446TIP3   OH222752   4.800   5.220   1.502 -0.1741 -0.2476  0.5886
  446TIP3    H122753   4.846   5.195   1.582  0.2750  0.4168  0.5452
  446TIP3    H222754   4.820   5.150   1.440 -1.8143 -1.5701  1.5316
  447TIP3   OH222755   4.207   0.732   2.538  0.7731  0.4781  0.2078
  447TIP3    H122756   4.182   0.792   2.467  0.1447 -0.5535 -0.4507
  447TIP3    H222757   4.220   0.648   2.495  2.4670  0.3111  1.0099
  448TIP3   OH222758   6.058   0.251  13.088  0.5892  0.7109  0.6288
  448TIP3    H122759   6.153   0.250  13.079  0.8799  3.2388  2.6351
  448TIP3    H222760   6.032   0.338  13.055 -0.8773  0.5272  1.2613
  449TIP3   OH222761   4.887   1.804   5.232 -0.0097 -0.0553  0.3477
  449TIP3    H122762   4.971   1.843   5.258  0.0272  1.8609 -2.3915
  449TIP3    H222763   4.822   1.845   5.289  0.3783  2.0216 -0.6508
  450TIP3   OH222764   1.365   6.102   4.771  0.1009 -0.1761 -0.0609
  450TIP3    H122765   1.357   6.077   4.679 -0.9372  1.2669 -0.3852
  450TIP3    H222766   1.449   6.065   4.799  0.1431 -1.1469 -1.4048
  451TIP3   OH222767   3.274   5.560   1.224 -0.0924  0.0217 -0.5215
  451TIP3    H122768   3.323   5.488   1.185  0.8223  0.9942 -1.1881
  451TIP3    H222769   3.298   5.557   1.317  2.9404  1.7835 -1.1740
  452TIP3   OH222770   6.356   1.592   6.434 -0.1764 -0.7804 -0.2313
  452TIP3    H122771   6.275   1.643   6.432 -0.5673 -1.3359  1.0380
  452TIP3    H222772   6.347   1.535   6.510  1.6515 -0.4545  0.2623
  453TIP3   OH222773   4.674   1.477  17.131 -0.2116  0.0255  0.5345
  453TIP3    H122774   4.684   1.443  17.042  0.3831  0.7229  0.3335
  453TIP3    H222775   4.695   1.402  17.187 -0.7071 -0.4481  0.0964
  454TIP3   OH222776   5.633   1.671   5.872  0.0827 -0.6157  0.2270
  454TIP3    H122777   5.541   1.673   5.897 -0.3298  1.2271 -1.2849
  454TIP3    H222778   5.645   1.749   5.818  2.3443 -1.2619 -0.2793
  455TIP3   OH222779   3.374   6.153   0.430  0.2612 -0.2617 -0.4994
  455TIP3    H122780   3.460   6.173   0.392  1.2342  0.0558  1.7700
  455TIP3    H222781   3.339   6.239   0.456 -0.8734 -0.3640 -1.6928
  456TIP3   OH222782   5.738   4.257  16.588 -0.6735 -0.4185 -0.1303
  456TIP3    H122783   5.693   4.317  16.647 -1.4104  0.5256 -1.6155
  456TIP3    H222784   5.807   4.218  16.641 -1.6527 -0.0027  1.4961
  457TIP3   OH222785   3.750   3.670  12.961  0.6438  0.0804 -0.4619
  457TIP3    H122786   3.753   3.765  12.963 -1.5357  0.1600  0.1362
  457TIP3    H222787   3.662   3.649  12.928  0.9441 -1.7263 -0.1894
  458TIP3   OH222788   5.182   0.641  14.601 -0.8878  0.0054 -0.7930
  458TIP3    H122789   5.232   0.618  14.680 -2.2622  1.9700  0.7038
  458TIP3    H222790   5.100   0.677  14.635 -2.0905 -0.4312 -3.1719
  459TIP3   OH222791   2.916   0.016   3.089 -0.3468  0.0387  0.9689
  459TIP3    H122792   2.887  -0.075   3.076 -2.4744  0.8461 -0.3633
  459TIP3    H222793   3.003   0.019   3.050 -0.6610 -1.2164  0.1170
  460TIP3   OH222794   4.512   4.279  11.511  0.4713 -0.0630 -0.0776
  460TIP3    H122795   4.475   4.191  11.519  2.2540 -0.8269 -0.0975
  460TIP3    H222796   4.436   4.335  11.494 -0.7826 -1.4664  0.7605
  461TIP3   OH222797   3.316   2.443   4.341 -0.2056 -0.1333 -0.1697
  461TIP3    H122798   3.239   2.499   4.335  1.1909  1.7280 -1.1482
  461TIP3    H222799   3.280   2.356   4.360 -2.4064  1.0446  1.3904
  462TIP3   OH222800   5.409   5.103   0.818  0.4056  0.2130  0.0762
  462TIP3    H122801   5.434   5.107   0.726 -1.4094  0.3766 -0.4347
  462TIP3    H222802   5.411   5.194   0.847  1.0741  0.1504  0.2252
  463TIP3   OH222803   6.426   5.815  11.523 -0.4092  0.2221 -0.5488
  463TIP3    H122804   6.517   5.838  11.505 -0.6404  2.6856  1.1529
  463TIP3    H222805   6.427   5.720  11.536  2.0248  0.3100  0.0931
  464TIP3   OH222806   1.532   4.729  10.163 -0.4070  0.6903 -0.6699
  464TIP3    H122807   1.504   4.727  10.254 -1.6824 -2.3258 -1.0411
  464TIP3    H222808   1.627   4.737  10.166 -0.5288  1.6935  0.8748
  465TIP3   OH222809   5.777   0.243  13.086  0.1612  0.0385 -0.5071
  465TIP3    H122810   5.738   0.323  13.122 -0.8239  0.0904 -1.6575
  465TIP3    H222811   5.868   0.265  13.070  0.2771  0.4402  0.6357
  466TIP3   OH222812   3.994   3.055  16.068  0.5852  0.0867 -0.0434
  466TIP3    H122813   4.074   3.011  16.039  0.1675 -0.6252 -0.1325
  466TIP3    H222814   4.008   3.147  16.047  1.2641 -0.0770 -0.3228
  467TIP3   OH222815   3.961   0.560   0.469 -0.1803 -0.1966 -0.3163
  467TIP3    H122816   4.051   0.526   0.469  0.4352  1.4049 -0.7496
  467TIP3    H222817   3.912   0.497   0.522  1.2809 -0.8695  0.2697
  468TIP3   OH222818   0.595   4.451   1.527  0.1555 -0.0168 -0.0071
  468TIP3    H122819   0.503   4.475   1.541  0.1480  0.3287 -0.6348
  468TIP3    H222820   0.632   4.447   1.615  0.1967  2.4178  0.1134
  469TIP3   OH222821   0.353   5.244   1.879 -0.0904 -0.1262 -0.7831
  469TIP3    H122822   0.355   5.298   1.800 -1.4555 -0.0119 -0.7534
  469TIP3    H222823   0.344   5.307   1.951 -1.7713 -0.3730 -0.7555
  470TIP3   OH222824   3.665   3.383  12.826  0.3196 -0.0199 -0.6557
  470TIP3    H122825   3.672   3.444  12.753  0.5636  0.4890 -0.2050
  470TIP3    H222826   3.581   3.403  12.867  0.3968  0.0156 -0.5121
  471TIP3   OH222827   5.931   5.587  11.873 -0.0439  0.1674  0.7879
  471TIP3    H122828   5.878   5.527  11.927  0.8609 -3.1268 -1.8041
  471TIP3    H222829   6.009   5.603  11.925 -0.0190 -1.4303  1.2740
  472TIP3   OH222830   5.415   2.473  16.080  0.2500  0.0287 -0.3537
  472TIP3    H122831   5.362   2.407  16.123  2.4932 -0.7281  1.3575
  472TIP3    H222832   5.483   2.423  16.033  2.4005  1.0535  1.5412
  473TIP3   OH222833   5.931   1.045  13.170 -0.0765 -0.1259 -0.2460
  473TIP3    H122834   6.001   1.028  13.232  0.1699 -0.0090 -0.4890
  473TIP3    H222835   5.851   1.049  13.224 -0.1627 -2.1547 -0.2069
  474TIP3   OH222836   5.394   6.088   5.165  0.1431  0.3809  0.0390
  474TIP3    H122837   5.308   6.128   5.161 -0.4102 -0.8375 -0.3826
  474TIP3    H222838   5.452   6.159   5.192 -1.3395  0.6744  2.6086
  475TIP3   OH222839   0.928   3.016   5.786 -0.3663  0.2162 -0.2615
  475TIP3    H122840   0.927   3.112   5.792  0.8375  0.2794 -0.8512
  475TIP3    H222841   0.847   2.995   5.739 -0.5303  0.9570 -0.3267
  476TIP3   OH222842   2.862   6.114   1.146  0.8721 -0.2115 -0.3348
  476TIP3    H122843   2.778   6.132   1.104  0.7711 -0.3861 -0.2089
  476TIP3    H222844   2.863   6.019   1.158  1.2438 -0.2498 -0.6663
  477TIP3   OH222845   1.405   4.897   3.472  0.2958 -0.2003  0.7352
  477TIP3    H122846   1.351   4.933   3.543 -0.3831  1.0703 -0.3796
  477TIP3    H222847   1.407   4.967   3.407  0.8393 -1.3686 -0.5257
  478TIP3   OH222848   5.231   3.455  16.467  0.1547 -0.4191  0.1360
  478TIP3    H122849   5.271   3.372  16.493 -1.3152 -1.0240  0.5264
  478TIP3    H222850   5.171   3.476  16.539 -1.4465 -0.3772 -1.1828
  479TIP3   OH222851   6.351   6.048  16.171 -0.0068  0.4915  0.0139
  479TIP3    H122852   6.387   6.105  16.102 -0.6535  0.5298 -0.2946
  479TIP3    H222853   6.352   5.961  16.133  0.3685  0.3924  0.2473
  480TIP3   OH222854   2.611   1.087  15.730 -0.1756 -0.3448 -0.5029
  480TIP3    H122855   2.649   1.030  15.663  0.1724  0.0009 -0.6027
  480TIP3    H222856   2.680   1.096  15.796  0.7920  2.0632 -1.7345
  481TIP3   OH222857   3.282   1.737  12.664  0.3751  0.0666  0.1401
  481TIP3    H122858   3.276   1.830  12.645  1.2354 -0.3437 -2.4147
  481TIP3    H222859   3.194   1.712  12.692 -0.6584  1.0612 -2.0847
  482TIP3   OH222860   2.998   0.798   0.286 -0.7275 -0.4213 -0.3343
  482TIP3    H122861   2.982   0.742   0.210 -1.8939  1.4287 -1.5201
  482TIP3    H222862   2.923   0.858   0.288 -0.1519  0.2893  1.6179
  483TIP3   OH222863   3.181   4.260  14.190 -0.1658 -0.3646 -0.6393
  483TIP3    H122864   3.124   4.185  14.174  0.3756 -1.4719  2.3642
  483TIP3    H222865   3.121   4.335  14.195 -1.1179 -1.1576  0.0067
  484TIP3   OH222866   3.437   4.964  12.680 -0.1450 -0.2742 -0.0414
  484TIP3    H122867   3.519   4.925  12.710  0.1949  0.2975 -0.2269
  484TIP3    H222868   3.371   4.929  12.740  0.5406  0.9190  1.4756
  485TIP3   OH222869   5.755   4.429   2.040 -0.1445 -0.0702  0.5892
  485TIP3    H122870   5.776   4.469   2.124  1.3295 -1.6616  1.0039
  485TIP3    H222871   5.738   4.337   2.060 -2.3918  0.0816 -0.5040
  486TIP3   OH222872   1.557   5.505   0.323  0.0633 -0.4952 -0.7327
  486TIP3    H122873   1.491   5.518   0.256  0.5210 -0.8781 -1.2572
  486TIP3    H222874   1.508   5.474   0.399 -0.4550 -0.0372 -0.8749
  487TIP3   OH222875   4.070   1.803  16.646 -0.3329 -0.5934  0.3787
  487TIP3    H122876   4.078   1.756  16.729  0.1791  0.8320  1.1610
  487TIP3    H222877   4.157   1.800  16.607  0.2301  1.3913  1.3920
  488TIP3   OH222878   2.982   5.224  13.451 -0.4796  0.3002 -0.2157
  488TIP3    H122879   3.065   5.235  13.499  0.4941 -0.1935 -1.7319
  488TIP3    H222880   2.974   5.129  13.440 -1.2155  0.3554 -0.1587
  489TIP3   OH222881   0.499   6.190  15.701 -0.3060  0.4258  0.2176
  489TIP3    H122882   0.589   6.162  15.716 -0.8865 -0.4103  2.3956
  489TIP3    H222883   0.484   6.175  15.607  0.9771 -1.9583  0.3621
  490TIP3   OH222884   1.276   5.746  14.246 -0.2626  0.5405 -0.2986
  490TIP3    H122885   1.233   5.661  14.255  0.0557  0.3862 -0.2324
  490TIP3    H222886   1.221   5.795  14.185 -0.2438  0.1575 -0.6250
  491TIP3   OH222887   4.872   1.807  13.739 -0.1938  0.3327 -0.6506
  491TIP3    H122888   4.935   1.879  13.728 -1.6792  1.6612 -0.5994
  491TIP3    H222889   4.852   1.779  13.650 -0.2599  0.5541 -0.7061
  492TIP3   OH222890   0.869   0.231  14.802  0.5064 -0.2760 -0.1566
  492TIP3    H122891   0.867   0.218  14.897  1.2822  1.6995  0.1519
  492TIP3    H222892   0.811   0.306  14.787  1.1890  0.0747 -1.1232
  493TIP3   OH222893   1.958   0.454   4.398 -0.2750  0.0003  0.3074
  493TIP3    H122894   1.993   0.365   4.394  1.6434  0.7217  0.7587
  493TIP3    H222895   2.001   0.493   4.474 -1.1078  1.3168  0.1159
  494TIP3   OH222896   4.493   5.064  16.088 -0.8140  0.6480 -0.2532
  494TIP3    H122897   4.517   5.032  16.175 -0.3184 -1.6145 -1.1804
  494TIP3    H222898   4.400   5.046  16.080 -0.6452 -0.1058 -0.5734
  495TIP3   OH222899   3.843   5.368  13.364  0.4819  0.3218  0.3745
  495TIP3    H122900   3.887   5.429  13.304 -1.5853  0.9960 -0.4871
  495TIP3    H222901   3.764   5.414  13.392  0.3852 -0.8155  2.0335
  496TIP3   OH222902   3.915   6.564   6.911  0.1977  0.6154 -0.3673
  496TIP3    H122903   3.842   6.590   6.855  0.7988  0.7082 -1.1074
  496TIP3    H222904   3.891   6.477   6.943 -0.3913  0.7846 -0.3425
  497TIP3   OH222905   5.253   5.891   3.493  0.4176 -0.2279 -0.2644
  497TIP3    H122906   5.285   5.969   3.537  0.9631 -0.8098  0.3848
  497TIP3    H222907   5.245   5.916   3.401 -2.8322  1.6916  0.4485
  498TIP3   OH222908   6.264   4.310  16.843  0.3170  0.1095  0.1983
  498TIP3    H122909   6.287   4.399  16.869  1.6367 -0.1913  0.0982
  498TIP3    H222910   6.195   4.322  16.777 -0.9084  0.9703  1.6023
  499TIP3   OH222911   1.002   6.420  12.013  0.2300 -0.3317 -0.5429
  499TIP3    H122912   0.936   6.403  11.946  1.2529 -3.1821 -0.9013
  499TIP3    H222913   0.952   6.444  12.091 -1.1365 -0.7872 -1.2659
  500TIP3   OH222914   2.002   2.700   3.359  0.1748 -0.4959  0.1347
  500TIP3    H122915   2.035   2.674   3.445  0.0216  0.4177  0.4661
  500TIP3    H222916   1.997   2.795   3.363 -2.3927 -0.6091  0.0460
  501TIP3   OH222917   3.562   4.626  13.084 -0.1965 -0.2689 -0.2826
  501TIP3    H122918   3.542   4.716  13.110 -2.0099 -0.9231  0.6917
  501TIP3    H222919   3.476   4.585  13.074  0.6061 -1.6163 -1.7172
  502TIP3   OH222920   1.002   4.935  12.439  0.2914  0.0399  0.2806
  502TIP3    H122921   1.048   4.853  12.457  2.1834  1.4141  1.9616
  502TIP3    H222922   1.057   4.981  12.376 -0.7156  0.0849 -0.5927
  503TIP3   OH222923   5.101   0.125  12.337  0.1695  0.2915 -0.3855
  503TIP3    H122924   5.032   0.190  12.353  0.5656  1.0960 -1.8609
  503TIP3    H222925   5.177   0.159  12.383 -0.1246 -0.0863  0.3972
  504TIP3   OH222926   0.596   1.998  16.730  0.1804  0.1001 -0.2353
  504TIP3    H122927   0.689   2.017  16.739 -0.0438  0.9984  0.2790
  504TIP3    H222928   0.592   1.930  16.663  1.3152 -1.0585  0.8382
  505TIP3   OH222929   3.742   2.492  16.346 -0.1437 -0.3260 -0.3485
  505TIP3    H122930   3.745   2.529  16.258 -0.3866  0.5535 -0.0020
  505TIP3    H222931   3.683   2.550  16.394  1.1427  0.0880  0.7835
  506TIP3   OH222932   0.154   3.020  16.421 -0.5071  0.2593 -0.2347
  506TIP3    H122933   0.067   3.035  16.383 -1.0279  0.9769  1.1902
  506TIP3    H222934   0.213   3.076  16.371 -0.9450  0.1294 -0.8979
  507TIP3   OH222935   6.777   2.284   3.936 -0.0672 -0.1381 -0.1438
  507TIP3    H122936   6.789   2.259   4.027 -0.6813  1.4480  0.3934
  507TIP3    H222937   6.725   2.213   3.898 -1.6708  0.2373  1.2960
  508TIP3   OH222938   1.539   1.780   3.911 -0.2793 -0.2506 -0.3247
  508TIP3    H122939   1.480   1.793   3.837 -0.7002 -1.5049 -0.2164
  508TIP3    H222940   1.514   1.848   3.974  0.8736  1.6004 -1.8072
  509TIP3   OH222941   0.978   3.207  12.740 -0.2183 -0.0236  0.1819
  509TIP3    H122942   0.906   3.217  12.803 -0.5716 -0.2946 -0.1737
  509TIP3    H222943   1.028   3.288  12.747  0.4637 -0.5668  1.7252
  510TIP3   OH222944   1.387   6.468  16.837 -0.0468 -0.3037  0.3028
  510TIP3    H122945   1.476   6.501  16.832  0.2960 -1.3693 -1.0332
  510TIP3    H222946   1.336   6.526  16.781  0.5836 -2.0806 -2.1679
  511TIP3   OH222947   5.304   0.045   1.391 -0.4077  0.0525 -0.2569
  511TIP3    H122948   5.360   0.085   1.457 -0.1730 -1.1705  0.3031
  511TIP3    H222949   5.216   0.051   1.427 -0.2162 -1.1047  0.4328
  512TIP3   OH222950   4.711   2.340   0.406  0.2934  0.2578  0.5372
  512TIP3    H122951   4.661   2.413   0.370  0.4488 -0.1621 -0.5532
  512TIP3    H222952   4.686   2.336   0.498 -1.1006  0.5320  0.1712
  513TIP3   OH222953   3.392   3.733  16.692 -0.4843  0.0709  0.1122
  513TIP3    H122954   3.412   3.640  16.691 -0.0736  0.0905  2.7160
  513TIP3    H222955   3.472   3.776  16.663 -0.1648 -0.3310  0.3956
  514TIP3   OH222956   1.069   0.410   6.184 -0.3246  0.5938  0.3147
  514TIP3    H122957   1.143   0.450   6.139  0.0495 -3.0184 -2.4911
  514TIP3    H222958   1.104   0.382   6.268  0.5315  2.0846  0.4806
  515TIP3   OH222959   2.517   1.210  13.850 -0.3940 -0.8608 -0.2095
  515TIP3    H122960   2.429   1.247  13.841 -0.7866 -2.1806 -1.8931
  515TIP3    H222961   2.516   1.131  13.797  1.6192 -1.2569  0.3000
  516TIP3   OH222962   1.048   1.495   3.664 -0.1697  0.2344  0.2635
  516TIP3    H122963   1.108   1.421   3.663 -0.3826  0.0530 -1.3747
  516TIP3    H222964   1.103   1.571   3.684  0.9745  0.3448 -3.0648
  517TIP3   OH222965   2.307   0.556   1.950 -0.3344 -1.2300 -0.7588
  517TIP3    H122966   2.212   0.567   1.959 -0.0902  0.1764  0.3365
  517TIP3    H222967   2.340   0.557   2.040  0.6920 -2.0691 -1.1130
  518TIP3   OH222968   1.492   3.534   5.235 -0.2071  0.0893  0.4339
  518TIP3    H122969   1.424   3.517   5.300  1.6964  1.2842  2.7972
  518TIP3    H222970   1.482   3.462   5.172 -2.6008 -0.6588  1.5766
  519TIP3   OH222971   4.338   4.441   2.094  0.1741 -0.4223 -0.5105
  519TIP3    H122972   4.414   4.464   2.148  0.5452  0.3186 -1.3302
  519TIP3    H222973   4.376   4.414   2.010 -0.5146  1.1501 -1.3427
  520TIP3   OH222974   4.075   4.695  13.810  0.0017  0.1924 -0.7608
  520TIP3    H122975   4.045   4.612  13.847 -1.5936  0.4484 -1.4245
  520TIP3    H222976   4.059   4.686  13.716 -1.0675  1.5948 -0.7261
  521TIP3   OH222977   1.791   5.141   2.173 -0.0004  0.2589 -0.3045
  521TIP3    H122978   1.765   5.053   2.199  2.5812 -0.6711 -0.6683
  521TIP3    H222979   1.786   5.192   2.253 -0.1842 -0.5590  0.2174
  522TIP3   OH222980   3.851   1.437  12.916  0.5522 -0.3853 -0.0011
  522TIP3    H122981   3.867   1.349  12.949 -0.6361 -0.5122  0.2509
  522TIP3    H222982   3.938   1.474  12.905  1.0478 -1.4091  0.3809
  523TIP3   OH222983   3.361   3.335  13.819  0.4322  0.3014 -0.8174
  523TIP3    H122984   3.337   3.308  13.731  2.3654 -0.7052 -1.0739
  523TIP3    H222985   3.308   3.281  13.877 -0.1018  0.2350 -1.3709
  524TIP3   OH222986   0.806   0.629   2.520 -0.5051 -0.0654 -0.2088
  524TIP3    H122987   0.832   0.539   2.501 -2.9940 -1.0894  1.0236
  524TIP3    H222988   0.888   0.678   2.518  0.6770 -1.9981 -2.7545
  525TIP3   OH222989   1.554   3.471  11.324 -0.7758  0.0973 -0.3052
  525TIP3    H122990   1.531   3.455  11.416  0.1346 -0.8976 -0.2367
  525TIP3    H222991   1.534   3.563  11.310 -0.0046  0.5042  1.1688
  526TIP3   OH222992   5.540   0.828   1.402  0.1256 -0.3935  0.5395
  526TIP3    H122993   5.582   0.757   1.354 -0.6356 -0.5604  0.1007
  526TIP3    H222994   5.534   0.899   1.338 -0.7996 -0.5807  0.4004
  527TIP3   OH222995   4.555   2.566  12.245  0.2203  0.8988  0.3933
  527TIP3    H122996   4.470   2.590  12.207 -0.6040 -0.8595  1.0527
  527TIP3    H222997   4.617   2.625  12.203 -1.4639  3.0322  0.7466
  528TIP3   OH222998   3.525   5.538  11.396 -0.1305  0.1338 -0.6197
  528TIP3    H122999   3.527   5.632  11.416  0.0442  0.1783 -0.8409
  528TIP3    H223000   3.437   5.523  11.361  0.1262  0.3907 -1.3988
  529TIP3   OH223001   3.332   0.160   3.724  0.1277 -0.8246 -0.4249
  529TIP3    H123002   3.416   0.143   3.768  0.2707 -0.8114 -0.6956
  529TIP3    H223003   3.267   0.150   3.794  0.5381  1.6928  0.3815
  530TIP3   OH223004   2.007   2.061   0.039  0.4842 -0.8101  0.0570
  530TIP3    H123005   2.089   2.107   0.022  0.5359 -0.4381  1.2799
  530TIP3    H223006   1.960   2.117   0.099 -0.4614 -1.2653 -0.2534
  531TIP3   OH223007   4.875   3.783  16.109 -0.5503  0.3296 -0.4323
  531TIP3    H123008   4.793   3.744  16.080 -1.3462  0.6784  1.2729
  531TIP3    H223009   4.910   3.720  16.172 -0.6685  1.2384  0.5649
  532TIP3   OH223010   5.852   1.190   4.848  0.2871  0.0545  0.4365
  532TIP3    H123011   5.867   1.264   4.907  1.1380  0.0566  0.2295
  532TIP3    H223012   5.927   1.193   4.788 -0.2189 -0.3509 -0.2139
  533TIP3   OH223013   1.626   5.609   1.700  0.0306 -0.9624 -0.3169
  533TIP3    H123014   1.564   5.537   1.691  0.0638 -1.0822  0.4175
  533TIP3    H223015   1.702   5.569   1.742 -0.2555 -0.3241  0.8170
  534TIP3   OH223016   2.405   6.019  12.175  0.3836  0.2156  0.1779
  534TIP3    H123017   2.360   5.938  12.199  2.8042 -0.7521  1.6074
  534TIP3    H223018   2.474   5.991  12.114  1.5088  1.1036  1.0119
  535TIP3   OH223019   5.213   2.215   1.830 -0.1009  0.0649  0.1704
  535TIP3    H123020   5.255   2.135   1.799  2.2847  0.4670  2.1595
  535TIP3    H223021   5.207   2.271   1.753 -1.8362 -2.0097 -1.2506
  536TIP3   OH223022   5.787   0.793   0.984 -0.2333  0.8122  0.1527
  536TIP3    H123023   5.833   0.710   0.979 -1.1677  0.1293  2.0257
  536TIP3    H223024   5.807   0.826   1.072 -1.0794  1.8333 -0.0248
  537TIP3   OH223025   1.737   6.225   4.061  0.1264  0.3316 -0.2659
  537TIP3    H123026   1.798   6.263   3.998  1.4355 -1.3058 -0.0237
  537TIP3    H223027   1.760   6.132   4.065 -1.3356 -0.0126  1.0340
  538TIP3   OH223028   5.777   6.777  16.484  0.3999  0.1419 -0.6543
  538TIP3    H123029   5.743   6.716  16.419 -0.0326  0.6990 -0.9557
  538TIP3    H223030   5.814   6.848  16.433 -0.1684  0.7060 -0.2940
  539TIP3   OH223031   3.236   5.659   3.827 -0.0482  0.2104 -0.5199
  539TIP3    H123032   3.155   5.705   3.850  0.2473 -0.6677  2.4677
  539TIP3    H223033   3.254   5.687   3.737 -2.8455  1.5851 -0.7203
  540TIP3   OH223034   3.285   5.648  16.338  0.3866  0.0156 -0.5357
  540TIP3    H123035   3.195   5.678  16.320  0.8647  1.6934 -0.2743
  540TIP3    H223036   3.286   5.629  16.431  0.7153  1.5822 -0.2010
  541TIP3   OH223037   0.007   3.815   1.401  0.8774 -0.5224  0.2300
  541TIP3    H123038   0.046   3.843   1.318  1.9935 -2.0180  0.2217
  541TIP3    H223039   0.082   3.802   1.459  0.1723 -0.4904  1.1648
  542TIP3   OH223040   1.185   3.671  15.255  0.0470 -0.2538  0.4796
  542TIP3    H123041   1.162   3.684  15.347 -0.2685  1.5336  0.1690
  542TIP3    H223042   1.165   3.755  15.213 -0.8341 -1.3731 -1.4285
  543TIP3   OH223043   2.225   1.905   6.193 -0.2326 -0.5577 -0.7895
  543TIP3    H123044   2.136   1.888   6.225 -0.5993 -1.4638 -2.2421
  543TIP3    H223045   2.252   1.984   6.239 -1.3162 -0.9595  0.6055
  544TIP3   OH223046   3.541   1.075  11.915  0.1822 -0.6377 -0.0515
  544TIP3    H123047   3.452   1.074  11.951 -0.5817  0.7569 -1.7931
  544TIP3    H223048   3.594   1.118  11.982 -0.8176  0.1549  0.2455
  545TIP3   OH223049   6.491   1.733  11.071 -0.3293 -1.2689 -0.4761
  545TIP3    H123050   6.478   1.677  10.995 -4.3830 -0.5120 -0.4302
  545TIP3    H223051   6.463   1.680  11.146  0.4794 -0.8579  0.1347
  546TIP3   OH223052   1.279   4.642  15.217 -0.6879 -0.2798 -0.9496
  546TIP3    H123053   1.268   4.641  15.312 -2.7740 -0.5467 -1.1658
  546TIP3    H223054   1.268   4.734  15.193 -0.4102 -0.2502 -0.9713
  547TIP3   OH223055   0.209   4.339  15.493 -0.0548 -0.7333 -0.0252
  547TIP3    H123056   0.187   4.259  15.541  1.0020 -0.7050  0.5144
  547TIP3    H223057   0.264   4.389  15.553 -1.3384  0.7731 -0.0664
  548TIP3   OH223058   1.907   4.325  16.999  0.3071 -0.5504 -0.3553
  548TIP3    H123059   1.948   4.241  16.977 -1.1089 -1.0073 -1.2928
  548TIP3    H223060   1.953   4.389  16.945  1.1815 -0.7539  0.1318
  549TIP3   OH223061   3.109   3.987   0.980 -0.1754  0.6709 -0.2278
  549TIP3    H123062   3.105   3.891   0.979  1.3649  0.6070 -0.9945
  549TIP3    H223063   3.021   4.014   1.008 -0.1524 -0.9965  1.5922
  550TIP3   OH223064   0.847   4.439  13.434 -0.0983 -0.4356  0.2707
  550TIP3    H123065   0.835   4.382  13.510 -0.0637 -2.3152 -1.0996
  550TIP3    H223066   0.825   4.527  13.466  0.4834 -1.0972  2.5947
  551TIP3   OH223067   1.116   5.086   4.380 -1.0711  0.0252  0.3889
  551TIP3    H123068   1.093   5.058   4.468  0.0250  0.1552  0.7275
  551TIP3    H223069   1.202   5.047   4.364 -1.5452 -0.5275 -0.8693
  552TIP3   OH223070   2.366   0.894   2.016 -0.4552 -0.2946 -0.3245
  552TIP3    H123071   2.337   0.955   2.084 -0.7292 -2.5990  1.7178
  552TIP3    H223072   2.286   0.849   1.989  0.1251 -1.6823  0.2066
  553TIP3   OH223073   4.483   0.566   1.846  0.1392  0.3774  0.3121
  553TIP3    H123074   4.464   0.597   1.757  0.6172  0.6415  0.3045
  553TIP3    H223075   4.433   0.624   1.903 -1.2636 -0.6486  0.1483
  554TIP3   OH223076   0.975   1.060   4.872  0.3171 -0.8820  0.2569
  554TIP3    H123077   1.009   1.101   4.793 -1.9299 -0.6034 -0.5975
  554TIP3    H223078   0.935   0.979   4.842  0.0907 -1.1311  1.2174
  555TIP3   OH223079   2.684   4.904  14.379  0.1333  0.0322  0.2621
  555TIP3    H123080   2.688   4.815  14.345 -1.8458  0.3187 -0.7813
  555TIP3    H223081   2.771   4.939  14.363  0.4857 -1.2303 -0.7163
  556TIP3   OH223082   2.505   4.024  12.812 -0.2777 -0.2581 -0.3004
  556TIP3    H123083   2.499   4.082  12.737  0.1843  0.0906 -0.0677
  556TIP3    H223084   2.575   3.963  12.790  0.2372  0.1904  0.0813
  557TIP3   OH223085   3.590   3.669   0.919  0.2635  0.1495  0.3552
  557TIP3    H123086   3.584   3.763   0.933 -0.1162  0.2313 -0.3382
  557TIP3    H223087   3.521   3.632   0.975 -1.4284  0.4966 -1.4253
  558TIP3   OH223088   6.675   0.637   0.749 -0.1815  0.3808  0.4542
  558TIP3    H123089   6.721   0.562   0.787  1.0364 -0.2874 -2.2004
  558TIP3    H223090   6.668   0.616   0.656 -1.6432  2.6576  0.0156
  559TIP3   OH223091   2.526   1.009  14.959 -0.2023  0.0110 -0.1633
  559TIP3    H123092   2.445   1.006  15.011  0.4148 -1.2351  0.7303
  559TIP3    H223093   2.589   0.957  15.009  0.5826 -0.6739 -1.8513
  560TIP3   OH223094   2.412   5.859  11.168  0.1879  0.4815 -0.7288
  560TIP3    H123095   2.446   5.891  11.084 -1.1886  1.7889 -0.8049
  560TIP3    H223096   2.317   5.856  11.156  0.1461 -1.7027 -0.0265
  561TIP3   OH223097   2.028   0.889   1.990 -0.0957 -0.3543  0.1142
  561TIP3    H123098   2.000   0.896   2.081  0.0044  2.3692 -0.0215
  561TIP3    H223099   1.954   0.924   1.940  0.0407 -1.4013 -0.8412
  562TIP3   OH223100   0.521   5.206   3.918 -0.5338 -0.2530  0.3832
  562TIP3    H123101   0.475   5.208   4.002 -0.7515 -0.9645  0.2863
  562TIP3    H223102   0.462   5.157   3.860  0.8912 -2.2492  0.5857
  563TIP3   OH223103   4.070   4.557   1.499 -0.2413 -0.1254 -0.1492
  563TIP3    H123104   4.124   4.635   1.492 -0.8304  0.1863 -1.3563
  563TIP3    H223105   4.033   4.545   1.412  0.8245 -2.4635 -0.3162
  564TIP3   OH223106   1.570   4.370   5.135 -0.1250  0.2139  0.0044
  564TIP3    H123107   1.484   4.401   5.107 -0.3783 -0.0045  0.5347
  564TIP3    H223108   1.552   4.289   5.184  0.2865  0.7236  1.0084
  565TIP3   OH223109   0.308   0.573   0.978  0.0810 -0.0061 -0.1768
  565TIP3    H123110   0.336   0.663   0.991 -1.7047  0.4859  0.5003
  565TIP3    H223111   0.383   0.520   1.002  0.1995  1.2286  2.2953
  566TIP3   OH223112   3.533   0.381   1.583 -0.2428 -0.3886 -0.5248
  566TIP3    H123113   3.621   0.417   1.586 -1.1624  1.9825 -0.9566
  566TIP3    H223114   3.489   0.428   1.512 -1.8750 -1.4824 -0.2808
  567TIP3   OH223115   1.266   1.904   4.893  0.3060  0.1330 -0.5828
  567TIP3    H123116   1.340   1.889   4.834  1.0686  0.5320  0.2572
  567TIP3    H223117   1.284   1.989   4.933  0.1141 -0.4009  0.6709
  568TIP3   OH223118   0.238   0.165   5.045  0.4574  0.1174 -0.0707
  568TIP3    H123119   0.312   0.112   5.076 -0.7774 -2.3293 -1.2248
  568TIP3    H223120   0.161   0.112   5.064 -0.9421  2.0947 -0.0679
  569TIP3   OH223121   2.637   0.564  13.218  0.4829 -0.3954  0.0006
  569TIP3    H123122   2.604   0.490  13.168  1.3185  0.0060 -1.1602
  569TIP3    H223123   2.698   0.526  13.281  0.1567 -0.7920  0.0817
  570TIP3   OH223124   5.522   6.510  16.229  0.1034  0.7230  0.3971
  570TIP3    H123125   5.548   6.580  16.289  0.0035  1.0730  0.0370
  570TIP3    H223126   5.599   6.454  16.221  0.1483  0.7334  0.7723
  571TIP3   OH223127   4.626   4.835  12.580 -1.0666 -0.1832 -0.1466
  571TIP3    H123128   4.643   4.864  12.669 -1.7750  3.7986 -1.2174
  571TIP3    H223129   4.533   4.853  12.565 -0.5102  1.1513 -2.3193
  572TIP3   OH223130   0.288   4.252  11.499 -0.3199  0.5232 -0.5839
  572TIP3    H123131   0.221   4.185  11.513 -0.0740  0.3008 -0.4490
  572TIP3    H223132   0.363   4.204  11.464  0.4201  0.4625  1.0088
  573TIP3   OH223133   3.656   3.253  11.487  0.1680 -0.4459 -0.2164
  573TIP3    H123134   3.610   3.284  11.565  0.5594 -0.3054 -0.0367
  573TIP3    H223135   3.653   3.327  11.426 -1.0024 -0.9031 -0.7176
  574TIP3   OH223136   6.533   6.257  14.554  0.2425  0.3169  0.2240
  574TIP3    H123137   6.622   6.292  14.560 -0.0049  1.2725 -1.3640
  574TIP3    H223138   6.520   6.210  14.636  2.5840 -0.6792  0.0608
  575TIP3   OH223139   1.197   6.137  16.392 -0.7118  0.3160 -0.5962
  575TIP3    H123140   1.276   6.091  16.421 -1.5311 -0.4803  0.4460
  575TIP3    H223141   1.174   6.194  16.465  0.5183  2.7223 -2.0500
  576TIP3   OH223142   3.139   3.364  14.194  0.2794 -0.0028 -0.4858
  576TIP3    H123143   3.193   3.285  14.192  0.0214 -0.2160  0.6646
  576TIP3    H223144   3.078   3.349  14.266  0.5556  1.4588  0.0748
  577TIP3   OH223145   1.110   2.583   1.106  0.1237 -0.6094 -0.1169
  577TIP3    H123146   1.093   2.525   1.032  0.7082  0.8496 -1.4373
  577TIP3    H223147   1.056   2.549   1.177 -1.0416 -1.5864 -1.4494
  578TIP3   OH223148   1.729   1.146   5.024 -0.3802  0.3672 -0.2903
  578TIP3    H123149   1.705   1.057   5.050 -1.4997  0.7118 -0.1148
  578TIP3    H223150   1.672   1.164   4.949 -1.7023  1.7235  1.0088
  579TIP3   OH223151   4.090   4.068   0.367 -0.3235 -0.0035 -0.5357
  579TIP3    H123152   4.041   4.142   0.331  1.4038  0.9585 -0.9743
  579TIP3    H223153   4.023   4.011   0.405 -1.9376  0.3524 -2.7488
  580TIP3   OH223154   0.698   1.045   4.615  0.8005  0.3090  0.4945
  580TIP3    H123155   0.605   1.061   4.596  0.6120  1.2496  2.0871
  580TIP3    H223156   0.715   0.959   4.578 -0.8288 -0.0678  0.5486
  581TIP3   OH223157   4.459   2.030   5.485 -0.0941  0.1102 -0.4805
  581TIP3    H123158   4.378   2.011   5.531  0.8235 -0.8724  0.7871
  581TIP3    H223159   4.508   1.947   5.488  0.5618  0.4240 -2.0372
  582TIP3   OH223160   2.357   0.985   3.519 -0.1190  0.4828 -0.4316
  582TIP3    H123161   2.295   0.995   3.447 -1.2292  0.4137  0.5114
  582TIP3    H223162   2.402   0.902   3.500 -1.9304 -0.6548  0.0810
  583TIP3   OH223163   5.027   4.604  12.404 -0.1095 -0.1556 -0.7405
  583TIP3    H123164   5.079   4.651  12.469 -1.0585  1.1637 -0.9206
  583TIP3    H223165   4.936   4.621  12.430 -0.4767 -2.2370 -0.5561
  584TIP3   OH223166   4.025   0.860  11.726  0.1062  0.3807 -0.0458
  584TIP3    H123167   3.970   0.793  11.686  3.5681 -1.1114 -2.6525
  584TIP3    H223168   4.003   0.941  11.680  2.2811 -0.8400 -3.4090
  585TIP3   OH223169   4.574   0.662  12.828  0.2205  0.0752  0.9926
  585TIP3    H123170   4.514   0.723  12.786  1.0458  0.6449  0.6369
  585TIP3    H223171   4.596   0.599  12.760  0.7676  0.4115  0.8621
  586TIP3   OH223172   0.302   2.824  15.894  0.0364 -0.0351  0.1283
  586TIP3    H123173   0.311   2.814  15.989  0.8181  2.3766  0.3490
  586TIP3    H223174   0.208   2.837  15.880  0.0818  0.9567  0.7247
  587TIP3   OH223175   3.619   0.926  14.417  0.0363 -0.4591  0.3074
  587TIP3    H123176   3.566   0.947  14.340 -2.0050  0.5637  1.9388
  587TIP3    H223177   3.555   0.911  14.487  1.8583 -0.4905  2.0207
  588TIP3   OH223178   5.472   4.172  11.496 -0.4763 -0.1179  0.5531
  588TIP3    H123179   5.430   4.096  11.455 -0.1275  0.1243 -0.2690
  588TIP3    H223180   5.500   4.141  11.582 -0.7079 -0.8048  0.3817
  589TIP3   OH223181   4.252   1.746   4.642 -0.2254 -0.3488 -0.2437
  589TIP3    H123182   4.307   1.674   4.608  0.2108 -0.2369  0.2125
  589TIP3    H223183   4.273   1.749   4.736 -0.7043 -0.0301 -0.1496
  590TIP3   OH223184   2.632   3.683   4.054 -0.5281 -0.1869 -0.0756
  590TIP3    H123185   2.597   3.746   4.117  1.0048  0.1311  0.4884
  590TIP3    H223186   2.588   3.705   3.972 -2.4046 -0.4915  0.8348
  591TIP3   OH223187   6.164   2.617  14.453 -0.4757 -0.2605  0.0458
  591TIP3    H123188   6.119   2.591  14.534 -0.3892  0.7701  0.4339
  591TIP3    H223189   6.107   2.584  14.383  0.2284 -2.5116  0.4941
  592TIP3   OH223190   6.625   1.418  11.921 -0.3047  0.4183  0.5381
  592TIP3    H123191   6.624   1.465  11.838 -0.5450  0.1091  0.3671
  592TIP3    H223192   6.715   1.384  11.928 -0.7296 -0.9385 -0.3755
  593TIP3   OH223193   0.144   3.890  15.109  0.3934  0.2652  0.5810
  593TIP3    H123194   0.092   3.811  15.122 -0.6642  1.1180  1.6393
  593TIP3    H223195   0.099   3.937  15.038  1.4710 -0.4450 -0.5926
  594TIP3   OH223196   0.062   0.288   1.593 -0.2380 -0.1198 -0.1440
  594TIP3    H123197   0.114   0.368   1.588  0.9541 -0.7584  1.6392
  594TIP3    H223198  -0.025   0.316   1.620  0.3620  0.4970  1.1482
  595TIP3   OH223199   0.987   3.562  13.046  0.4055  0.2342  0.4945
  595TIP3    H123200   1.012   3.554  13.138 -1.0006 -0.1010  0.8657
  595TIP3    H223201   0.902   3.606  13.048 -0.0260 -0.5344 -0.5983
  596TIP3   OH223202   4.327   4.038   4.965 -0.0827  0.2996 -0.5071
  596TIP3    H123203   4.394   4.094   4.927 -0.8296  0.4039 -1.6966
  596TIP3    H223204   4.275   4.096   5.020 -0.5216  0.6809 -1.3104
  597TIP3   OH223205   0.061   0.635  13.245 -0.2636 -0.0684 -0.5579
  597TIP3    H123206   0.075   0.699  13.315  0.7671  0.6158 -1.3624
  597TIP3    H223207  -0.031   0.646  13.221 -1.4135 -2.3072  2.5868
  598TIP3   OH223208   6.677   4.412   4.378 -0.0792  0.9117  0.0052
  598TIP3    H123209   6.627   4.493   4.371 -0.2452  0.7645 -0.5639
  598TIP3    H223210   6.715   4.400   4.291 -0.0983  0.3546  0.0722
  599TIP3   OH223211   4.276   2.308   5.632  0.3792  0.2708  0.1232
  599TIP3    H123212   4.317   2.247   5.692 -1.7163 -1.1863  0.1521
  599TIP3    H223213   4.197   2.337   5.678  0.1981  1.2621 -0.7938
  600TIP3   OH223214   2.918   2.330   2.573 -0.2619 -0.1888 -0.1477
  600TIP3    H123215   2.906   2.374   2.489  1.2865  2.1267  0.7973
  600TIP3    H223216   2.934   2.401   2.635  0.9449 -2.0116  1.6808
  601TIP3   OH223217   3.279   3.897  11.479 -0.0741  0.6479 -0.5677
  601TIP3    H123218   3.210   3.957  11.509 -0.5340 -0.6492  1.0257
  601TIP3    H223219   3.360   3.942  11.502 -0.3499  2.2883 -2.6621
  602TIP3   OH223220   1.528   4.471  14.542  0.1913 -0.5039 -0.2807
  602TIP3    H123221   1.509   4.563  14.521 -0.0977 -0.6377 -0.6231
  602TIP3    H223222   1.618   4.471  14.572 -0.1212  0.0445  0.6719
  603TIP3   OH223223   3.654   5.514  13.486 -0.3305  0.3709 -0.1158
  603TIP3    H123224   3.630   5.536  13.577  0.2607  1.3018 -0.1708
  603TIP3    H223225   3.578   5.543  13.434 -1.0431 -0.9659  0.1551
  604TIP3   OH223226   1.091   5.010   0.238  0.5120  0.6760 -0.1270
  604TIP3    H123227   1.179   5.047   0.250  1.2884 -1.0594 -0.2367
  604TIP3    H223228   1.084   4.998   0.144  0.9661 -1.0599  0.0508
  605TIP3   OH223229   6.696   2.463   0.681 -0.5573  0.7518  0.2546
  605TIP3    H123230   6.715   2.469   0.587 -0.7185  1.0727  0.2416
  605TIP3    H223231   6.745   2.535   0.720  1.6837 -1.0036  0.7646
  606TIP3   OH223232   5.177   4.508   1.466 -0.0045 -0.2086 -0.2272
  606TIP3    H123233   5.242   4.538   1.403 -1.6612 -0.7935 -2.3079
  606TIP3    H223234   5.206   4.420   1.491  1.2704  0.4742  0.7102
  607TIP3   OH223235   1.211   3.018  16.057  0.1834 -0.0316 -0.0679
  607TIP3    H123236   1.144   2.959  16.022  1.0623 -1.1905  0.1547
  607TIP3    H223237   1.246   2.971  16.133  1.3845  0.4654 -0.3143
  608TIP3   OH223238   2.927   4.749   5.192 -0.3825  0.1545  0.2882
  608TIP3    H123239   2.862   4.802   5.146 -0.2507  1.7644  1.9203
  608TIP3    H223240   2.993   4.812   5.221 -0.2989 -0.8586  2.4079
  609TIP3   OH223241   5.672   3.939  16.744 -0.6003 -0.5134 -0.5968
  609TIP3    H123242   5.659   4.002  16.815 -0.0292 -0.7542 -0.2763
  609TIP3    H223243   5.649   3.854  16.782 -0.6925 -0.5896 -0.8215
  610TIP3   OH223244   3.999   5.141  14.953  0.1664  0.1269  0.1668
  610TIP3    H123245   4.044   5.058  14.936 -0.1056  0.4516 -2.2544
  610TIP3    H223246   4.070   5.203  14.968  0.3642 -0.6422  2.6953
  611TIP3   OH223247   2.458   1.959  16.747 -0.0752 -0.2145  0.2174
  611TIP3    H123248   2.369   1.955  16.713  0.6161 -0.0540 -1.6781
  611TIP3    H223249   2.490   2.045  16.719  1.1363 -0.8338 -0.3532
  612TIP3   OH223250   5.430   6.050   3.039 -0.1236  0.1762  0.3297
  612TIP3    H123251   5.522   6.054   3.062 -0.8056  1.4387  3.0203
  612TIP3    H223252   5.388   6.113   3.097 -2.6134  0.0475 -1.2470
  613TIP3   OH223253   0.201   2.291   4.641  0.4727 -0.0421  0.8425
  613TIP3    H123254   0.217   2.198   4.628  0.6182 -0.0576  1.1453
  613TIP3    H223255   0.235   2.310   4.728  0.9249  0.4073  0.5678
  614TIP3   OH223256   2.978   6.615  14.222 -0.0723  0.2969 -0.2753
  614TIP3    H123257   2.935   6.697  14.198  0.5187  0.9801  0.9444
  614TIP3    H223258   3.040   6.599  14.151  2.4168  2.8530  1.2390
  615TIP3   OH223259   1.782   3.672   3.960 -0.2437  0.3174 -0.1747
  615TIP3    H123260   1.699   3.693   3.918  0.0105 -0.1904 -0.9434
  615TIP3    H223261   1.841   3.652   3.888 -0.2316 -2.1677  0.4608
  616TIP3   OH223262   5.278   1.530  12.934 -0.2217 -0.2670  0.7050
  616TIP3    H123263   5.265   1.623  12.951 -2.6905 -0.1418 -1.3774
  616TIP3    H223264   5.300   1.525  12.841  0.1882 -1.7244  0.8593
  617TIP3   OH223265   5.448   3.396  15.699  0.4248  0.1866 -0.2707
  617TIP3    H123266   5.413   3.470  15.749  0.2604  0.0416 -0.1740
  617TIP3    H223267   5.376   3.333  15.694 -0.5098  1.4417 -3.2150
  618TIP3   OH223268   4.148   5.410   1.112  0.0625 -0.1521  0.5457
  618TIP3    H123269   4.146   5.483   1.175  1.8620  0.0493  0.3797
  618TIP3    H223270   4.197   5.341   1.157 -1.6802 -1.3213  0.7213
  619TIP3   OH223271   3.346   3.366  14.592 -0.0049  0.1037  0.0845
  619TIP3    H123272   3.280   3.420  14.635  0.3899  0.4539  0.2613
  619TIP3    H223273   3.360   3.293  14.653  0.5133  0.5705  0.5383
  620TIP3   OH223274   6.280   4.915   0.989 -0.5551 -0.5759 -0.4451
  620TIP3    H123275   6.216   4.851   0.958  0.1827 -1.2945 -0.4957
  620TIP3    H223276   6.233   4.964   1.057 -0.6683 -2.1270  0.6213
  621TIP3   OH223277   0.037   2.387   1.199  0.2764  0.1002  0.3503
  621TIP3    H123278  -0.045   2.352   1.163  0.7031 -0.3533 -0.1941
  621TIP3    H223279   0.101   2.318   1.184  1.5593  1.8277 -2.4917
  622TIP3   OH223280   0.158   2.437   5.203 -0.2929  0.2304 -0.0652
  622TIP3    H123281   0.133   2.348   5.228  0.5149 -0.0227 -0.1448
  622TIP3    H223282   0.253   2.435   5.197  0.0186  1.8877  3.0047
  623TIP3   OH223283   0.501   2.790  13.398 -0.5018 -0.0532  0.5098
  623TIP3    H123284   0.414   2.773  13.361 -0.6015  0.4424  0.5116
  623TIP3    H223285   0.500   2.883  13.421  0.1894  0.0645  0.0860
  624TIP3   OH223286   3.939   0.418   2.626  0.1305  0.8548  0.5438
  624TIP3    H123287   3.957   0.510   2.645 -0.1058  1.1379 -0.5581
  624TIP3    H223288   3.846   0.416   2.603 -0.0123  0.2399  1.1575
  625TIP3   OH223289   1.587   5.988   4.180  0.4130  0.1812  0.0165
  625TIP3    H123290   1.548   6.028   4.102  0.2760  1.2743  0.6345
  625TIP3    H223291   1.679   6.014   4.177  0.5931 -0.4916 -0.2370
  626TIP3   OH223292   6.503   4.339  13.428 -0.6239 -0.1201  0.4057
  626TIP3    H123293   6.417   4.376  13.409 -0.3903 -0.7865 -2.2715
  626TIP3    H223294   6.505   4.257  13.377  0.3283 -1.8259  3.1087
  627TIP3   OH223295   1.900   4.533   2.929 -0.7207  0.4631  0.2482
  627TIP3    H123296   1.935   4.480   2.857  0.9071 -0.2576  1.5212
  627TIP3    H223297   1.840   4.475   2.975 -1.4220  0.7791 -0.2701
  628TIP3   OH223298   1.652   3.904  11.497  0.3269 -0.6801 -0.2259
  628TIP3    H123299   1.685   3.918  11.408  0.8500 -1.6858 -0.2019
  628TIP3    H223300   1.728   3.868  11.544  0.3225  0.7310  0.8671
  629TIP3   OH223301   3.382   3.336   2.394  0.3672 -0.3846  0.0718
  629TIP3    H123302   3.320   3.372   2.457  0.4170 -0.2955  0.0697
  629TIP3    H223303   3.368   3.386   2.314 -1.8155 -2.5038 -0.9309
  630TIP3   OH223304   6.243   0.173  11.427 -0.1959  0.6307 -0.1286
  630TIP3    H123305   6.233   0.145  11.518 -1.2777  0.0996 -0.3957
  630TIP3    H223306   6.174   0.238  11.415 -0.1881  0.5464 -0.6262
  631TIP3   OH223307   4.265   1.072   3.873  0.2071 -0.3604  0.0577
  631TIP3    H123308   4.250   1.158   3.912  0.2108 -0.3082 -0.0575
  631TIP3    H223309   4.345   1.040   3.916  1.1644  0.4127 -1.1286
  632TIP3   OH223310   1.155   0.299   5.057 -0.3115 -0.5919 -0.4019
  632TIP3    H123311   1.087   0.314   4.991  0.3127  0.0222 -0.9113
  632TIP3    H223312   1.229   0.262   5.009 -0.2411 -1.1766  0.1356
  633TIP3   OH223313   2.272   1.268   5.686 -0.0489 -0.3755  0.6838
  633TIP3    H123314   2.199   1.329   5.679 -0.7195 -1.3449 -1.0683
  633TIP3    H223315   2.293   1.245   5.596  2.1206 -0.4846  1.1890
  634TIP3   OH223316   3.396   0.469  12.348  0.3937 -0.0157  0.3925
  634TIP3    H123317   3.462   0.463  12.417  0.4528  1.7982  0.5336
  634TIP3    H223318   3.437   0.524  12.281 -0.3242 -0.3067 -0.2868
  635TIP3   OH223319   1.516   4.526  14.194  0.6538 -0.0583  0.5921
  635TIP3    H123320   1.606   4.524  14.162  0.9939 -0.1546  1.5188
  635TIP3    H223321   1.502   4.440  14.233 -0.0223 -0.2326 -0.0255
  636TIP3   OH223322   2.669   2.615  16.312  0.3420 -0.3512  0.2213
  636TIP3    H123323   2.648   2.690  16.255 -3.6595 -0.8155  0.9166
  636TIP3    H223324   2.677   2.541  16.252 -0.2843 -0.1810 -0.0800
  637TIP3   OH223325   2.334   2.216   6.836 -0.5177  0.3970  0.0424
  637TIP3    H123326   2.303   2.182   6.752 -1.5953  0.0730  0.5528
  637TIP3    H223327   2.357   2.307   6.818 -1.5197  0.5682 -0.4348
  638TIP3   OH223328   4.515   4.946   4.631 -0.2570 -0.8322 -0.0475
  638TIP3    H123329   4.461   5.018   4.663 -0.4641 -1.3880  0.8742
  638TIP3    H223330   4.498   4.943   4.537 -0.0550  0.4775 -0.1311
  639TIP3   OH223331   2.650   2.261   2.721 -0.7836  0.5191 -0.2113
  639TIP3    H123332   2.611   2.193   2.665 -2.9358  2.2619 -0.8977
  639TIP3    H223333   2.617   2.343   2.685  1.4696  1.9377  0.8535
  640TIP3   OH223334   2.314   6.490   4.463  0.7071  0.1321  0.0644
  640TIP3    H123335   2.364   6.541   4.399 -1.5574  1.3832 -0.7820
  640TIP3    H223336   2.237   6.459   4.414 -0.2137 -0.3124  1.7549
  641TIP3   OH223337   0.102   6.515  17.110 -0.4348  1.0751 -0.1892
  641TIP3    H123338   0.107   6.481  17.199  2.3102  0.4535 -0.5151
  641TIP3    H223339   0.143   6.447  17.056 -1.8231  1.5536 -1.8865
  642TIP3   OH223340   2.429   0.149   1.761 -0.1222 -0.0284 -0.8999
  642TIP3    H123341   2.351   0.167   1.709 -0.5467 -1.1037 -0.6503
  642TIP3    H223342   2.419   0.205   1.838 -0.9861 -0.6346 -0.5538
  643TIP3   OH223343   4.230   2.702  12.751  0.0582  0.9473 -0.0920
  643TIP3    H123344   4.291   2.673  12.682 -1.1740 -0.3250 -0.6755
  643TIP3    H223345   4.145   2.705  12.707 -0.5063  1.4710  1.0359
  644TIP3   OH223346   3.260   1.416  16.276  0.4719 -0.0018 -0.2289
  644TIP3    H123347   3.297   1.473  16.209 -1.1740  0.3832 -0.8294
  644TIP3    H223348   3.289   1.329  16.252 -0.9534 -0.0041 -2.0701
  645TIP3   OH223349   6.480   2.564  12.234 -0.2150  0.0440 -0.2894
  645TIP3    H123350   6.476   2.539  12.142 -1.4426  1.2496 -0.5811
  645TIP3    H223351   6.514   2.487  12.279 -0.7438 -0.9591 -1.5973
  646TIP3   OH223352   0.900   3.366   5.394 -0.2227  0.2843  0.4203
  646TIP3    H123353   0.892   3.453   5.356 -0.2050 -0.1347 -0.5762
  646TIP3    H223354   0.829   3.360   5.458 -0.4499  0.8979  0.2251
  647TIP3   OH223355   5.425   1.561   0.505  0.5407 -0.1843  0.6212
  647TIP3    H123356   5.376   1.486   0.471  0.0929 -0.4666  1.8483
  647TIP3    H223357   5.407   1.632   0.443 -0.3257 -0.6595  0.3181
  648TIP3   OH223358   3.428   1.091   6.688 -0.8127  0.5847 -0.3293
  648TIP3    H123359   3.412   1.061   6.599 -0.9081  0.9337 -0.4313
  648TIP3    H223360   3.456   1.013   6.736 -0.8557  0.3795 -0.6421
  649TIP3   OH223361   4.807   0.534  12.149 -0.1194 -0.2301  0.3272
  649TIP3    H123362   4.712   0.527  12.155 -0.1605  0.6948  0.8022
  649TIP3    H223363   4.837   0.444  12.133 -1.1156 -0.4267 -0.4964
  650TIP3   OH223364   2.250   1.577  17.143  0.1611 -0.7055 -0.3655
  650TIP3    H123365   2.245   1.610  17.233 -1.5316 -1.2542 -0.2464
  650TIP3    H223366   2.335   1.606  17.112  0.4142  0.2141  1.1352
  651TIP3   OH223367   3.093   4.399  17.203 -0.2304  0.5133 -0.6946
  651TIP3    H123368   3.041   4.442  17.135  0.2609  0.7201 -0.9338
  651TIP3    H223369   3.164   4.357  17.156  0.8259  1.7102 -0.1857
  652TIP3   OH223370   0.413   3.060  15.803  0.3046  0.3272 -0.5963
  652TIP3    H123371   0.416   2.969  15.832  1.9515  0.9290  1.2125
  652TIP3    H223372   0.499   3.077  15.765  0.7197  1.6490  0.8364
  653TIP3   OH223373   4.252   4.563  15.061 -0.1471  0.0135 -0.7421
  653TIP3    H123374   4.273   4.508  15.136  0.1356  0.5632 -0.4128
  653TIP3    H223375   4.186   4.514  15.013 -1.0855  0.1167  0.4148
  654TIP3   OH223376   2.625   3.525   0.779  0.8519 -0.6003  0.1365
  654TIP3    H123377   2.642   3.477   0.860  0.8685  1.3705  1.3483
  654TIP3    H223378   2.572   3.466   0.726  1.1494 -2.0531  1.4426
  655TIP3   OH223379   3.759   1.777  17.048  0.3168 -0.0744 -0.1282
  655TIP3    H123380   3.758   1.831  17.127 -2.0666  1.4875 -1.1831
  655TIP3    H223381   3.804   1.831  16.982  0.3802 -0.4884 -0.4303
  656TIP3   OH223382   4.771   1.815   2.620  0.4688 -0.0796  0.1456
  656TIP3    H123383   4.786   1.828   2.526  0.0824  0.7764  0.1977
  656TIP3    H223384   4.695   1.756   2.624  0.7217 -0.4298 -0.0721
  657TIP3   OH223385   3.315   1.325  10.781  0.4166  0.4114  0.2005
  657TIP3    H123386   3.235   1.315  10.729  0.2823 -0.4414  0.5631
  657TIP3    H223387   3.342   1.236  10.802  1.3816  0.7011  0.2135
  658TIP3   OH223388   4.321   4.723   4.170 -0.2982 -0.1293 -0.1065
  658TIP3    H123389   4.336   4.783   4.097  0.2827  0.3210  0.3808
  658TIP3    H223390   4.250   4.666   4.140 -0.4687  0.4394 -0.7893
  659TIP3   OH223391   3.638   6.522   4.240  0.2520  0.0286 -0.1030
  659TIP3    H123392   3.551   6.556   4.260  0.5183  0.1304  0.9048
  659TIP3    H223393   3.624   6.431   4.215  0.0333 -0.4619  1.7453
  660TIP3   OH223394   6.321   6.331   6.310  0.1331 -0.1979  0.7573
  660TIP3    H123395   6.289   6.417   6.337  0.7812 -0.4850  2.4714
  660TIP3    H223396   6.378   6.303   6.381 -0.7955 -2.4545  0.6562
  661TIP3   OH223397   5.964   6.439   3.395  0.3758 -0.3224  0.1255
  661TIP3    H123398   5.999   6.416   3.309  0.3941 -0.5285  0.1889
  661TIP3    H223399   5.990   6.531   3.407 -0.4395 -0.0005 -0.4944
  662TIP3   OH223400   0.686   5.435   1.382 -0.5548  0.1295  0.2348
  662TIP3    H123401   0.689   5.499   1.311  1.5317 -0.6020 -0.3903
  662TIP3    H223402   0.652   5.355   1.341 -0.1719 -0.0494  0.2639
  663TIP3   OH223403   0.554   2.045  13.420 -0.2465 -0.3821 -0.1801
  663TIP3    H123404   0.479   2.073  13.472  0.9000  0.0856  1.2565
  663TIP3    H223405   0.611   2.122  13.415  0.5083 -0.9515 -0.5531
  664TIP3   OH223406   5.671   6.340  17.182  0.6302  0.3686 -0.8067
  664TIP3    H123407   5.721   6.262  17.159  1.9992  0.0993  2.8303
  664TIP3    H223408   5.725   6.386  17.246 -1.1708  3.1376 -1.1787
  665TIP3   OH223409   2.667   6.206   0.343  0.7612 -0.4603  0.8254
  665TIP3    H123410   2.627   6.121   0.363  0.3380 -0.7017 -0.9719
  665TIP3    H223411   2.760   6.193   0.360  0.7162 -1.3147  0.4650
  666TIP3   OH223412   0.709   2.181   5.291 -0.1687 -0.2839  0.1296
  666TIP3    H123413   0.708   2.271   5.257  0.8415 -0.5999 -0.7632
  666TIP3    H223414   0.657   2.131   5.227  1.5402 -0.8356 -0.8591
  667TIP3   OH223415   3.263   5.520  14.233  0.2955 -0.2609 -0.3542
  667TIP3    H123416   3.215   5.443  14.264  1.3601 -1.6988 -2.2412
  667TIP3    H223417   3.199   5.569  14.182 -0.1998 -0.1943  0.3116
  668TIP3   OH223418   3.412   5.293  11.379  0.1898 -0.4753 -0.2973
  668TIP3    H123419   3.416   5.277  11.285  0.1008 -0.6996 -0.2626
  668TIP3    H223420   3.481   5.357  11.395  0.1188 -0.3392 -0.5345
  669TIP3   OH223421   3.771   3.250   1.698  0.0909 -0.4007  0.7101
  669TIP3    H123422   3.712   3.203   1.638  0.8669 -0.3241 -0.1193
  669TIP3    H223423   3.844   3.278   1.643  1.4329 -1.4116  1.9305
  670TIP3   OH223424   0.089   6.425  15.932  0.0893 -0.4579  0.2179
  670TIP3    H123425   0.055   6.430  16.022  1.5168  1.2652  0.6778
  670TIP3    H223426   0.020   6.464  15.878 -0.6184 -1.1642  0.5944
  671TIP3   OH223427   5.775   3.310  15.074  0.3888  0.2839 -0.0039
  671TIP3    H123428   5.822   3.337  15.152 -0.9125  1.9416  0.2384
  671TIP3    H223429   5.692   3.358  15.078  0.4192  0.6294 -2.5373
  672TIP3   OH223430   3.849   4.767   3.427  0.2218 -0.2237 -0.1439
  672TIP3    H123431   3.922   4.738   3.481  2.3665 -0.3882 -3.0286
  672TIP3    H223432   3.793   4.690   3.418  0.1339 -0.3376  1.3694
  673TIP3   OH223433   2.048   6.739   2.473  0.7715 -0.4144 -0.4297
  673TIP3    H123434   1.982   6.749   2.403  0.0528  1.8533  0.5416
  673TIP3    H223435   2.057   6.826   2.510  2.0497 -1.3538  1.5307
  674TIP3   OH223436   1.340   0.650   3.010  0.2257  0.0241 -0.0676
  674TIP3    H123437   1.253   0.609   3.017 -0.6104  1.4212 -1.9477
  674TIP3    H223438   1.399   0.577   2.992 -0.5520 -0.9303  1.1257
  675TIP3   OH223439   5.746   3.391  11.197 -0.2995 -0.4651 -0.2766
  675TIP3    H123440   5.736   3.478  11.235 -0.4314 -0.7620  0.3696
  675TIP3    H223441   5.701   3.333  11.257  0.9808 -1.1635  0.0316
  676TIP3   OH223442   4.722   5.776   5.533  0.3453  0.2685 -0.6200
  676TIP3    H123443   4.754   5.792   5.621 -0.2341  1.1089 -0.5573
  676TIP3    H223444   4.711   5.681   5.528  0.0079  0.2559  0.3443
  677TIP3   OH223445   2.252   4.207  16.198 -0.4706 -0.0326  0.3389
  677TIP3    H123446   2.342   4.213  16.229 -0.5506  1.1574  0.3735
  677TIP3    H223447   2.206   4.157  16.265 -0.0728  0.2894  0.8556
  678TIP3   OH223448   3.543   6.677   5.386 -0.1560  0.2918 -0.0540
  678TIP3    H123449   3.547   6.635   5.472  0.9817  0.2327 -0.1278
  678TIP3    H223450   3.617   6.737   5.385 -0.8338  1.1413 -0.5620
  679TIP3   OH223451   5.249   4.097   3.599 -0.2866  0.4297 -0.2031
  679TIP3    H123452   5.166   4.100   3.645 -0.3696  1.0013 -0.3851
  679TIP3    H223453   5.307   4.155   3.648 -0.6797  1.8614 -1.3945
  680TIP3   OH223454   4.302   3.580  14.028 -0.3762 -0.0391 -0.1048
  680TIP3    H123455   4.297   3.642  13.955 -2.4136  0.2741  0.2793
  680TIP3    H223456   4.217   3.536  14.029 -0.6877  0.5027  2.5255
  681TIP3   OH223457   5.037   1.056  13.245 -0.3980  0.1317  0.5242
  681TIP3    H123458   5.119   1.008  13.259 -0.7844 -0.5527  0.4586
  681TIP3    H223459   4.973   1.011  13.300 -0.7917  0.4940  0.3619
  682TIP3   OH223460   4.765   4.021  16.984  0.1983  0.3458 -0.0184
  682TIP3    H123461   4.789   3.967  16.909 -0.7699  0.1874 -0.2239
  682TIP3    H223462   4.672   4.041  16.970 -0.3381 -0.7733  1.8172
  683TIP3   OH223463   0.118   1.220   6.764  0.1616  0.3550 -0.1541
  683TIP3    H123464   0.171   1.208   6.843 -0.2725 -1.4920 -0.1173
  683TIP3    H223465   0.162   1.167   6.698  0.2403  1.4987 -1.0272
  684TIP3   OH223466   1.586   0.420   2.295 -0.6213 -0.2095  0.1008
  684TIP3    H123467   1.638   0.409   2.375  0.1688  2.1830 -0.0683
  684TIP3    H223468   1.650   0.437   2.226 -1.4726  0.3931 -0.5531
  685TIP3   OH223469   5.841   0.587   5.049  0.3271  0.1137  0.3222
  685TIP3    H123470   5.795   0.526   5.106  0.5924 -1.9375 -1.5739
  685TIP3    H223471   5.829   0.673   5.090 -4.0155 -0.5448  0.6262
  686TIP3   OH223472   0.580   4.492   1.804  0.5364 -0.0479 -0.5081
  686TIP3    H123473   0.644   4.429   1.838  0.8210  1.4408  1.8556
  686TIP3    H223474   0.520   4.507   1.877 -0.3055  1.4235 -1.4778
  687TIP3   OH223475   3.356   1.664  13.166 -0.0815 -0.0537 -0.0401
  687TIP3    H123476   3.296   1.590  13.177 -0.8166  0.4583 -0.5499
  687TIP3    H223477   3.312   1.737  13.210 -0.7540  0.8059 -2.0699
  688TIP3   OH223478   1.884   3.371  11.292 -0.3289 -0.0415 -0.2300
  688TIP3    H123479   1.899   3.277  11.300  0.4448  0.1891  1.0566
  688TIP3    H223480   1.829   3.379  11.214  0.7297 -1.4394 -1.1485
  689TIP3   OH223481   3.821   2.119  13.326 -0.1073  0.2091  0.5677
  689TIP3    H123482   3.843   2.152  13.238 -0.8861 -1.9533 -0.4641
  689TIP3    H223483   3.726   2.129  13.332 -0.0323  0.5459  1.2689
  690TIP3   OH223484   2.355   4.152   2.983  0.5880 -0.0247 -0.1183
  690TIP3    H123485   2.319   4.168   3.070 -0.6335 -0.4140 -0.5463
  690TIP3    H223486   2.293   4.092   2.942  1.2604  0.0040 -1.1881
  691TIP3   OH223487   1.173   0.156   0.043  0.4625 -0.1377 -0.3174
  691TIP3    H123488   1.183   0.237   0.093 -0.5112  0.0965 -0.4877
  691TIP3    H223489   1.078   0.145   0.035  0.6024 -0.5561 -1.4798
  692TIP3   OH223490   4.801   5.601   0.413 -0.0773 -0.0627  0.3776
  692TIP3    H123491   4.816   5.508   0.431 -0.7236 -0.3674 -0.5951
  692TIP3    H223492   4.878   5.627   0.362  1.2447  0.5419  2.6086
  693TIP3   OH223493   2.977   3.500   1.413 -0.0608  0.5908  0.4494
  693TIP3    H123494   2.986   3.422   1.469  0.9868 -0.8108 -1.6158
  693TIP3    H223495   2.927   3.469   1.338  0.9264  1.7529 -0.6935
  694TIP3   OH223496   0.134   2.257   3.052 -0.3061  0.2137 -0.1441
  694TIP3    H123497   0.088   2.333   3.016 -1.9567 -1.2887 -1.2776
  694TIP3    H223498   0.097   2.246   3.140  0.2338  0.9383  0.1861
  695TIP3   OH223499   5.075   2.249   0.510  0.0807 -0.2253  0.1938
  695TIP3    H123500   5.069   2.243   0.605  1.2468  0.9597  0.3633
  695TIP3    H223501   4.985   2.236   0.479 -0.1697 -1.4711  1.3913
  696TIP3   OH223502   1.153   2.842  16.254 -0.6056  0.3064  0.4008
  696TIP3    H123503   1.105   2.766  16.288 -1.4625  1.9025  2.8577
  696TIP3    H223504   1.243   2.829  16.283 -0.3385 -0.6589 -0.7808
  697TIP3   OH223505   0.958   4.377  15.394 -0.2695 -0.3278 -0.5643
  697TIP3    H123506   0.933   4.449  15.336 -0.9145  1.1023  1.4475
  697TIP3    H223507   0.876   4.352  15.436  0.4200 -0.4927  0.6754
  698TIP3   OH223508   5.575   0.298  16.182  0.3992 -0.7947  0.4720
  698TIP3    H123509   5.493   0.348  16.179  0.3142 -0.9915 -1.0159
  698TIP3    H223510   5.625   0.329  16.106  2.3690  0.4095  2.2162
  699TIP3   OH223511   3.536   2.399   1.978 -0.6472  0.1145 -0.0743
  699TIP3    H123512   3.604   2.384   1.912 -1.1136  1.0222 -0.7706
  699TIP3    H223513   3.486   2.317   1.979 -1.4166  0.5404 -1.7854
  700TIP3   OH223514   1.854   3.813   0.650 -0.4844 -0.3765 -0.1947
  700TIP3    H123515   1.905   3.864   0.715  1.9337 -3.2324  0.2668
  700TIP3    H223516   1.886   3.844   0.566 -1.8475  1.5869 -0.0298
  701TIP3   OH223517   3.475   6.219   2.868 -0.1357 -0.1936 -0.4853
  701TIP3    H123518   3.445   6.252   2.953 -0.9048 -0.7403 -0.5343
  701TIP3    H223519   3.569   6.204   2.880 -0.4166 -1.1848  0.5734
  702TIP3   OH223520   0.357   2.658   4.681 -0.7439 -0.3303  0.4183
  702TIP3    H123521   0.348   2.577   4.731 -0.7481  0.5432  1.8565
  702TIP3    H223522   0.298   2.720   4.724 -0.3048  0.6018 -0.2981
  703TIP3   OH223523   4.850   6.725   1.810  0.3663  0.3855  0.0518
  703TIP3    H123524   4.798   6.669   1.752  0.2818  1.3806 -0.8493
  703TIP3    H223525   4.808   6.811   1.806  2.0402  1.2125 -0.6867
  704TIP3   OH223526   2.529   3.720  16.766  0.5153  0.1717  0.4429
  704TIP3    H123527   2.535   3.629  16.793 -0.0077  0.2961  0.9714
  704TIP3    H223528   2.475   3.718  16.687  1.7085 -0.1423 -0.3736
  705TIP3   OH223529   4.373   2.434  16.001 -0.4462  0.2250  0.6967
  705TIP3    H123530   4.319   2.367  16.042 -0.2939 -1.1382 -1.2855
  705TIP3    H223531   4.432   2.464  16.071  0.6278 -2.9032  1.1954
  706TIP3   OH223532   1.579   3.306   5.590  0.4787  0.2145  0.2493
  706TIP3    H123533   1.620   3.221   5.573  0.1574  0.2875 -0.9454
  706TIP3    H223534   1.620   3.337   5.671  1.5001 -0.5026  0.0096
  707TIP3   OH223535   2.923   0.346   3.164  0.4851  0.1990 -0.0471
  707TIP3    H123536   2.859   0.337   3.093  0.7035  0.4430 -0.2741
  707TIP3    H223537   2.902   0.274   3.224  0.8732 -0.5464 -0.7960
  708TIP3   OH223538   0.134   6.055  15.093 -0.4441  0.2600  0.3005
  708TIP3    H123539   0.138   6.101  15.009 -2.2797 -0.0297  0.0310
  708TIP3    H223540   0.074   5.983  15.078 -0.2754 -0.1844  1.6968
  709TIP3   OH223541   6.764   4.001  13.778 -0.5225  0.3149  0.1496
  709TIP3    H123542   6.810   3.972  13.699 -0.4711  1.9685 -0.4487
  709TIP3    H223543   6.763   4.097  13.771 -0.9245  0.4519  1.9323
  710TIP3   OH223544   0.717   3.845  13.133 -0.4350 -0.0274 -0.1391
  710TIP3    H123545   0.692   3.755  13.110 -0.4996 -0.4566  1.5318
  710TIP3    H223546   0.662   3.866  13.208  0.8696  0.7357  0.6196
  711TIP3   OH223547   5.502   5.218  14.357 -0.0605  0.8125  0.0582
  711TIP3    H123548   5.559   5.219  14.433  1.0223  0.0194 -0.7174
  711TIP3    H223549   5.451   5.298  14.364 -1.2327 -0.0931  2.5351
  712TIP3   OH223550   1.998   5.436   1.742 -0.6369 -0.3877 -0.3978
  712TIP3    H123551   2.025   5.375   1.674 -2.6125  0.3656 -1.8978
  712TIP3    H223552   2.072   5.496   1.752 -0.3975 -0.4043 -2.0033
  713TIP3   OH223553   5.159   2.888  15.534 -0.3947  0.0092  0.1949
  713TIP3    H123554   5.073   2.902  15.573 -0.6646 -0.4763 -0.2063
  713TIP3    H223555   5.141   2.877  15.441  0.1779  0.5776  0.0178
  714TIP3   OH223556   6.544   4.478  14.032 -0.8967  0.2029  0.3799
  714TIP3    H123557   6.632   4.485  14.068 -0.8399 -1.6558  0.6961
  714TIP3    H223558   6.487   4.502  14.104 -0.6739 -0.0719  0.6531
  715TIP3   OH223559   4.335   6.408   3.444 -0.3344  0.1544 -0.3272
  715TIP3    H123560   4.307   6.381   3.357 -0.1233  0.9769 -0.6567
  715TIP3    H223561   4.254   6.418   3.494 -0.5219  0.8149 -0.7651
  716TIP3   OH223562   3.785   6.308  13.214 -0.4430 -0.3130 -0.3080
  716TIP3    H123563   3.739   6.382  13.174 -1.1903 -0.8833 -0.5047
  716TIP3    H223564   3.838   6.272  13.143  1.2936  1.0898  0.2118
  717TIP3   OH223565   2.362   6.337  12.642  0.1414 -0.3491  0.0112
  717TIP3    H123566   2.334   6.347  12.732 -0.7183  1.8128 -0.4581
  717TIP3    H223567   2.303   6.270  12.605 -1.2081  0.6428  0.3524
  718TIP3   OH223568   6.237   3.232   1.970  1.3833  0.5264  0.0264
  718TIP3    H123569   6.231   3.320   2.007  0.8561  1.2100 -1.6204
  718TIP3    H223570   6.327   3.226   1.937  1.9405 -0.1849  1.6466
  719TIP3   OH223571   1.179   2.204  17.231  0.2152 -0.1575 -0.1888
  719TIP3    H123572   1.273   2.207  17.212  0.1856  0.0519 -0.3010
  719TIP3    H223573   1.175   2.172  17.321  0.3387 -1.3716 -0.6141
  720TIP3   OH223574   4.537   1.116  13.884  0.0018 -0.0486 -0.2776
  720TIP3    H123575   4.493   1.124  13.799 -0.7349 -2.2834 -0.1536
  720TIP3    H223576   4.466   1.122  13.948  0.8731  4.4754  0.3946
  721TIP3   OH223577   6.338   3.576   4.698  0.6708  0.3579 -0.3232
  721TIP3    H123578   6.331   3.631   4.776  1.8391  1.6160 -1.0904
  721TIP3    H223579   6.274   3.612   4.637 -0.7751 -1.0925  0.3160
  722TIP3   OH223580   6.002   2.922  11.707 -0.2275 -0.0051 -1.0270
  722TIP3    H123581   6.000   2.912  11.802 -1.5849  0.5326 -0.9909
  722TIP3    H223582   6.040   2.840  11.675 -1.8702 -1.1157 -0.1508
  723TIP3   OH223583   1.066   6.401  13.790  0.0322 -0.4050 -0.1231
  723TIP3    H123584   1.084   6.495  13.793 -0.8591 -0.2194 -0.4502
  723TIP3    H223585   1.089   6.375  13.701 -1.0026 -0.2198 -0.4588
  724TIP3   OH223586   2.168   5.740  13.476  0.2900 -0.2543  0.4566
  724TIP3    H123587   2.211   5.684  13.411  0.7185 -0.0689  0.5790
  724TIP3    H223588   2.084   5.763  13.435  1.8939  2.4938 -1.4099
  725TIP3   OH223589   0.749   6.170   5.915  0.1972  0.1102  0.7760
  725TIP3    H123590   0.838   6.197   5.939 -0.0589  1.7355 -0.0081
  725TIP3    H223591   0.746   6.077   5.934  2.0364  0.0638  0.9312
  726TIP3   OH223592   0.670   2.224   6.163  0.2837 -0.1586  0.4942
  726TIP3    H123593   0.618   2.305   6.162  2.1076  1.0341 -0.2029
  726TIP3    H223594   0.606   2.154   6.153 -0.9540  1.4150 -3.4076
  727TIP3   OH223595   4.156   4.097   1.766  0.5982 -0.0420 -0.0858
  727TIP3    H123596   4.169   4.077   1.859 -0.7993  2.1983  0.6311
  727TIP3    H223597   4.073   4.144   1.763  1.1786  0.9053 -2.3391
  728TIP3   OH223598   4.744   0.281   2.050 -0.2926  0.0589  0.0833
  728TIP3    H123599   4.739   0.244   2.139 -0.2493 -0.3668 -0.0910
  728TIP3    H223600   4.660   0.325   2.039  0.4125  1.6822  1.0199
  729TIP3   OH223601   2.347   4.625  13.923 -0.5315 -0.3629  1.1785
  729TIP3    H123602   2.403   4.637  13.999  0.7138 -2.7678  0.6925
  729TIP3    H223603   2.353   4.707  13.874  0.9056  0.1609  2.2244
  730TIP3   OH223604   5.851   5.528  15.857 -0.1015 -0.9839 -0.2339
  730TIP3    H123605   5.774   5.564  15.901 -0.8219 -0.0773 -2.1962
  730TIP3    H223606   5.815   5.475  15.786  1.0820 -1.3432 -0.5740
  731TIP3   OH223607   0.993   5.580   1.630  0.1166  0.1054 -0.8903
  731TIP3    H123608   1.005   5.486   1.640 -0.2457  0.0685 -0.7940
  731TIP3    H223609   0.929   5.589   1.560  1.2151  0.3203 -1.8675
  732TIP3   OH223610   5.729   4.992  11.395  0.4383 -0.4153  0.7095
  732TIP3    H123611   5.641   4.962  11.413  0.4668 -0.1361  1.3370
  732TIP3    H223612   5.717   5.070  11.341  0.2917 -0.1968  1.0567
  733TIP3   OH223613   3.774   6.345  14.909  0.2490 -0.3846 -0.0636
  733TIP3    H123614   3.705   6.306  14.856  0.1869  0.1581 -0.3898
  733TIP3    H223615   3.787   6.284  14.981  0.0192 -0.9039 -0.4642
  734TIP3   OH223616   6.032   5.613   3.290 -0.7007  0.3308 -0.7264
  734TIP3    H123617   6.078   5.697   3.283  0.2910 -0.0879  0.6120
  734TIP3    H223618   6.038   5.590   3.383 -0.3312 -1.5893 -1.2059
  735TIP3   OH223619   6.326   1.675   5.106 -0.6451 -0.5812 -0.2352
  735TIP3    H123620   6.333   1.648   5.015 -1.5702 -1.0878 -0.1629
  735TIP3    H223621   6.257   1.619   5.142 -1.8218  1.1237  0.2231
  736TIP3   OH223622   4.940   2.123   5.292 -0.1184 -0.3809  0.7827
  736TIP3    H123623   4.856   2.081   5.310 -0.6508  0.3170 -0.0750
  736TIP3    H223624   5.005   2.060   5.323 -0.9255 -1.4368  0.3530
  737TIP3   OH223625   2.013   0.801  13.338  0.0206  0.1515 -0.3724
  737TIP3    H123626   2.048   0.788  13.426  1.1531 -1.4686 -1.0320
  737TIP3    H223627   2.047   0.727  13.288 -0.4467  1.1676 -2.2214
  738TIP3   OH223628   0.794   0.097  15.344  0.1365  0.8031 -0.1377
  738TIP3    H123629   0.809   0.066  15.433  0.6411  1.9656  0.1894
  738TIP3    H223630   0.829   0.186  15.343 -0.4607  1.0351 -1.3170
  739TIP3   OH223631   6.125   6.498   1.787 -0.2848 -0.1275 -0.0702
  739TIP3    H123632   6.157   6.530   1.871 -0.0239  0.1218 -0.2656
  739TIP3    H223633   6.188   6.531   1.722 -0.3072 -0.5894 -0.3283
  740TIP3   OH223634   1.464   2.351  14.700 -0.0772 -0.6860  0.5470
  740TIP3    H123635   1.497   2.358  14.610 -0.9256 -0.2800  0.2612
  740TIP3    H223636   1.374   2.319  14.690 -0.2940 -0.3046  1.2308
  741TIP3   OH223637   3.365   1.504   3.856 -0.1680 -0.2776 -0.2665
  741TIP3    H123638   3.424   1.531   3.926  1.6280 -1.8061 -1.1301
  741TIP3    H223639   3.316   1.583   3.834  1.4998  1.0268  0.5627
  742TIP3   OH223640   0.313   0.833  13.297  0.1042  0.4409 -0.0552
  742TIP3    H123641   0.250   0.826  13.368  1.3515  0.1267  1.0321
  742TIP3    H223642   0.374   0.901  13.325 -0.2338  1.3684 -1.4944
  743TIP3   OH223643   2.570   0.910   4.942 -0.1771 -0.2698 -0.1729
  743TIP3    H123644   2.650   0.859   4.953 -0.5822 -0.6317  1.0701
  743TIP3    H223645   2.600   1.001   4.937  0.3316 -0.4281  0.0129
  744TIP3   OH223646   4.958   2.394   3.127 -0.0208 -0.2014 -0.5967
  744TIP3    H123647   4.910   2.387   3.044  0.2494 -2.7593 -0.5931
  744TIP3    H223648   4.893   2.373   3.194  0.1725  0.2021 -0.2833
  745TIP3   OH223649   3.303   1.890   2.346  0.3810 -0.0409  0.0435
  745TIP3    H123650   3.364   1.960   2.369 -0.2448  0.3609  0.5119
  745TIP3    H223651   3.324   1.819   2.407 -1.3830  1.0798  2.0579
  746TIP3   OH223652   4.724   0.294  15.773  0.0504  0.6493  0.0385
  746TIP3    H123653   4.756   0.332  15.691  1.4977  0.2601  0.4098
  746TIP3    H223654   4.789   0.320  15.838  0.1373 -0.9877  0.6296
  747TIP3   OH223655   2.920   4.738   2.350 -0.0615 -0.7638  0.4333
  747TIP3    H123656   2.924   4.649   2.384  0.6436 -0.5926  0.8056
  747TIP3    H223657   2.920   4.728   2.255  3.7510 -1.0446  0.3868
  748TIP3   OH223658   4.609   6.464  16.358  0.6404  0.9995 -0.0967
  748TIP3    H123659   4.590   6.535  16.297 -1.6800 -0.8452 -1.6179
  748TIP3    H223660   4.647   6.395  16.305  2.1449  0.7867  1.2274
  749TIP3   OH223661   2.054   3.384  16.131 -0.2597 -0.0747 -0.3467
  749TIP3    H123662   1.979   3.443  16.137 -0.4799 -0.1038 -2.4770
  749TIP3    H223663   2.120   3.433  16.082  0.6481 -0.5181  0.4182
  750TIP3   OH223664   6.069   3.494   0.170  0.8200  0.4602  0.1096
  750TIP3    H123665   6.129   3.486   0.244  0.8856  0.5159  0.0633
  750TIP3    H223666   6.107   3.563   0.116 -0.0051  1.4431  0.7634
  751TIP3   OH223667   3.798   6.196  14.570  0.0654 -0.0658  0.3767
  751TIP3    H123668   3.755   6.130  14.625  0.2858 -0.7269 -0.2366
  751TIP3    H223669   3.732   6.265  14.560 -0.6021 -0.7325  0.0562
  752TIP3   OH223670   0.771   4.714  16.520  1.1707 -0.0060 -0.1799
  752TIP3    H123671   0.810   4.790  16.477  0.2167  0.7108  0.1996
  752TIP3    H223672   0.831   4.694  16.592  0.2513  1.8744  1.1813
  753TIP3   OH223673   3.459   6.312   6.372 -0.0192  0.1983 -0.4767
  753TIP3    H123674   3.497   6.392   6.337  0.4235  1.0356  1.8018
  753TIP3    H223675   3.370   6.337   6.397  1.0682  0.8762  3.0348
  754TIP3   OH223676   3.948   5.628  12.564  0.4392 -1.0267 -0.6565
  754TIP3    H123677   3.971   5.589  12.480  1.7082 -0.5846 -0.5268
  754TIP3    H223678   3.950   5.556  12.626 -0.7586 -1.4044 -1.0408
  755TIP3   OH223679   5.886   6.659  10.888  0.2225 -0.3929 -0.8219
  755TIP3    H123680   5.841   6.731  10.930  2.0374  0.6198 -0.5474
  755TIP3    H223681   5.943   6.701  10.823 -0.0120 -1.6905 -1.8867
  756TIP3   OH223682   1.460   5.705   2.829 -0.2152  0.2350  0.0368
  756TIP3    H123683   1.446   5.785   2.779  0.8587 -0.1697 -0.9415
  756TIP3    H223684   1.387   5.648   2.804 -0.6527  0.6847  0.2818
  757TIP3   OH223685   4.087   2.762  11.586 -0.1600  0.3630 -0.2471
  757TIP3    H123686   4.035   2.842  11.575  1.0438  1.1951  0.0644
  757TIP3    H223687   4.138   2.777  11.665  1.8455  0.2853 -1.4985
  758TIP3   OH223688   4.112   0.893   5.905 -0.1006  0.4751  0.4679
  758TIP3    H123689   4.028   0.850   5.920  0.0061  0.3531  0.7229
  758TIP3    H223690   4.174   0.842   5.957  0.3699 -0.2637 -0.7929
  759TIP3   OH223691   3.367   5.863   1.031  0.4491  0.3668 -0.2453
  759TIP3    H123692   3.416   5.903   0.960  1.9840 -1.8161 -0.4937
  759TIP3    H223693   3.388   5.769   1.025  0.0762  0.0260  2.6304
  760TIP3   OH223694   2.369   1.897   4.695  0.1795 -0.3562  0.6957
  760TIP3    H123695   2.414   1.922   4.776  1.1963  0.4564 -0.0932
  760TIP3    H223696   2.315   1.973   4.673 -0.5925 -0.8295  0.9575
  761TIP3   OH223697   0.695   0.778   4.015  0.2165 -0.0705  0.5380
  761TIP3    H123698   0.632   0.827   4.068 -0.1089 -0.9617  0.9858
  761TIP3    H223699   0.641   0.729   3.953  0.5296 -0.0253  0.2290
  762TIP3   OH223700   3.930   2.243  16.035 -0.3398 -0.5946  0.0884
  762TIP3    H123701   3.838   2.267  16.042  0.5188  2.6791  1.1202
  762TIP3    H223702   3.947   2.191  16.114 -1.1042 -0.5146  0.3087
  763TIP3   OH223703   2.705   0.658   0.916  0.2257  0.7852 -0.1295
  763TIP3    H123704   2.687   0.574   0.957 -1.0013  1.5065  0.8524
  763TIP3    H223705   2.618   0.693   0.895  0.7767  1.0696 -2.0618
  764TIP3   OH223706   1.508   6.132   0.846 -0.3504 -0.6338  0.4730
  764TIP3    H123707   1.587   6.104   0.893 -0.4840 -1.3354  0.2893
  764TIP3    H223708   1.516   6.092   0.760  0.0387  0.8940 -0.2214
  765TIP3   OH223709   2.869   2.208   0.568  0.1743 -0.0465  0.1890
  765TIP3    H123710   2.897   2.232   0.480  0.5630 -2.2663 -0.3305
  765TIP3    H223711   2.931   2.253   0.626  1.1093 -0.1109 -0.7490
  766TIP3   OH223712   6.375   5.821   1.981 -0.3189  0.2281  0.5173
  766TIP3    H123713   6.412   5.889   1.926 -1.8707  0.4219 -0.3143
  766TIP3    H223714   6.311   5.777   1.926 -1.8577  0.3827  2.1286
  767TIP3   OH223715   3.990   4.936   1.527 -0.0173  0.1662  0.0632
  767TIP3    H123716   3.918   4.921   1.588 -0.7361  0.8645 -0.6165
  767TIP3    H223717   3.972   4.879   1.453 -0.5171  1.2337 -0.6463
  768TIP3   OH223718   6.599   6.581   1.339  0.1083 -0.4034  0.0565
  768TIP3    H123719   6.663   6.646   1.369 -0.8394  1.0960 -1.1047
  768TIP3    H223720   6.587   6.522   1.414  1.4622  0.3705  0.9017
  769TIP3   OH223721   6.531   0.259  11.092  0.2752 -0.3560 -0.2677
  769TIP3    H123722   6.500   0.247  11.182  1.3772  1.6669  0.4184
  769TIP3    H223723   6.623   0.286  11.102  0.4431 -0.2306 -2.0113
  770TIP3   OH223724   6.491   2.163  12.626  0.1619  0.2221 -0.8297
  770TIP3    H123725   6.502   2.092  12.689  1.0718  0.7119 -0.4382
  770TIP3    H223726   6.503   2.243  12.677  1.3151  0.6133 -1.6924
  771TIP3   OH223727   1.960   2.210  11.833  0.0281  0.3389  0.3129
  771TIP3    H123728   2.019   2.277  11.798  0.0162  1.1450  1.7752
  771TIP3    H223729   1.974   2.214  11.928  0.1547 -1.8722  0.3973
  772TIP3   OH223730   2.749   3.908   4.224 -0.3764 -0.1625  0.0453
  772TIP3    H123731   2.789   3.983   4.267 -0.4265 -0.5570  0.7825
  772TIP3    H223732   2.700   3.864   4.293 -0.6532 -0.6656 -0.4665
  773TIP3   OH223733   6.399   2.141   0.914 -0.8154  0.1798  0.0361
  773TIP3    H123734   6.308   2.115   0.933 -0.4330 -0.6061  0.8056
  773TIP3    H223735   6.430   2.075   0.851  0.8906 -2.6937  3.6950
  774TIP3   OH223736   5.681   6.077   1.437  0.3360 -0.0651  0.7845
  774TIP3    H123737   5.608   6.064   1.498 -1.0829  1.7837 -0.4574
  774TIP3    H223738   5.726   6.154   1.472  0.3552  0.1445  0.2934
  775TIP3   OH223739   4.150   6.684   1.105  0.2772 -0.1456 -0.5519
  775TIP3    H123740   4.153   6.617   1.174 -0.7567 -1.2199 -1.5425
  775TIP3    H223741   4.135   6.635   1.024 -0.1785  1.2537 -1.3268
  776TIP3   OH223742   1.572   6.024   3.902 -0.5619  0.3722  0.4781
  776TIP3    H123743   1.515   5.947   3.897  2.4941 -1.9675  0.3793
  776TIP3    H223744   1.583   6.050   3.810 -1.6660  1.0334  0.5165
  777TIP3   OH223745   5.019   3.248  14.377 -0.1300 -0.2657 -0.1001
  777TIP3    H123746   4.923   3.242  14.377 -0.1565  0.1653 -0.2094
  777TIP3    H223747   5.043   3.241  14.469 -0.4579  2.5792  0.2472
  778TIP3   OH223748   3.648   6.340  11.245  0.2618 -0.4920 -0.5231
  778TIP3    H123749   3.692   6.319  11.162  1.2878  1.6925 -0.5794
  778TIP3    H223750   3.555   6.345  11.223  0.3217 -1.8918 -1.1167
  779TIP3   OH223751   3.514   6.575   4.597  0.1766  0.5150  0.0149
  779TIP3    H123752   3.443   6.639   4.589 -0.4821 -0.0440  1.2755
  779TIP3    H223753   3.551   6.592   4.684  0.8879  0.1007 -0.2096
  780TIP3   OH223754   5.568   4.770  13.894  0.1988 -0.0951 -0.2304
  780TIP3    H123755   5.537   4.749  13.983 -0.0779 -0.9727 -0.5289
  780TIP3    H223756   5.506   4.836  13.863 -0.9095 -1.2289 -0.5011
  781TIP3   OH223757   4.233   0.557  16.608  0.1425 -0.1737 -0.1381
  781TIP3    H123758   4.214   0.589  16.696  0.2736  0.3964 -0.3140
  781TIP3    H223759   4.261   0.635  16.559 -1.7866 -0.1106 -1.2145
  782TIP3   OH223760   0.128   5.140  13.845  0.5454 -0.2586 -0.0636
  782TIP3    H123761   0.145   5.168  13.756  0.4796 -0.2871 -0.0852
  782TIP3    H223762   0.213   5.112  13.879  0.4740 -0.7833 -0.3070
  783TIP3   OH223763   3.289   2.674  12.240 -0.4320  0.1506  0.2097
  783TIP3    H123764   3.316   2.634  12.323  2.0348  0.5395 -0.3858
  783TIP3    H223765   3.337   2.625  12.173 -1.4888  0.6321 -0.9132
  784TIP3   OH223766   5.810   5.169  16.395  0.2433 -0.5651  0.1302
  784TIP3    H123767   5.789   5.255  16.359  1.0398 -0.7554 -0.8181
  784TIP3    H223768   5.820   5.113  16.318  3.2789 -0.6697  0.5202
  785TIP3   OH223769   2.023   0.323  12.654 -0.0017 -0.1498  0.0944
  785TIP3    H123770   2.101   0.360  12.614  0.0242 -0.2166  0.0839
  785TIP3    H223771   2.047   0.233  12.676  0.3030  0.1893  1.1589
  786TIP3   OH223772   6.360   0.239  15.327 -0.1014  0.3416  0.3705
  786TIP3    H123773   6.435   0.292  15.354 -0.0700 -0.0318  1.0507
  786TIP3    H223774   6.352   0.253  15.233  2.1413 -1.2339 -0.1026
  787TIP3   OH223775   6.744   2.648  12.568 -0.0677 -0.1008  0.4532
  787TIP3    H123776   6.826   2.692  12.548  1.1764 -2.2351  0.6346
  787TIP3    H223777   6.716   2.686  12.651  0.2929  1.2345 -0.0217
  788TIP3   OH223778   5.325   3.268   5.541 -0.3345  0.6632 -0.4417
  788TIP3    H123779   5.291   3.248   5.628  1.0981  0.7765  0.1592
  788TIP3    H223780   5.286   3.352   5.518  0.0253  1.0874  0.5015
  789TIP3   OH223781   1.123   6.311   2.514  0.6686 -0.0434  0.5152
  789TIP3    H123782   1.035   6.299   2.478  1.5156 -2.0402 -0.9467
  789TIP3    H223783   1.178   6.329   2.437  2.1167 -2.1954  1.0127
  790TIP3   OH223784   1.379   0.541  12.614  0.1767  0.2967  0.3063
  790TIP3    H123785   1.398   0.630  12.644 -3.1883  1.0561  0.4815
  790TIP3    H223786   1.402   0.542  12.521  1.9980  0.7509  0.7515
  791TIP3   OH223787   5.651   3.699  14.979  0.4833 -0.7456 -0.6355
  791TIP3    H123788   5.742   3.704  14.951  0.3917 -0.3397 -0.8603
  791TIP3    H223789   5.610   3.777  14.942 -0.0967 -1.2502 -1.0561
  792TIP3   OH223790   3.929   1.715   5.754 -0.3445 -0.1873  0.1333
  792TIP3    H123791   3.889   1.736   5.670  0.8890  0.2288 -0.3679
  792TIP3    H223792   3.946   1.800   5.794  1.3413 -0.3061 -0.2951
  793TIP3   OH223793   1.885   6.006   4.114  0.2644 -0.4579  0.2783
  793TIP3    H123794   1.961   6.006   4.056 -0.8950 -0.4375 -1.2791
  793TIP3    H223795   1.918   5.972   4.197  2.0204 -0.2176 -0.3018
  794TIP3   OH223796   1.671   2.753  16.696  0.3123  0.5291  0.0147
  794TIP3    H123797   1.702   2.664  16.679  0.4488  0.5019  0.3932
  794TIP3    H223798   1.736   2.790  16.755 -0.8444  0.1445  1.5820
  795TIP3   OH223799   1.678   2.510  15.853  0.5708 -0.0035 -0.3606
  795TIP3    H123800   1.643   2.586  15.900  0.5278 -0.4460  0.3163
  795TIP3    H223801   1.668   2.533  15.760 -0.6133  0.2929 -0.1685
  796TIP3   OH223802   4.229   6.632   3.156  0.0887 -0.9655  0.0412
  796TIP3    H123803   4.157   6.655   3.099  0.2396  0.0215  0.2369
  796TIP3    H223804   4.296   6.597   3.098 -0.0947 -0.7804 -0.2799
  797TIP3   OH223805   0.094   0.548  14.742  0.2152 -0.4908 -0.3626
  797TIP3    H123806   0.157   0.516  14.806  1.2086  3.1175  0.5427
  797TIP3    H223807   0.022   0.583  14.794 -0.9498 -1.3647 -1.3443
  798TIP3   OH223808   5.250   3.932   0.277  0.0666 -0.7051 -0.1615
  798TIP3    H123809   5.322   3.975   0.231 -0.0025 -1.9391 -1.4528
  798TIP3    H223810   5.282   3.844   0.294 -0.5411 -0.7620  0.6916
  799TIP3   OH223811   0.403   1.675   3.211  0.1240 -0.0641 -0.1762
  799TIP3    H123812   0.488   1.675   3.254  1.4138 -1.2454 -2.6444
  799TIP3    H223813   0.398   1.760   3.168  0.8087 -0.6105 -1.3808
  800TIP3   OH223814   1.341   3.080   1.411  0.1515  0.3294  0.1262
  800TIP3    H123815   1.419   3.064   1.464  0.8015 -0.5246 -1.0594
  800TIP3    H223816   1.365   3.151   1.352 -0.0581  0.2502 -0.0583
  801TIP3   OH223817   2.237   5.412   5.858  0.1764 -0.2465  0.3297
  801TIP3    H123818   2.194   5.401   5.942 -0.9636  0.6717 -0.1243
  801TIP3    H223819   2.241   5.507   5.844 -1.3461 -0.4078 -1.4859
  802TIP3   OH223820   0.893   5.156  14.257  0.3888  0.2543 -0.0550
  802TIP3    H123821   0.883   5.248  14.233 -0.5119 -0.2010 -1.4507
  802TIP3    H223822   0.952   5.120  14.191  2.0449  0.1782  1.4121
  803TIP3   OH223823   4.427   2.184   3.690 -0.3542  0.6402 -0.3607
  803TIP3    H123824   4.519   2.207   3.676 -0.1201  1.4246  2.1775
  803TIP3    H223825   4.417   2.098   3.650  0.9099  1.4816 -2.5888
  804TIP3   OH223826   2.418   1.984  13.220  0.3930 -0.8261 -0.6109
  804TIP3    H123827   2.349   1.968  13.284  1.0178 -2.1688 -0.2596
  804TIP3    H223828   2.486   2.031  13.269  0.0207 -0.1054 -0.7864
  805TIP3   OH223829   3.824   0.350   0.590  0.3324 -0.3791 -0.0057
  805TIP3    H123830   3.901   0.293   0.592 -0.4739 -1.5721 -1.4524
  805TIP3    H223831   3.752   0.293   0.617 -0.3208  0.2281 -0.4615
  806TIP3   OH223832   3.823   4.576   5.166 -0.2840  0.4759 -0.0264
  806TIP3    H123833   3.915   4.589   5.145 -0.1654 -1.1881 -0.5314
  806TIP3    H223834   3.817   4.487   5.200 -1.4359  1.1458  1.6075
  807TIP3   OH223835   0.602   5.553  10.931 -0.6496 -0.1422 -0.1611
  807TIP3    H123836   0.535   5.583  10.870 -1.2411 -0.4926  0.3024
  807TIP3    H223837   0.674   5.615  10.922 -1.4670  0.8476  0.0988
  808TIP3   OH223838   1.767   2.622   4.501  0.2108  0.0164  0.0034
  808TIP3    H123839   1.785   2.713   4.476  1.0169 -0.6009 -1.6894
  808TIP3    H223840   1.719   2.585   4.427  0.6222 -1.1964  0.3263
  809TIP3   OH223841   3.013   2.979   4.513  0.6162 -0.3806  0.3265
  809TIP3    H123842   3.025   3.072   4.530 -1.8014 -0.1168  0.8356
  809TIP3    H223843   2.937   2.954   4.567  1.0028 -2.5499 -0.0665
  810TIP3   OH223844   1.244   4.650  13.079  0.4331  0.0096 -0.1991
  810TIP3    H123845   1.165   4.643  13.133  0.3651 -0.2874 -0.3387
  810TIP3    H223846   1.274   4.560  13.068  0.3537  0.0527 -0.7927
  811TIP3   OH223847   4.893   4.018   5.352 -0.2462 -0.0981  0.2203
  811TIP3    H123848   4.974   3.969   5.367  1.2905  2.0537 -0.7349
  811TIP3    H223849   4.897   4.044   5.260 -1.0105  1.7641  0.6863
  812TIP3   OH223850   0.462   2.390   2.209  0.2430  0.1779 -0.3941
  812TIP3    H123851   0.423   2.316   2.254 -0.0305  0.0942 -0.7680
  812TIP3    H223852   0.530   2.421   2.268 -0.5248  0.4532  0.3636
  813TIP3   OH223853   2.627   0.511  15.319 -0.4603 -0.0736  0.5551
  813TIP3    H123854   2.602   0.583  15.377  0.0214 -0.7132  1.5606
  813TIP3    H223855   2.721   0.502  15.332  0.2075  1.6766 -2.4791
  814TIP3   OH223856   3.061   1.261   5.652 -0.2038 -0.5441 -0.2290
  814TIP3    H123857   2.994   1.197   5.677 -0.2435 -0.7604 -0.8860
  814TIP3    H223858   3.045   1.336   5.709  0.1656 -1.3178  0.9195
  815TIP3   OH223859   3.467   4.071  16.512  0.4944 -0.3283  0.5832
  815TIP3    H123860   3.519   4.093  16.435  2.1438 -0.1042  1.7406
  815TIP3    H223861   3.501   3.986  16.540  0.9188  0.2984  1.9518
  816TIP3   OH223862   6.642   0.346  12.163  0.0115 -0.1724 -0.2369
  816TIP3    H123863   6.560   0.360  12.117 -0.0326  1.5953  0.2993
  816TIP3    H223864   6.702   0.310  12.098 -0.0897  2.1336 -1.6674
  817TIP3   OH223865   1.654   6.540  16.802  0.5198 -0.2542 -0.1714
  817TIP3    H123866   1.724   6.574  16.747  0.0316  0.3992 -0.3923
  817TIP3    H223867   1.699   6.489  16.870  1.1552 -0.5264 -0.7947
  818TIP3   OH223868   4.075   4.466   1.769  0.0094  0.1762 -0.0305
  818TIP3    H123869   4.084   4.493   1.677 -1.6776  0.5226 -0.1150
  818TIP3    H223870   4.004   4.520   1.803  0.4720 -0.1054  1.4325
  819TIP3   OH223871   3.490   0.543  13.987  0.1638 -0.4877 -0.0370
  819TIP3    H123872   3.397   0.522  13.993  0.3238 -0.9382  0.8617
  819TIP3    H223873   3.512   0.580  14.073  0.9985 -1.1147  0.0206
  820TIP3   OH223874   4.286   3.979  15.704 -0.3779  0.6115  0.0853
  820TIP3    H123875   4.214   3.940  15.754  0.0135  0.3545  0.4563
  820TIP3    H223876   4.306   4.059  15.751 -0.3016  0.5917  0.0861
  821TIP3   OH223877   3.985   5.892   2.379 -0.6004  0.4885 -0.5944
  821TIP3    H123878   3.902   5.938   2.388 -0.3466  0.5091  1.8959
  821TIP3    H223879   3.962   5.812   2.330 -1.5693  1.7569 -2.2756
  822TIP3   OH223880   6.244   4.709  15.969  0.0138 -0.2608 -0.5551
  822TIP3    H123881   6.151   4.730  15.959 -0.8964 -2.4379  2.7253
  822TIP3    H223882   6.280   4.781  16.021 -0.4828 -0.8514  0.6116
  823TIP3   OH223883   2.729   3.430  14.501 -0.1642 -0.0051 -0.5226
  823TIP3    H123884   2.787   3.493  14.544 -1.2791  0.0742  0.9122
  823TIP3    H223885   2.745   3.347  14.545 -0.6581 -0.1272 -0.5622
  824TIP3   OH223886   0.788   2.390  14.744  0.4836 -0.0528 -0.6670
  824TIP3    H123887   0.751   2.379  14.656  1.0065  0.5648 -0.9665
  824TIP3    H223888   0.761   2.311  14.792  0.1313 -0.3517 -1.3567
  825TIP3   OH223889   6.137   3.890   0.885  0.2860 -0.1574 -0.2638
  825TIP3    H123890   6.083   3.840   0.946  1.5429 -1.6740 -0.3666
  825TIP3    H223891   6.219   3.841   0.880  1.2053  1.4204 -1.0888
  826TIP3   OH223892   4.918   6.362  15.036  0.0940  0.0598 -0.0281
  826TIP3    H123893   4.857   6.306  15.085  2.0324 -1.4057  0.7923
  826TIP3    H223894   4.994   6.371  15.094  0.3267  2.6007 -0.6474
  827TIP3   OH223895   1.232   6.648   0.857  0.6110 -0.2797 -0.4104
  827TIP3    H123896   1.324   6.630   0.836  0.3562 -0.2389 -1.6384
  827TIP3    H223897   1.223   6.743   0.846  0.8915  0.0180  1.6987
  828TIP3   OH223898   3.967   3.200  14.885 -0.4984  0.1794 -0.0716
  828TIP3    H123899   4.040   3.254  14.913 -0.3728  0.4077 -0.8349
  828TIP3    H223900   3.965   3.208  14.790 -0.6058 -0.9836 -0.1813
  829TIP3   OH223901   4.529   6.691  11.831 -0.2530 -0.6700  0.8225
  829TIP3    H123902   4.437   6.698  11.857 -0.0746  1.3252  1.0452
  829TIP3    H223903   4.534   6.740  11.749  0.4381 -1.5393  0.3479
  830TIP3   OH223904   6.445   0.492  14.611  0.8544 -0.0617 -0.2768
  830TIP3    H123905   6.520   0.550  14.614  0.2743  0.6664  0.3093
  830TIP3    H223906   6.412   0.500  14.521  0.3127  1.1178  0.0178
  831TIP3   OH223907   4.941   5.559  16.906 -0.2493  0.4157 -0.0273
  831TIP3    H123908   5.018   5.547  16.850  0.6483  1.5129  0.9417
  831TIP3    H223909   4.970   5.530  16.993 -2.0631 -2.6578 -0.3517
  832TIP3   OH223910   0.819   0.152  11.158 -0.4511  0.1915 -0.7755
  832TIP3    H123911   0.884   0.107  11.104  0.5896 -0.4528  0.9552
  832TIP3    H223912   0.750   0.087  11.174  0.3927 -0.4009  0.5948
  833TIP3   OH223913   5.056   6.088   2.110  0.0278 -0.6752  0.2599
  833TIP3    H123914   5.004   6.098   2.031 -0.8750 -1.0830  0.7968
  833TIP3    H223915   5.088   6.177   2.129 -1.1545 -0.2632  0.3803
  834TIP3   OH223916   6.150   3.406  12.704  0.0561  0.4356  0.5623
  834TIP3    H123917   6.139   3.312  12.691  2.4467  0.4040 -1.5436
  834TIP3    H223918   6.062   3.443  12.693 -0.6409 -1.3767 -0.0877
  835TIP3   OH223919   6.284   6.262   0.329  0.4420 -0.1331  0.1262
  835TIP3    H123920   6.261   6.220   0.246  2.1386 -0.5727 -0.1383
  835TIP3    H223921   6.336   6.197   0.375 -0.8981 -0.0726  1.7652
  836TIP3   OH223922   1.581   1.805  15.264  0.0296  0.5909  0.6556
  836TIP3    H123923   1.511   1.839  15.209  0.7495 -0.0767 -0.7095
  836TIP3    H223924   1.566   1.844  15.350 -1.3374  1.3489  0.0817
  837TIP3   OH223925   1.702   1.296   1.328  0.3639 -0.0276 -0.5182
  837TIP3    H123926   1.637   1.226   1.327  1.5642 -1.1612 -0.9322
  837TIP3    H223927   1.680   1.351   1.253 -2.3452  1.7154  1.4669
  838TIP3   OH223928   4.205   1.428   0.305 -0.1873 -0.1206  0.0303
  838TIP3    H123929   4.277   1.381   0.266  0.5494  0.5963  0.5079
  838TIP3    H223930   4.173   1.486   0.235 -0.9100 -1.1035 -0.4656
  839TIP3   OH223931   5.338   5.487   1.846 -0.3940  0.4848 -0.2380
  839TIP3    H123932   5.340   5.523   1.757  0.7365 -1.2420 -0.9443
  839TIP3    H223933   5.254   5.442   1.852 -0.9253  1.4929 -0.0642
  840TIP3   OH223934   4.014   3.166   1.319  0.4574 -0.3071  0.0376
  840TIP3    H123935   3.961   3.095   1.283 -1.2520 -0.1834  2.2665
  840TIP3    H223936   3.958   3.243   1.315  1.7596  0.6259 -0.9215
  841TIP3   OH223937   4.765   5.198  13.668 -0.3040 -0.4596  0.0963
  841TIP3    H123938   4.686   5.218  13.717 -0.1014 -1.7257  0.9750
  841TIP3    H223939   4.800   5.283  13.643 -1.3940  0.1386  0.5780
  842TIP3   OH223940   1.448   0.349  12.816  0.7564 -0.5978 -0.1949
  842TIP3    H123941   1.364   0.347  12.862  0.4508  1.0903 -0.6482
  842TIP3    H223942   1.441   0.424  12.757  3.1715  0.5527  0.8964
  843TIP3   OH223943   0.030   1.550  14.824 -0.0027 -0.2981 -0.5984
  843TIP3    H123944   0.074   1.595  14.753 -1.4382  0.3635 -1.0857
  843TIP3    H223945  -0.049   1.514  14.785 -0.3574 -0.7014  0.4630
  844TIP3   OH223946   4.196   2.601   5.811 -1.0643 -0.0586  0.4296
  844TIP3    H123947   4.220   2.693   5.825  0.7428 -0.4343  0.0177
  844TIP3    H223948   4.276   2.553   5.833 -2.0278 -1.5377  0.7249
  845TIP3   OH223949   6.781   5.219   6.102 -0.3285  0.3364  0.4332
  845TIP3    H123950   6.804   5.132   6.069  0.6180  0.4789  0.6994
  845TIP3    H223951   6.813   5.279   6.035 -1.4875  0.4545 -0.0193
  846TIP3   OH223952   4.623   1.507  12.454  0.2749  0.4950  0.0942
  846TIP3    H123953   4.571   1.481  12.377  2.3752 -0.8786 -0.9061
  846TIP3    H223954   4.685   1.571  12.419  1.4980 -0.4274  0.5505
  847TIP3   OH223955   0.415   3.696   0.607 -0.1699 -0.3495  0.6221
  847TIP3    H123956   0.426   3.655   0.521 -0.7717 -0.1419  0.4501
  847TIP3    H223957   0.501   3.687   0.648  1.0481  2.2542 -1.1904
  848TIP3   OH223958   2.553   4.729  15.492  0.1394 -0.7425 -0.0751
  848TIP3    H123959   2.501   4.656  15.524  0.5460 -1.6643 -1.4840
  848TIP3    H223960   2.604   4.693  15.420 -0.4544  1.1655 -1.5053
  849TIP3   OH223961   4.401   4.235   5.713 -0.0790  0.0144 -0.4340
  849TIP3    H123962   4.361   4.320   5.731  1.3603  0.3052  1.6216
  849TIP3    H223963   4.410   4.231   5.618  1.0686  2.7568 -0.4669
  850TIP3   OH223964   4.535   5.843   4.740  0.3756 -0.4160 -0.7989
  850TIP3    H123965   4.469   5.886   4.795 -1.1725 -2.0434 -1.3357
  850TIP3    H223966   4.617   5.855   4.787 -0.2540  1.8254 -0.2078
  851TIP3   OH223967   0.170   2.262   2.269 -0.1230 -0.3020  0.4221
  851TIP3    H123968   0.125   2.340   2.238  1.3485 -0.0863 -1.2292
  851TIP3    H223969   0.181   2.276   2.363 -0.0084  1.3998  0.1611
  852TIP3   OH223970   3.127   6.014   5.788  0.0622  0.6406 -0.1938
  852TIP3    H123971   3.049   5.959   5.783  0.4069 -0.0780  1.9740
  852TIP3    H223972   3.103   6.093   5.740 -1.7967  0.1815 -0.0569
  853TIP3   OH223973   0.879   6.385   1.420  0.4347  0.1105 -0.4094
  853TIP3    H123974   0.786   6.406   1.424  0.3189 -0.5202  0.2888
  853TIP3    H223975   0.919   6.460   1.377 -0.0993  1.3740  1.2642
  854TIP3   OH223976   3.546   5.424   2.684 -0.5974  0.4360 -0.1241
  854TIP3    H123977   3.565   5.370   2.761 -0.1471  2.7555  1.4528
  854TIP3    H223978   3.466   5.471   2.707  1.1804  3.4195  0.2255
  855TIP3   OH223979   5.563   1.377  12.089 -0.4716 -0.6744 -0.3906
  855TIP3    H123980   5.531   1.293  12.057  1.4537 -1.0662 -1.3465
  855TIP3    H223981   5.652   1.385  12.053  0.1652  0.7953  1.4029
  856TIP3   OH223982   6.029   5.175   5.723  0.8186 -0.4837  0.1122
  856TIP3    H123983   6.103   5.139   5.771  0.2784 -1.3166  0.3190
  856TIP3    H223984   6.042   5.270   5.726  0.9334 -0.5424  1.6606
  857TIP3   OH223985   2.141   5.096  15.026  0.3104 -0.1185  0.0931
  857TIP3    H123986   2.073   5.059  15.083 -0.3612 -0.4306 -0.9030
  857TIP3    H223987   2.211   5.122  15.086 -0.9953  0.8749  1.2078
  858TIP3   OH223988   5.942   5.170   0.793 -0.1429  0.2573  0.0351
  858TIP3    H123989   5.959   5.097   0.734 -0.4972 -0.6000  0.9791
  858TIP3    H223990   6.000   5.240   0.763  0.3949 -0.5027 -0.7021
  859TIP3   OH223991   4.233   3.160  17.215 -0.1538 -0.6801 -0.3254
  859TIP3    H123992   4.202   3.069  17.221 -0.4597 -0.6138 -0.8869
  859TIP3    H223993   4.211   3.187  17.126 -1.1937  0.3547  0.2256
  860TIP3   OH223994   4.279   1.260  11.462 -0.8321 -0.1360 -0.2619
  860TIP3    H123995   4.266   1.334  11.402 -1.3351  0.2630  0.3343
  860TIP3    H223996   4.365   1.226  11.440 -0.5515  0.7007 -0.4715
  861TIP3   OH223997   4.548   3.122  12.838 -0.7958 -0.3813 -0.1407
  861TIP3    H123998   4.597   3.052  12.880 -0.3913  0.5115  0.9013
  861TIP3    H223999   4.456   3.098  12.849 -0.6949 -0.1050  1.3608
  862TIP3   OH224000   3.885   3.510  14.834 -0.5316 -0.6391  0.7654
  862TIP3    H124001   3.918   3.476  14.918 -1.1614 -0.6224  1.0245
  862TIP3    H224002   3.791   3.524  14.850 -0.5592 -0.1957  0.1965
  863TIP3   OH224003   1.006   2.763   5.103  0.1631 -0.2832  0.2452
  863TIP3    H124004   1.010   2.857   5.122  1.7424 -0.5242  1.1852
  863TIP3    H224005   0.984   2.723   5.187  2.5080 -0.9862  0.5373
  864TIP3   OH224006   3.868   1.695  11.919 -0.2146 -0.4522  0.4992
  864TIP3    H124007   3.795   1.681  11.980 -1.2082 -0.3361 -0.6503
  864TIP3    H224008   3.840   1.769  11.865  0.9980 -0.0494  0.4003
  865TIP3   OH224009   2.303   4.254  14.438  0.0101 -0.6478  0.0723
  865TIP3    H124010   2.216   4.294  14.448  1.4430  2.3620  0.8393
  865TIP3    H224011   2.325   4.268  14.346  0.3742 -0.0066  0.2608
  866TIP3   OH224012   4.599   2.122   5.084 -0.0879  0.0151  0.0202
  866TIP3    H124013   4.622   2.204   5.129  0.1156  0.1318 -0.2971
  866TIP3    H224014   4.516   2.095   5.125 -0.0954  0.3168  0.2058
  867TIP3   OH224015   0.592   3.033  14.236  0.2376 -0.3261 -0.0759
  867TIP3    H124016   0.608   2.997  14.323  1.5249  3.5919  1.4018
  867TIP3    H224017   0.514   2.988  14.206  1.5804 -4.0991  1.7162
  868TIP3   OH224018   1.542   2.027   1.240 -0.1042 -0.2062  0.4147
  868TIP3    H124019   1.603   1.987   1.301  0.4220  0.9518  0.6640
  868TIP3    H224020   1.516   1.956   1.181  0.6638 -0.9428  0.9566
  869TIP3   OH224021   3.816   1.231   6.147 -0.7027 -0.3425 -0.0789
  869TIP3    H124022   3.888   1.292   6.128 -0.9963  0.2639  0.7435
  869TIP3    H224023   3.851   1.175   6.216 -1.1870  0.2613  0.6619
  870TIP3   OH224024   0.076   1.617  14.239  0.2606 -0.3277 -0.3192
  870TIP3    H124025   0.135   1.674  14.191  1.2298 -2.8402 -2.2011
  870TIP3    H224026   0.008   1.676  14.273  2.8416  2.3436  0.4209
  871TIP3   OH224027   0.889   1.386  14.048 -0.0591 -0.2373  0.1153
  871TIP3    H124028   0.943   1.454  14.007  1.5849 -0.7554  1.3570
  871TIP3    H224029   0.804   1.427  14.061  0.3105  0.9174 -0.9893
  872TIP3   OH224030   3.456   1.073   1.672  0.2276  0.1163 -0.2915
  872TIP3    H124031   3.404   1.135   1.722  0.6485 -2.2052  3.1514
  872TIP3    H224032   3.545   1.108   1.676  0.1136  0.4038 -0.2353
  873TIP3   OH224033   0.526   5.708  12.024  0.0290  0.1172  0.1309
  873TIP3    H124034   0.503   5.797  11.996  0.4479 -0.8033 -3.3667
  873TIP3    H224035   0.487   5.699  12.111 -1.0545  3.2908  0.0191
  874TIP3   OH224036   0.536   0.011  13.923  0.1036  0.2663 -0.7387
  874TIP3    H124037   0.450   0.031  13.959  1.2008 -0.5002  2.4242
  874TIP3    H224038   0.517  -0.031  13.839 -2.5474  1.2902 -0.7062
  875TIP3   OH224039   6.648   2.796  15.909  0.0913  0.3735 -0.2342
  875TIP3    H124040   6.682   2.739  15.978 -3.3275 -1.5724 -0.0539
  875TIP3    H224041   6.704   2.778  15.834  1.1109 -0.7710  0.7718
  876TIP3   OH224042   3.403   6.495  11.438 -0.2118  0.0554 -0.6109
  876TIP3    H124043   3.321   6.459  11.473 -0.0856  0.8873  0.5792
  876TIP3    H224044   3.376   6.547  11.363 -1.1974  2.9890  1.6834
  877TIP3   OH224045   6.124   0.572  16.745  0.3883  0.0863 -0.1262
  877TIP3    H124046   6.164   0.652  16.710 -0.4858 -0.0510 -1.4828
  877TIP3    H224047   6.086   0.599  16.829  0.4435  1.0109 -0.3883
  878TIP3   OH224048   4.746   5.472   4.767 -0.4476  0.0711  0.4964
  878TIP3    H124049   4.688   5.485   4.692 -0.0739  0.1124  0.2134
  878TIP3    H224050   4.832   5.500   4.737 -0.2284 -0.2194  0.8368
  879TIP3   OH224051   2.908   6.001   6.108 -0.2374  0.2502 -0.3721
  879TIP3    H124052   2.918   6.070   6.174  1.2417 -1.1020  0.8466
  879TIP3    H224053   2.840   5.944   6.144  0.1248 -0.1491 -0.3246
  880TIP3   OH224054   0.797   3.329   3.524 -0.1712  0.2995  0.2910
  880TIP3    H124055   0.774   3.328   3.617 -1.5426 -0.5366 -0.0333
  880TIP3    H224056   0.721   3.290   3.481  1.2514 -1.1096 -1.0004
  881TIP3   OH224057   2.077   5.230  10.592  0.2053  0.5112 -0.0884
  881TIP3    H124058   2.145   5.164  10.606 -0.5510 -0.8449 -2.5520
  881TIP3    H224059   1.995   5.183  10.606 -0.3298  1.0443 -1.3731
  882TIP3   OH224060   4.504   1.391   0.254  0.0364 -0.0265  0.1805
  882TIP3    H124061   4.598   1.373   0.253  0.0686  0.0754  0.9327
  882TIP3    H224062   4.485   1.415   0.345 -0.3409  1.9145 -0.3764
  883TIP3   OH224063   1.250   2.025   5.460  0.5676 -0.4819 -0.4094
  883TIP3    H124064   1.176   2.044   5.518  1.6839  1.4095  0.4532
  883TIP3    H224065   1.307   1.967   5.511  0.0806 -1.2778 -0.7671
  884TIP3   OH224066   6.161   1.855   2.285 -0.1248 -0.1482  0.0274
  884TIP3    H124067   6.163   1.946   2.258 -2.0326 -0.7892 -2.4425
  884TIP3    H224068   6.199   1.807   2.211  1.8538 -1.2938  1.7321
  885TIP3   OH224069   4.766   0.059  14.221 -0.2242  0.0815  0.5039
  885TIP3    H124070   4.830   0.115  14.266 -1.4786  0.3055  2.0613
  885TIP3    H224071   4.681   0.088  14.255 -1.0668 -1.0984 -0.5480
  886TIP3   OH224072   0.822   3.867   3.838 -0.3076 -0.1125 -0.3950
  886TIP3    H124073   0.828   3.774   3.817 -3.1742  0.1388 -2.6250
  886TIP3    H224074   0.888   3.908   3.782 -0.2646 -0.6212 -0.7197
  887TIP3   OH224075   4.750   1.644  14.810  0.0832 -0.1535  0.1404
  887TIP3    H124076   4.781   1.728  14.843  1.2674  0.2171 -1.8253
  887TIP3    H224077   4.819   1.582  14.833 -0.0209 -0.2697  0.1410
  888TIP3   OH224078   5.629   4.348  14.633  0.4631 -0.0852 -0.3139
  888TIP3    H124079   5.596   4.434  14.659  2.6982  0.6204  0.2844
  888TIP3    H224080   5.697   4.367  14.568  1.7951 -1.3124  0.6777
  889TIP3   OH224081   2.528   2.568  13.560  0.4007 -0.5299  0.1681
  889TIP3    H124082   2.616   2.571  13.521  0.4722  0.9160  0.3994
  889TIP3    H224083   2.506   2.475  13.563  0.7180 -0.7515 -2.6043
  890TIP3   OH224084   0.728   2.262   0.874 -0.2491 -0.1994 -0.6975
  890TIP3    H124085   0.642   2.250   0.914 -0.0775 -1.7334 -0.7395
  890TIP3    H224086   0.732   2.196   0.805  0.7618  0.2104 -1.0438
  891TIP3   OH224087   1.580   3.138  16.921  0.3763 -0.2910 -0.1888
  891TIP3    H124088   1.591   3.140  16.826  1.8884 -0.8553 -0.0376
  891TIP3    H224089   1.611   3.051  16.947  0.9315  0.2327  0.9240
  892TIP3   OH224090   4.875   5.825   2.152 -0.3692 -0.2316 -0.2630
  892TIP3    H124091   4.779   5.824   2.157 -0.4872  1.9427 -1.7241
  892TIP3    H224092   4.894   5.851   2.062  1.6210 -0.1817  0.1575
  893TIP3   OH224093   5.646   5.749  13.080  0.2019  0.1670 -0.6386
  893TIP3    H124094   5.642   5.811  13.153  0.7103 -1.6401  0.9766
  893TIP3    H224095   5.705   5.789  13.017  2.2008  0.3936  1.3251
  894TIP3   OH224096   1.616   4.491  15.837 -0.2569  0.3297  0.0641
  894TIP3    H124097   1.619   4.536  15.752  0.3751 -0.1544 -0.1707
  894TIP3    H224098   1.523   4.489  15.859 -0.4171  0.5830 -0.5517
  895TIP3   OH224099   4.980   5.776  17.183 -0.1048  0.6256 -0.0771
  895TIP3    H124100   4.939   5.853  17.145  2.0079  1.4134 -0.8593
  895TIP3    H224101   4.916   5.706  17.171 -1.6048  2.0091 -0.3493
  896TIP3   OH224102   0.445   5.492   2.553 -0.1510  0.4564  0.6735
  896TIP3    H124103   0.393   5.540   2.618  1.5816  0.1067  2.3561
  896TIP3    H224104   0.422   5.400   2.569 -1.5116  0.5114 -0.8251
  897TIP3   OH224105   4.447   5.582  16.251  0.1676  0.0289 -0.2357
  897TIP3    H124106   4.534   5.602  16.216  0.9418 -0.7110  1.2498
  897TIP3    H224107   4.415   5.665  16.286  1.6297 -0.3531  2.1095
  898TIP3   OH224108   6.145   0.009   0.775  0.2237 -0.6423  0.1357
  898TIP3    H124109   6.228   0.056   0.778 -0.0271 -0.2760  1.4945
  898TIP3    H224110   6.083   0.072   0.739  1.0266 -1.7089 -3.3400
  899TIP3   OH224111   5.465   1.988  15.091  0.1355 -0.0775  0.5387
  899TIP3    H124112   5.453   2.083  15.086  0.7750 -0.0924 -1.9962
  899TIP3    H224113   5.404   1.953  15.027 -0.4599 -1.4179  1.8313
  900TIP3   OH224114   4.677   0.135   1.702  0.3259 -0.2565 -0.6952
  900TIP3    H124115   4.593   0.091   1.711  1.1988 -2.0474 -0.9983
  900TIP3    H224116   4.656   0.228   1.706 -1.5478 -0.6903  0.1677
  901TIP3   OH224117   4.866   4.160  11.948  0.1370  0.2429 -0.0644
  901TIP3    H124118   4.938   4.206  11.905  0.4016  0.3061  0.4374
  901TIP3    H224119   4.873   4.187  12.040  0.3332 -0.8527  0.2412
  902TIP3   OH224120   5.884   6.156   1.919  0.1610 -0.3513  0.0032
  902TIP3    H124121   5.856   6.221   1.983 -1.1754  0.0602 -0.9807
  902TIP3    H224122   5.975   6.177   1.901  0.5334 -0.4496  1.7331
  903TIP3   OH224123   2.445   6.081  16.094 -0.3398  0.3093 -0.0936
  903TIP3    H124124   2.422   6.104  16.184  0.3068 -0.9807  0.4092
  903TIP3    H224125   2.475   6.164  16.055  1.6684  0.4109  1.5997
  904TIP3   OH224126   5.415   4.831   1.893 -0.3245 -0.2518  0.0153
  904TIP3    H124127   5.417   4.760   1.828  1.0387  0.9924 -1.3366
  904TIP3    H224128   5.324   4.833   1.923 -0.2779 -2.8557  0.4129
  905TIP3   OH224129   1.875   0.076  12.942  0.2214 -0.1649  0.7418
  905TIP3    H124130   1.950   0.109  12.893  1.3749  1.0967  3.2759
  905TIP3    H224131   1.801   0.086  12.882  1.6998  0.6836 -0.9875
  906TIP3   OH224132   6.194   0.830  13.974 -0.0429  0.2780  0.4086
  906TIP3    H124133   6.255   0.898  13.946 -1.5048  1.7836  0.7937
  906TIP3    H224134   6.246   0.750  13.977  1.4917  1.2052 -0.9521
  907TIP3   OH224135   4.734   1.631  15.861 -0.1531  0.0832  0.4540
  907TIP3    H124136   4.727   1.547  15.905  0.0110  0.0331  0.3838
  907TIP3    H224137   4.676   1.624  15.785  0.7347 -0.3671 -0.1844
  908TIP3   OH224138   2.165   3.585   1.579  0.2566 -0.0218  0.4052
  908TIP3    H124139   2.206   3.601   1.494 -0.0794 -1.4207 -0.0308
  908TIP3    H224140   2.094   3.650   1.584  1.5138  1.3626  0.4855
  909TIP3   OH224141   5.853   6.311   1.094 -0.3994 -0.2298 -0.6527
  909TIP3    H124142   5.808   6.376   1.040 -1.2349 -1.4768 -1.4845
  909TIP3    H224143   5.794   6.236   1.096 -0.9546  0.2569  3.1005
  910TIP3   OH224144   3.126   0.198   1.608 -0.3105  0.6656 -0.0834
  910TIP3    H124145   3.181   0.238   1.676 -0.5403  1.6840 -0.4843
  910TIP3    H224146   3.071   0.136   1.655  2.4198 -1.6971  0.0977
  911TIP3   OH224147   3.500   0.259  16.012 -0.0494 -0.2812  0.4366
  911TIP3    H124148   3.428   0.223  16.064 -0.9936 -0.1659 -0.7699
  911TIP3    H224149   3.473   0.244  15.921  0.4421  1.7417 -0.0477
  912TIP3   OH224150   3.111   0.876   1.425  0.0501  0.1757  0.0359
  912TIP3    H124151   3.091   0.788   1.392  0.4947 -0.9342  2.5820
  912TIP3    H224152   3.025   0.912   1.448 -0.1050  0.2788 -0.6971
  913TIP3   OH224153   3.158   0.641  16.509 -0.0977  0.1157 -0.6237
  913TIP3    H124154   3.148   0.548  16.487  1.9647 -0.6554  1.5692
  913TIP3    H224155   3.199   0.680  16.431  1.2083 -1.2685 -0.6296
  914TIP3   OH224156   3.629   1.158  13.824 -0.7230  0.1407 -0.7580
  914TIP3    H124157   3.702   1.216  13.844 -0.9178 -0.2465  1.1592
  914TIP3    H224158   3.552   1.216  13.824 -0.7560  0.1009 -0.0923
  915TIP3   OH224159   0.265   1.001  16.957 -0.3147 -1.2367  0.1296
  915TIP3    H124160   0.241   1.087  16.920  0.9679 -0.9444 -0.0296
  915TIP3    H224161   0.359   1.006  16.970 -0.5252 -1.9173  2.0022
  916TIP3   OH224162   6.698   0.109  13.893  0.4356  0.0853  0.0146
  916TIP3    H124163   6.715   0.165  13.818  0.3766  0.3444  0.1951
  916TIP3    H224164   6.693   0.021  13.856  0.6662  0.1807 -0.2467
  917TIP3   OH224165   0.702   3.211  14.820 -0.0744  0.1394 -0.2227
  917TIP3    H124166   0.764   3.281  14.799 -0.8845  0.8047 -0.4060
  917TIP3    H224167   0.701   3.156  14.741  0.3125  0.1006 -0.2024
  918TIP3   OH224168   3.060   4.950  16.323 -0.0809  0.1375 -0.3142
  918TIP3    H124169   2.975   4.951  16.367  0.7716  0.8740  1.3617
  918TIP3    H224170   3.119   4.905  16.383  1.1568  1.3343 -0.5926
  919TIP3   OH224171   4.774   1.666   1.249  0.2832 -0.5745  0.7038
  919TIP3    H124172   4.712   1.739   1.246  1.6003  0.6105  1.7223
  919TIP3    H224173   4.803   1.656   1.158  0.1735  0.2286  0.5728
  920TIP3   OH224174   0.702   4.389   1.171 -0.4672 -0.1310  0.6555
  920TIP3    H124175   0.629   4.434   1.129 -0.2668 -0.7010 -0.3167
  920TIP3    H224176   0.768   4.382   1.102  0.2918 -0.0986  1.3790
  921TIP3   OH224177   4.773   0.328   3.076  0.0186  0.9451  0.7160
  921TIP3    H124178   4.693   0.379   3.066  0.2408  1.2589  0.5377
  921TIP3    H224179   4.753   0.265   3.145 -0.7684  0.2420 -0.1542
  922TIP3   OH224180   6.123   4.412  13.577  0.4968  0.4156  0.4354
  922TIP3    H124181   6.160   4.325  13.596 -0.5459 -0.6828 -2.3520
  922TIP3    H224182   6.195   4.473  13.591  2.2172 -1.2669 -0.8933
  923TIP3   OH224183   3.750   6.693   4.068  0.0469 -0.0691  0.5847
  923TIP3    H124184   3.799   6.732   4.140  0.0121 -0.0383  0.5917
  923TIP3    H224185   3.703   6.620   4.109 -0.0072 -0.0247  0.6018
  924TIP3   OH224186   2.038   1.937  15.251 -0.1618  0.1003 -0.3325
  924TIP3    H124187   2.021   2.019  15.297 -0.5484 -1.9560  3.3187
  924TIP3    H224188   1.956   1.917  15.205 -0.3393  1.2731 -0.5425
  925TIP3   OH224189   1.763   5.792   2.582  0.4187  0.2650 -0.4038
  925TIP3    H124190   1.703   5.842   2.527 -0.1531  0.2885  0.2281
  925TIP3    H224191   1.749   5.701   2.556 -0.1523  0.2370 -0.0208
  926TIP3   OH224192   4.822   6.284   5.877 -0.4662 -0.2931  0.1092
  926TIP3    H124193   4.888   6.228   5.836 -0.5559 -0.9196  0.8156
  926TIP3    H224194   4.833   6.270   5.971  0.2150  1.6716  0.3470
  927TIP3   OH224195   1.398   6.764   5.829  0.2544 -0.5014  0.1335
  927TIP3    H124196   1.394   6.677   5.869 -1.8742  0.5092  2.2703
  927TIP3    H224197   1.310   6.778   5.794  0.4231  1.0013  0.3071
  928TIP3   OH224198   0.390   0.956  15.712  0.2540 -0.7513 -0.1047
  928TIP3    H124199   0.460   0.979  15.651 -0.8681  0.6498 -0.8915
  928TIP3    H224200   0.385   1.031  15.772 -1.7835  0.0414 -1.1901
  929TIP3   OH224201   3.388   5.510   0.256 -0.7717 -0.3073  0.1924
  929TIP3    H124202   3.351   5.572   0.318  0.5489 -1.4409  2.1673
  929TIP3    H224203   3.419   5.564   0.183 -2.0131  1.0826  0.6836
  930TIP3   OH224204   0.487   1.619   4.247 -0.5844 -0.0877 -0.8457
  930TIP3    H124205   0.509   1.540   4.296  1.2528  0.4807 -0.7158
  930TIP3    H224206   0.522   1.603   4.159  1.0696  1.1282 -0.4371
  931TIP3   OH224207   6.317   0.786  14.517  0.2003 -0.0421  0.4355
  931TIP3    H124208   6.344   0.825  14.433  0.4022  0.3449  0.6816
  931TIP3    H224209   6.396   0.747  14.552  0.0596 -0.4315  0.3282
  932TIP3   OH224210   5.248   1.537  10.549  0.7363 -0.3177 -0.0304
  932TIP3    H124211   5.205   1.606  10.498  1.2996  1.1960  1.4920
  932TIP3    H224212   5.342   1.554  10.536  0.8794  0.0548  1.4554
  933TIP3   OH224213   3.763   0.865   2.943 -0.5175 -0.1824 -0.5655
  933TIP3    H124214   3.727   0.777   2.944 -0.7845 -0.0712 -0.4493
  933TIP3    H224215   3.847   0.856   2.897 -2.2622  0.1367 -3.9830
  934TIP3   OH224216   4.550   1.287   6.005  0.2548  0.2981 -0.0139
  934TIP3    H124217   4.604   1.304   6.083  0.1975  0.2693  0.0320
  934TIP3    H224218   4.613   1.278   5.934  0.2682  1.0417 -0.0974
  935TIP3   OH224219   3.256   1.195  11.387 -0.1672 -0.1540 -0.4251
  935TIP3    H124220   3.189   1.132  11.361  0.9196 -1.2026 -0.7271
  935TIP3    H224221   3.243   1.269  11.329  0.7110 -1.4924 -2.3883
  936TIP3   OH224222   0.420   5.289  17.024  0.1618 -0.6622  0.0275
  936TIP3    H124223   0.382   5.252  16.944  1.2563 -1.3128 -0.1985
  936TIP3    H224224   0.499   5.237  17.039  0.2830 -0.1451  1.2008
  937TIP3   OH224225   5.444   5.914  15.602 -0.2446  0.1250  0.3320
  937TIP3    H124226   5.456   5.910  15.507  0.8727 -0.0987  0.4705
  937TIP3    H224227   5.384   5.843  15.622 -1.3514  0.8576 -0.3332
  938TIP3   OH224228   5.705   1.824  15.356 -0.3353 -0.1256 -0.0952
  938TIP3    H124229   5.760   1.751  15.326  0.3617 -0.4124  1.8034
  938TIP3    H224230   5.738   1.900  15.308  1.4820 -0.3726  0.7122
  939TIP3   OH224231   1.339   5.676  12.039 -0.0517  0.2308  0.1386
  939TIP3    H124232   1.268   5.671  11.974  0.4192 -0.2715 -0.3497
  939TIP3    H224233   1.295   5.674  12.123 -0.6154 -0.3476 -0.1612
  940TIP3   OH224234   5.111   5.536  12.335  0.1546  0.1109  0.5962
  940TIP3    H124235   5.037   5.555  12.277 -0.0815  0.8875  1.1498
  940TIP3    H224236   5.083   5.457  12.383 -0.0542  0.0344  0.3518
  941TIP3   OH224237   5.187   1.869   1.498  0.5151 -0.6327 -0.7239
  941TIP3    H124238   5.202   1.807   1.426 -0.5258 -0.3108 -1.2248
  941TIP3    H224239   5.094   1.860   1.518  1.0931 -1.8763  1.6699
  942TIP3   OH224240   4.598   6.574   0.586 -0.3650  0.6716 -0.0655
  942TIP3    H124241   4.688   6.573   0.616 -0.5129  0.8729  0.3876
  942TIP3    H224242   4.583   6.664   0.555 -0.8918  1.0861  1.3488
  943TIP3   OH224243   4.088   1.088   5.480  0.0102  0.2378  0.6752
  943TIP3    H124244   4.155   1.153   5.499 -1.2280  2.3735 -1.8832
  943TIP3    H224245   4.123   1.038   5.406 -1.1429  1.3817 -0.6924
  944TIP3   OH224246   4.009   4.647  13.548 -0.1140 -0.0246 -0.0757
  944TIP3    H124247   3.939   4.583  13.553 -0.1710 -0.1242 -1.6619
  944TIP3    H224248   4.083   4.598  13.510  0.3704  0.4222  0.2895
  945TIP3   OH224249   1.664   0.312  12.221 -0.0300  0.4578 -0.3007
  945TIP3    H124250   1.726   0.319  12.293 -0.4163 -1.4119  0.2426
  945TIP3    H224251   1.582   0.288  12.262 -0.6161  0.8550 -1.2309
  946TIP3   OH224252   0.355   1.497  17.235 -0.1761  0.0323 -0.0986
  946TIP3    H124253   0.400   1.490  17.151  0.3048 -0.4382  0.1946
  946TIP3    H224254   0.353   1.407  17.268 -2.0340 -0.0925 -0.4714
  947TIP3   OH224255   1.950   4.595   1.820  0.0349 -0.2258 -0.3599
  947TIP3    H124256   1.873   4.652   1.820  0.9195  0.9862 -0.5245
  947TIP3    H224257   1.964   4.574   1.728 -0.6113 -1.1785 -0.2549
  948TIP3   OH224258   5.184   6.386  15.200 -0.8131  0.6344  0.2603
  948TIP3    H124259   5.238   6.313  15.168 -0.1440  0.6038  1.4246
  948TIP3    H224260   5.115   6.344  15.251 -0.7412  0.7850  0.4814
  949TIP3   OH224261   4.437   1.986  12.762 -1.1612  0.1270  0.4719
  949TIP3    H124262   4.500   1.944  12.820 -1.6384 -0.6179  0.4567
  949TIP3    H224263   4.488   2.011  12.685 -0.8460 -0.3216  0.5313
  950TIP3   OH224264   2.404   2.888   4.326 -0.2561 -0.7430  0.1298
  950TIP3    H124265   2.381   2.918   4.239  0.4732  0.7039  0.4266
  950TIP3    H224266   2.325   2.905   4.379  0.4064  1.4186  0.4697
  951TIP3   OH224267   3.715   2.087  11.534  0.3754 -0.0584 -0.4577
  951TIP3    H124268   3.634   2.116  11.492  0.7794  0.6485 -0.7713
  951TIP3    H224269   3.781   2.095  11.465  0.4392 -2.0450 -0.6326
  952TIP3   OH224270   4.419   0.568  11.415  0.6498  0.1505 -0.2730
  952TIP3    H124271   4.472   0.490  11.399 -0.4278 -0.2929 -1.7613
  952TIP3    H224272   4.462   0.637  11.362 -0.4684 -0.3080 -1.8103
  953TIP3   OH224273   4.594   5.300   6.419 -0.3576  0.1548 -0.4087
  953TIP3    H124274   4.535   5.238   6.378 -0.2775 -1.3804  1.7180
  953TIP3    H224275   4.544   5.382   6.424 -2.2033 -1.0316  1.0938
  954TIP3   OH224276   3.793   3.813   1.880 -0.5038  0.2613  0.1847
  954TIP3    H124277   3.864   3.781   1.935 -0.7524  1.6941  1.3877
  954TIP3    H224278   3.713   3.789   1.927 -0.8814 -2.1740 -1.6213
  955TIP3   OH224279   4.784   1.140  12.285  0.3612  0.0443 -0.1688
  955TIP3    H124280   4.796   1.170  12.375 -0.3976 -0.4710  0.1021
  955TIP3    H224281   4.751   1.218  12.239  0.2338  0.1591  0.1135
  956TIP3   OH224282   6.272   4.014   3.779  0.0040  0.4936  0.6739
  956TIP3    H124283   6.366   4.030   3.794 -0.0222  0.0313  1.3471
  956TIP3    H224284   6.234   4.013   3.866 -0.4800 -0.2365  0.4566
  957TIP3   OH224285   5.724   3.661  10.613  0.1791 -0.1596 -0.1949
  957TIP3    H124286   5.706   3.621  10.528  0.3433  3.0527 -1.8025
  957TIP3    H224287   5.660   3.732  10.620  0.8680  0.2818  1.9251
  958TIP3   OH224288   6.202   4.912  10.868 -0.3356  0.4032 -0.6126
  958TIP3    H124289   6.298   4.913  10.874 -0.2360  0.5140 -2.0057
  958TIP3    H224290   6.175   4.994  10.909  0.1261  0.0961  0.3204
  959TIP3   OH224291   0.031   5.627   2.388  0.0760  0.1068  0.1214
  959TIP3    H124292   0.000   5.654   2.301  0.8331  3.3258  0.7929
  959TIP3    H224293   0.121   5.596   2.373 -0.3430 -0.8575 -0.4576
  960TIP3   OH224294   2.720   4.348   5.757 -0.4426 -0.1612  0.1113
  960TIP3    H124295   2.656   4.277   5.753 -1.5845  0.8135  0.6702
  960TIP3    H224296   2.698   4.396   5.837  0.4524  0.6777 -0.1379
  961TIP3   OH224297   5.990   6.099   2.534 -0.5432  0.3038 -0.1705
  961TIP3    H124298   5.943   6.026   2.574  0.2214 -2.1774 -3.5948
  961TIP3    H224299   6.026   6.147   2.608 -2.6924 -1.6512  2.2526
  962TIP3   OH224300   2.358   6.428   2.720 -0.3947 -0.1421 -0.4710
  962TIP3    H124301   2.305   6.507   2.711 -2.0369 -1.1529  0.0724
  962TIP3    H224302   2.294   6.356   2.724  0.9167 -1.2315  2.1327
  963TIP3   OH224303   2.172   2.163   2.102 -0.4062  0.2345 -0.3795
  963TIP3    H124304   2.191   2.082   2.054  0.4136  1.0793 -1.5333
  963TIP3    H224305   2.131   2.134   2.183 -0.4726 -1.3193 -0.9423
  964TIP3   OH224306   2.960   1.781  15.879  0.2107  0.1579  0.0179
  964TIP3    H124307   2.947   1.773  15.785 -1.0517  2.3021 -0.0215
  964TIP3    H224308   3.047   1.818  15.889  0.3407 -0.0615 -0.2996
  965TIP3   OH224309   2.063   0.631   2.006 -0.6862  0.2157  0.0335
  965TIP3    H124310   1.995   0.591   1.951 -0.4387  1.2132 -1.0268
  965TIP3    H224311   2.074   0.719   1.970 -1.3003  1.3031  2.3952
  966TIP3   OH224312   2.631   1.641  15.995 -0.2258  0.1944  0.2228
  966TIP3    H124313   2.657   1.692  15.918  1.7824  0.5794  1.1316
  966TIP3    H224314   2.536   1.653  16.000 -0.3473  0.4552 -1.9771
  967TIP3   OH224315   5.455   6.295  12.768 -0.3106 -0.2479  0.0610
  967TIP3    H124316   5.471   6.202  12.751  0.7853  0.1155 -0.9126
  967TIP3    H224317   5.382   6.318  12.711  2.0434  0.4687 -2.7659
  968TIP3   OH224318   5.867   3.166  17.162 -0.1104  0.0406  0.3583
  968TIP3    H124319   5.799   3.098  17.165  0.3171 -0.3698  0.8381
  968TIP3    H224320   5.843   3.220  17.086 -0.7113 -0.3718  0.2469
  969TIP3   OH224321   1.106   0.097   4.098 -0.0658  0.3087  0.5877
  969TIP3    H124322   1.034   0.095   4.161 -0.7670  0.0512 -0.2096
  969TIP3    H224323   1.163   0.167   4.128 -0.5637  0.3995  1.3242
  970TIP3   OH224324   5.154   5.873   5.135  0.3519 -0.5042 -0.2408
  970TIP3    H124325   5.236   5.904   5.172  0.8981 -1.2758 -0.7975
  970TIP3    H224326   5.095   5.865   5.210  0.8171 -0.0717  0.1725
  971TIP3   OH224327   5.228   3.376  16.021  0.1418 -0.8086 -0.4067
  971TIP3    H124328   5.260   3.288  16.038 -0.5439 -1.0220 -0.2229
  971TIP3    H224329   5.134   3.366  16.006  0.3214 -0.3100 -1.9244
  972TIP3   OH224330   5.789   2.422  13.151  0.1076  0.7830  0.4112
  972TIP3    H124331   5.753   2.365  13.083 -1.2029  1.5128  0.4820
  972TIP3    H224332   5.884   2.412  13.142 -0.0083  1.7191 -2.2526
  973TIP3   OH224333   2.698   5.197  13.323  0.8597  0.0887 -0.3694
  973TIP3    H124334   2.790   5.187  13.300  0.7056  0.3629 -1.1053
  973TIP3    H224335   2.700   5.235  13.411  1.4423 -0.9304  0.0692
  974TIP3   OH224336   5.954   0.282  13.426  0.5712 -0.0896  0.1531
  974TIP3    H124337   5.940   0.208  13.367 -0.7691  0.4359 -0.2058
  974TIP3    H224338   5.866   0.306  13.457  1.1898  0.0560  1.8656
  975TIP3   OH224339   5.050   6.463  17.168  0.7933  0.4209  0.3472
  975TIP3    H124340   5.071   6.550  17.200  1.1090  0.4988 -0.0771
  975TIP3    H224341   5.113   6.446  17.098  0.0129  0.3074 -0.3344
  976TIP3   OH224342   1.606   1.392  13.148  0.3114  0.1860 -0.5890
  976TIP3    H124343   1.679   1.382  13.210 -0.2600  0.1887  0.0987
  976TIP3    H224344   1.574   1.481  13.163  0.9605  0.6180 -1.7721
  977TIP3   OH224345   1.451   1.796   0.075 -0.5436  0.5083 -0.6798
  977TIP3    H124346   1.416   1.775  -0.012 -0.1097 -0.6208 -0.5908
  977TIP3    H224347   1.443   1.714   0.124 -0.0859  0.9342  0.1090
  978TIP3   OH224348   0.125   3.968   0.247 -0.3004 -0.4249  0.1221
  978TIP3    H124349   0.099   3.969   0.155 -1.7596  0.9115  0.5198
  978TIP3    H224350   0.212   3.928   0.247  0.3013  0.8006 -1.9953
  979TIP3   OH224351   0.005   2.073   2.804  0.2094 -0.1893  0.0356
  979TIP3    H124352   0.097   2.056   2.827  0.1604  1.1301  1.3175
  979TIP3    H224353  -0.041   2.069   2.888 -0.3040  2.8057 -0.0535
  980TIP3   OH224354   2.895   2.688   1.180  0.0826  0.2788  0.4077
  980TIP3    H124355   2.914   2.698   1.087 -1.2635 -2.7350 -0.2616
  980TIP3    H224356   2.938   2.762   1.222  0.8034  1.6197 -2.5977
  981TIP3   OH224357   3.053   6.224   5.639 -0.5531  0.4705  0.1160
  981TIP3    H124358   2.959   6.210   5.650 -0.5900 -2.0226 -2.8179
  981TIP3    H224359   3.061   6.318   5.620 -2.2825  0.9686  1.7249
  982TIP3   OH224360   4.435   3.604  13.205 -0.1953 -0.0059  0.0874
  982TIP3    H124361   4.484   3.620  13.286 -1.1823  0.5950  0.5716
  982TIP3    H224362   4.500   3.612  13.136  0.5707 -0.0803  0.7894
  983TIP3   OH224363   2.758   4.721   3.237  0.1761  0.0743  0.3643
  983TIP3    H124364   2.770   4.696   3.145  1.2135 -2.0091  1.0447
  983TIP3    H224365   2.685   4.666   3.267  0.3571  0.1882  1.0135
  984TIP3   OH224366   0.040   2.340  11.844 -0.1582 -0.3298  0.2542
  984TIP3    H124367   0.098   2.381  11.779  0.8167 -2.1847 -0.0903
  984TIP3    H224368   0.043   2.400  11.920  0.5221  0.6716 -0.5450
  985TIP3   OH224369   4.494   5.410  15.614  0.1142  0.2325 -1.0051
  985TIP3    H124370   4.422   5.460  15.651  0.8710  0.9325 -0.4526
  985TIP3    H224371   4.536   5.470  15.552  0.2691 -0.1362 -1.2599
  986TIP3   OH224372   1.762   3.781  15.887 -0.2134 -0.2888 -0.5190
  986TIP3    H124373   1.676   3.759  15.851 -0.9037  2.8881 -0.8898
  986TIP3    H224374   1.791   3.856  15.837  2.1468 -0.3822  0.6249
  987TIP3   OH224375   1.479   1.043  14.120 -0.3862 -0.5306  0.0998
  987TIP3    H124376   1.501   1.035  14.027 -1.1274 -1.5084 -0.0056
  987TIP3    H224377   1.493   0.955  14.155  1.6604  0.2671  1.3220
  988TIP3   OH224378   6.399   0.522   1.818  0.2285 -0.0665  0.8840
  988TIP3    H124379   6.309   0.493   1.835  0.1107  1.1184  2.3676
  988TIP3    H224380   6.444   0.443   1.788 -1.2692 -0.7005  0.2295
  989TIP3   OH224381   4.636   1.867  13.867  0.1737 -0.2130  0.5460
  989TIP3    H124382   4.711   1.885  13.811 -0.8680  2.1603 -0.1530
  989TIP3    H224383   4.594   1.791  13.826  0.4124  0.4080 -0.8972
  990TIP3   OH224384   4.904   1.434   4.042  0.1391  0.2323 -0.2840
  990TIP3    H124385   4.902   1.512   3.987  0.1469 -0.4295 -1.2429
  990TIP3    H224386   4.896   1.467   4.131 -0.6306  1.2757 -0.7220
  991TIP3   OH224387   6.149   1.287  11.459 -0.3754 -0.9133  0.0681
  991TIP3    H124388   6.214   1.286  11.388  0.6962  0.2881  1.0131
  991TIP3    H224389   6.192   1.243  11.532 -0.5969 -0.0841  0.7053
  992TIP3   OH224390   2.980   0.942   3.244  0.3035 -0.0105  0.3087
  992TIP3    H124391   3.000   0.868   3.302  0.1808 -0.6391 -0.4327
  992TIP3    H224392   3.009   0.912   3.157  2.1448  1.6074  0.3311
  993TIP3   OH224393   4.812   3.322   4.950  0.4287 -0.4646 -0.0625
  993TIP3    H124394   4.762   3.389   4.903  0.5527  1.5924  2.6120
  993TIP3    H224395   4.882   3.297   4.890 -0.8225  0.3209 -1.8903
  994TIP3   OH224396   3.529   2.037   4.478  0.3172  0.0050  0.2539
  994TIP3    H124397   3.477   2.088   4.541  1.6535  1.0221  0.5485
  994TIP3    H224398   3.620   2.050   4.506  0.8997  0.2195 -1.7095
  995TIP3   OH224399   6.400   2.332  13.354 -0.3471 -0.0773 -0.5459
  995TIP3    H124400   6.351   2.296  13.280 -0.2977 -0.1561 -0.5406
  995TIP3    H224401   6.464   2.391  13.314  0.3130 -0.8465 -0.6310
  996TIP3   OH224402   0.924   6.716   1.755  0.1079 -0.4199  0.0237
  996TIP3    H124403   1.013   6.715   1.790 -0.2733  1.4239  1.1273
  996TIP3    H224404   0.874   6.661   1.815  0.8526 -3.0438 -1.6874
  997TIP3   OH224405   1.264   2.873  11.547 -0.0352 -0.3755  0.0260
  997TIP3    H124406   1.262   2.778  11.530  1.2203 -0.1628 -1.3381
  997TIP3    H224407   1.181   2.905  11.512  0.2488 -0.7314 -0.9728
  998TIP3   OH224408   3.198   4.191   2.952  0.0364 -0.2633  0.1581
  998TIP3    H124409   3.193   4.254   2.880 -1.0292 -0.7997 -0.2530
  998TIP3    H224410   3.123   4.133   2.939  2.8280 -3.7096 -1.4180
  999TIP3   OH224411   2.110   4.756  12.719 -0.2925  0.1001  0.4185
  999TIP3    H124412   2.016   4.757  12.701 -0.1238 -0.1869 -0.5290
  999TIP3    H224413   2.117   4.748  12.814 -1.2343  1.6066  0.6283
 1000TIP3   OH224414   5.757   5.887   4.466  0.2152 -0.2490 -0.6452
 1000TIP3    H124415   5.671   5.916   4.496  0.0628 -0.6757 -0.6564
 1000TIP3    H224416   5.793   5.961   4.418  0.7011  0.6608  1.0656
 1001TIP3   OH224417   2.497   5.351  11.704  0.3906  0.1900  0.2081
 1001TIP3    H124418   2.556   5.293  11.657  0.3162  0.5426 -0.3338
 1001TIP3    H224419   2.448   5.396  11.635 -1.2036 -0.8016  0.6601
 1002TIP3   OH224420   6.739   1.044  15.021  0.0272 -0.3543  0.4162
 1002TIP3    H124421   6.764   0.971  15.078 -1.4089 -0.3482  1.0661
 1002TIP3    H224422   6.687   1.003  14.952  0.0253 -0.0699  0.2465
 1003TIP3   OH224423   6.132   3.841  14.963  0.2415 -0.4142  0.0780
 1003TIP3    H124424   6.126   3.911  15.028 -1.2539 -0.7860  0.3452
 1003TIP3    H224425   6.061   3.781  14.985 -0.6506 -0.2504 -2.2501
 1004TIP3   OH224426   2.807   6.347  10.785 -0.2675 -0.3396 -0.3361
 1004TIP3    H124427   2.716   6.357  10.814 -0.1706  0.5568 -0.3258
 1004TIP3    H224428   2.840   6.274  10.836 -1.0090 -0.7292 -0.3998
 1005TIP3   OH224429   4.140   4.711  15.595 -0.7554  0.0830  0.3535
 1005TIP3    H124430   4.050   4.691  15.570 -0.6758  0.5958 -0.3761
 1005TIP3    H224431   4.190   4.633  15.571 -0.7158  0.4893 -0.9246
 1006TIP3   OH224432   3.984   2.232  13.638  0.9448  0.0108  0.2257
 1006TIP3    H124433   3.952   2.147  13.609  0.0738  0.2274  0.5420
 1006TIP3    H224434   3.944   2.245  13.724  1.6165  0.4353  0.4783
 1007TIP3   OH224435   5.433   1.206   6.167 -0.4508  0.6196  0.7333
 1007TIP3    H124436   5.394   1.152   6.236  0.0149  0.0435  0.5601
 1007TIP3    H224437   5.358   1.242   6.119 -0.8153 -2.2063 -0.9353
 1008TIP3   OH224438   2.805   6.426  16.786  0.2052  0.0833 -0.7789
 1008TIP3    H124439   2.868   6.424  16.858 -1.2323 -1.4558  0.4790
 1008TIP3    H224440   2.724   6.459  16.826 -0.8900 -1.7481 -1.4527
 1009TIP3   OH224441   5.506   1.861   5.027 -0.0905  0.4093  0.1546
 1009TIP3    H124442   5.595   1.840   4.998  0.6679 -0.5349  2.9434
 1009TIP3    H224443   5.455   1.782   5.008 -0.5084  1.1466 -1.9444
 1010TIP3   OH224444   3.217   1.988   5.601  0.5277 -0.1374  0.0528
 1010TIP3    H124445   3.265   1.906   5.606 -2.4392 -1.9919 -0.3812
 1010TIP3    H224446   3.137   1.972   5.652  0.0103  2.5769  0.1913
 1011TIP3   OH224447   4.496   0.583  14.083 -0.4341 -0.2403  0.2200
 1011TIP3    H124448   4.506   0.633  14.002 -1.4931 -0.6062 -0.1369
 1011TIP3    H224449   4.585   0.552  14.102  0.0178  0.7502 -0.2066
 1012TIP3   OH224450   4.046   6.604  16.944  0.6158  0.1380 -0.1752
 1012TIP3    H124451   4.043   6.587  16.850  1.0068  2.2206 -0.5784
 1012TIP3    H224452   4.139   6.596  16.967  0.7298  1.2178 -0.2676
 1013TIP3   OH224453   2.298   2.404   2.208 -0.2756 -0.0728 -0.2525
 1013TIP3    H124454   2.220   2.448   2.241 -0.6761  0.4051 -1.8303
 1013TIP3    H224455   2.270   2.314   2.191 -0.5497  0.1622 -1.0513
 1014TIP3   OH224456   4.914   2.593  15.368 -0.1034  0.7555  0.1249
 1014TIP3    H124457   4.862   2.673  15.371 -2.1345 -0.5714  1.6292
 1014TIP3    H224458   4.972   2.599  15.443 -0.7796  0.4957  0.6771
 1015TIP3   OH224459   1.160   0.321   0.416  0.0674 -0.0444 -0.8737
 1015TIP3    H124460   1.127   0.232   0.401  1.5237 -0.7714  0.1093
 1015TIP3    H224461   1.159   0.362   0.330  2.5408 -2.1246 -1.9462
 1016TIP3   OH224462   2.652   1.021   5.579  0.3761  0.2611 -0.0476
 1016TIP3    H124463   2.573   1.000   5.528 -0.5608  0.6438  1.2229
 1016TIP3    H224464   2.669   1.113   5.559  0.9431 -0.0127 -0.8839
 1017TIP3   OH224465   0.572   4.044   3.712  0.1738  0.3445  0.2793
 1017TIP3    H124466   0.604   3.983   3.779  2.1686  0.4539 -0.5294
 1017TIP3    H224467   0.646   4.103   3.697 -0.1316  0.1165 -2.2206
 1018TIP3   OH224468   6.370   6.692  12.032  0.1240  0.6208 -0.1834
 1018TIP3    H124469   6.291   6.668  11.984 -0.5086  0.5147  0.8895
 1018TIP3    H224470   6.348   6.774  12.077  0.8651  0.9784 -0.4584
 1019TIP3   OH224471   2.819   5.837   1.095  0.3837  0.0582 -0.7299
 1019TIP3    H124472   2.860   5.817   1.179 -0.2994 -0.2782 -0.4682
 1019TIP3    H224473   2.730   5.803   1.103 -1.0081  3.5743 -0.1069
 1020TIP3   OH224474   2.944   2.600   4.228 -0.2128 -0.0614  0.1772
 1020TIP3    H124475   3.013   2.632   4.285 -0.4817 -0.4673  0.7403
 1020TIP3    H224476   2.893   2.678   4.206  1.8018  0.6474 -2.1900
 1021TIP3   OH224477   1.020   2.811   0.938 -0.4215  0.4840  0.4978
 1021TIP3    H124478   0.934   2.850   0.946 -1.4300 -1.6519  0.3626
 1021TIP3    H224479   1.034   2.765   1.021  0.8072  1.2209  0.7203
 1022TIP3   OH224480   3.003   1.176   4.104  0.4986 -0.4350  0.4129
 1022TIP3    H124481   2.964   1.263   4.118  0.2401 -0.8389  2.2505
 1022TIP3    H224482   3.089   1.194   4.066 -0.7466  0.5165 -2.1194
 1023TIP3   OH224483   6.066   3.852  14.706  0.1156  0.0874 -0.1541
 1023TIP3    H124484   6.142   3.862  14.647  1.1833  0.6344  1.2827
 1023TIP3    H224485   6.101   3.873  14.793 -1.3134 -1.2866  0.7591
 1024TIP3   OH224486   0.343   2.513   3.281 -0.2160  0.0910  0.2836
 1024TIP3    H124487   0.331   2.429   3.237  2.1613 -0.4528  0.6141
 1024TIP3    H224488   0.314   2.578   3.216 -3.6599 -0.9938  0.6324
 1025TIP3   OH224489   3.046   2.431  11.385  0.0410  0.0300 -0.1427
 1025TIP3    H124490   3.002   2.423  11.300  1.2052 -1.4757 -0.6138
 1025TIP3    H224491   3.100   2.510  11.378 -0.5853  0.4339 -0.4572
 1026TIP3   OH224492   2.013   2.845   2.226 -0.0509  0.3788  0.1068
 1026TIP3    H124493   1.978   2.775   2.280  0.2227  0.2556  0.1248
 1026TIP3    H224494   2.073   2.802   2.166  2.0654  0.8848  1.7902
 1027TIP3   OH224495   2.111   0.789   4.779  0.0615  0.1497  0.2925
 1027TIP3    H124496   2.194   0.805   4.735  0.2766 -0.4001  0.5012
 1027TIP3    H224497   2.133   0.784   4.872 -0.4968  2.1150  0.5748
 1028TIP3   OH224498   2.004   4.804  15.088  0.6088 -0.5210  0.0322
 1028TIP3    H124499   2.067   4.817  15.159  1.5762  0.8727 -1.0594
 1028TIP3    H224500   1.931   4.758  15.129  0.0123  2.5237  2.5329
 1029TIP3   OH224501   6.527   3.264  16.816  0.2879 -0.1582  1.0960
 1029TIP3    H124502   6.464   3.262  16.744 -1.2333  1.5368  2.3361
 1029TIP3    H224503   6.571   3.348  16.807 -1.5028  1.1100  3.3960
 1030TIP3   OH224504   0.719   1.556  12.358  0.5875 -0.3792 -0.8909
 1030TIP3    H124505   0.730   1.650  12.344  1.1524 -0.7053 -2.8379
 1030TIP3    H224506   0.723   1.545  12.453  0.7654  1.5295 -0.6595
 1031TIP3   OH224507   4.681   2.499  15.982  0.6890 -0.0862 -0.0186
 1031TIP3    H124508   4.622   2.538  16.046 -0.4191 -0.7393 -0.6109
 1031TIP3    H224509   4.709   2.417  16.023 -0.5901 -0.8592 -0.6292
 1032TIP3   OH224510   0.908   0.901  10.906 -0.3533 -0.1605  0.3987
 1032TIP3    H124511   0.923   0.981  10.856  0.2958  0.4207  1.5019
 1032TIP3    H224512   0.929   0.830  10.845  0.7096  0.5403 -0.0632
 1033TIP3   OH224513   0.355   1.802   4.842  0.4598 -0.1827  0.2517
 1033TIP3    H124514   0.278   1.801   4.785 -0.0065  1.1407  0.8354
 1033TIP3    H224515   0.354   1.889   4.882  0.1327 -1.4824  3.1649
 1034TIP3   OH224516   6.117   4.766  14.640  0.5020  0.2518  0.6378
 1034TIP3    H124517   6.117   4.822  14.562  2.5234  0.4886  0.8043
 1034TIP3    H224518   6.039   4.795  14.689 -0.2709  0.7233 -0.8229
 1035TIP3   OH224519   6.752   5.498   1.534 -0.3662 -0.8037  0.4907
 1035TIP3    H124520   6.737   5.558   1.607 -2.2014 -1.7988  0.9556
 1035TIP3    H224521   6.666   5.484   1.496  0.4338 -1.0694 -1.2752
 1036TIP3   OH224522   4.738   4.291   0.086  0.0032  0.0323 -0.3308
 1036TIP3    H124523   4.773   4.379   0.078  0.4585 -0.2761 -1.8771
 1036TIP3    H224524   4.704   4.286   0.175 -1.5757  2.3422 -0.7687
 1037TIP3   OH224525   5.190   0.851  16.876 -0.5694 -0.2688  0.0971
 1037TIP3    H124526   5.110   0.890  16.841  0.3853  0.3274 -1.4572
 1037TIP3    H224527   5.203   0.894  16.960 -2.0610 -0.6114  0.5202
 1038TIP3   OH224528   2.092   1.770  17.233 -0.3370  0.1918  0.0657
 1038TIP3    H124529   2.132   1.853  17.259 -0.9206  0.7621 -0.8131
 1038TIP3    H224530   2.151   1.735  17.167  0.1442 -0.3266  0.7543
 1039TIP3   OH224531   4.790   4.151  11.441  0.1577 -0.1966  0.8269
 1039TIP3    H124532   4.847   4.122  11.513  0.3165  1.6243  1.4525
 1039TIP3    H224533   4.711   4.184  11.485 -0.2416 -0.1838  0.0991
 1040TIP3   OH224534   5.740   0.406  15.958  0.2076 -0.0802 -0.0513
 1040TIP3    H124535   5.721   0.448  15.874  0.9067 -2.1857 -1.3016
 1040TIP3    H224536   5.830   0.434  15.978  0.4663 -0.5079 -0.5974
 1041TIP3   OH224537   1.829   1.768   1.264  0.2531  0.0187  0.0067
 1041TIP3    H124538   1.816   1.840   1.325  0.3554  0.0488 -0.0061
 1041TIP3    H224539   1.761   1.705   1.286  0.4586 -0.0893  0.3262
 1042TIP3   OH224540   0.817   0.299  12.146 -0.5808 -0.1744  0.5719
 1042TIP3    H124541   0.738   0.298  12.200 -0.7994  0.8433  0.2873
 1042TIP3    H224542   0.867   0.223  12.175 -1.6590 -0.8090  0.7574
 1043TIP3   OH224543   1.069   1.165  16.347 -0.0955  0.1397 -0.6623
 1043TIP3    H124544   1.143   1.151  16.288 -0.3503 -1.4054 -0.6346
 1043TIP3    H224545   1.107   1.208  16.424  0.5902  0.2771 -1.0748
 1044TIP3   OH224546   5.428   5.078  11.950 -0.7073 -0.4213 -0.0498
 1044TIP3    H124547   5.412   5.147  12.014 -0.3421 -0.2211 -0.1732
 1044TIP3    H224548   5.523   5.075  11.941 -0.7325 -0.7969 -0.2035
 1045TIP3   OH224549   1.603   3.367   2.076 -0.0853 -0.2933 -0.2071
 1045TIP3    H124550   1.689   3.342   2.109 -1.4191 -3.6244  1.0592
 1045TIP3    H224551   1.615   3.375   1.981  2.0581  1.3964  0.1930
 1046TIP3   OH224552   4.415   2.047  16.056  0.0237  0.3007 -0.6757
 1046TIP3    H124553   4.481   2.114  16.074 -1.0771  1.6964 -1.7452
 1046TIP3    H224554   4.461   1.964  16.069  1.4837  1.2546  0.3835
 1047TIP3   OH224555   4.393   2.337   0.373 -0.2736 -0.0779  0.1209
 1047TIP3    H124556   4.311   2.355   0.420 -1.2312 -0.4003 -1.3992
 1047TIP3    H224557   4.446   2.288   0.436 -1.2202  0.1789  1.1399
 1048TIP3   OH224558   3.139   2.261  11.022  0.1626  0.7573  0.1654
 1048TIP3    H124559   3.231   2.265  11.049  0.2934 -0.7414 -0.0264
 1048TIP3    H224560   3.103   2.345  11.050  1.0112  0.4254  2.3913
 1049TIP3   OH224561   2.721   4.428   4.735 -0.1765  0.1035  0.1797
 1049TIP3    H124562   2.626   4.423   4.746 -0.2512  0.6962 -0.2399
 1049TIP3    H224563   2.739   4.519   4.711  0.4650 -0.0766 -0.0474
 1050TIP3   OH224564   3.917   1.980   5.886  0.5319  0.4904 -0.0043
 1050TIP3    H124565   3.883   1.967   5.975  0.1416 -0.7454 -0.3323
 1050TIP3    H224566   4.005   2.016   5.900  0.3921  0.5075  0.8837
 1051TIP3   OH224567   0.956   1.874  17.187 -0.4402  0.1602 -0.1499
 1051TIP3    H124568   0.934   1.812  17.117  0.3845 -0.0758 -0.2054
 1051TIP3    H224569   0.955   1.822  17.267  0.1354  0.0941 -0.1821
 1052TIP3   OH224570   6.129   3.779  17.056 -0.3339 -0.0550  0.0102
 1052TIP3    H124571   6.118   3.764  17.150  0.7801  0.0770  0.1714
 1052TIP3    H224572   6.196   3.848  17.050  0.3467 -0.7665 -0.8920
 1053TIP3   OH224573   0.867   2.609   1.566  0.1315 -0.4253 -0.0061
 1053TIP3    H124574   0.850   2.608   1.471  1.6305 -1.4700 -0.2843
 1053TIP3    H224575   0.787   2.573   1.604 -0.4189 -0.1684 -0.8973
 1054TIP3   OH224576   2.611   6.088   2.525  0.4081 -0.3441 -0.1365
 1054TIP3    H124577   2.610   5.994   2.506  2.4604 -0.4712  0.2599
 1054TIP3    H224578   2.536   6.102   2.582  1.1243 -2.0781  1.2768
 1055TIP3   OH224579   6.287   2.684   5.169  0.4419 -0.2430  0.3093
 1055TIP3    H124580   6.331   2.705   5.252 -1.2995 -1.9244  1.7036
 1055TIP3    H224581   6.307   2.592   5.153  1.6694  0.3567 -1.7379
 1056TIP3   OH224582   0.860   4.186  13.300  0.4809  0.2064  0.0688
 1056TIP3    H124583   0.811   4.137  13.365 -0.6251 -0.4914 -1.2679
 1056TIP3    H224584   0.865   4.275  13.336  0.3122 -0.2792  1.3184
 1057TIP3   OH224585   6.671   0.119   3.737  0.1470  0.1195  0.0912
 1057TIP3    H124586   6.719   0.064   3.675  1.1674  1.0283  0.0683
 1057TIP3    H224587   6.579   0.094   3.725  0.2698  0.6296 -2.1626
 1058TIP3   OH224588   6.327   0.811  10.674 -0.2318  0.2125 -0.0747
 1058TIP3    H124589   6.268   0.773  10.608  0.3797 -0.1434 -0.4284
 1058TIP3    H224590   6.271   0.864  10.730 -0.5062  2.0400 -2.0066
 1059TIP3   OH224591   0.453   2.557   3.893  0.4746  0.1283  0.5135
 1059TIP3    H124592   0.413   2.471   3.882 -0.3081  0.4222  1.1020
 1059TIP3    H224593   0.547   2.540   3.885  0.5162 -1.2330  3.4837
 1060TIP3   OH224594   4.065   3.627   0.768  0.4618  0.5748  0.4850
 1060TIP3    H124595   3.989   3.585   0.809  1.0662  0.7680  1.8489
 1060TIP3    H224596   4.137   3.610   0.830  1.1966  1.6755 -0.0627
 1061TIP3   OH224597   4.499   2.426   2.012 -0.1347 -0.2108 -0.3442
 1061TIP3    H124598   4.523   2.342   2.049  0.6226 -0.6241 -1.7104
 1061TIP3    H224599   4.412   2.412   1.974  0.0962 -0.4550 -0.7885
 1062TIP3   OH224600   1.957   0.377  12.943 -0.4631 -0.3403  0.2562
 1062TIP3    H124601   1.986   0.360  12.853 -2.0190  0.9664 -0.5122
 1062TIP3    H224602   1.886   0.315  12.957  0.1393 -0.9245  0.8068
 1063TIP3   OH224603   2.622   0.512  16.295  0.2431  0.2187  0.2521
 1063TIP3    H124604   2.591   0.463  16.371  0.0792 -0.9385 -0.5441
 1063TIP3    H224605   2.548   0.569  16.272  0.2334  0.4505  0.8576
 1064TIP3   OH224606   2.611   3.848   4.759  0.2595 -0.3094  0.2671
 1064TIP3    H124607   2.683   3.859   4.821  0.8860  0.9193 -0.6366
 1064TIP3    H224608   2.647   3.794   4.689  0.2251  0.0470 -0.0336
 1065TIP3   OH224609   6.152   5.503   0.415  0.0105  0.0893  0.1958
 1065TIP3    H124610   6.130   5.457   0.496 -1.3739  0.1058 -0.1638
 1065TIP3    H224611   6.087   5.572   0.408  0.5535  0.5313 -0.5799
 1066TIP3   OH224612   0.837   4.310   0.399  0.0655 -0.1541 -0.3174
 1066TIP3    H124613   0.782   4.279   0.471  0.1968  0.7134  0.1667
 1066TIP3    H224614   0.824   4.404   0.397  1.8474  0.1322  0.0719
 1067TIP3   OH224615   6.419   0.453   2.383 -0.4762  0.2247 -0.0229
 1067TIP3    H124616   6.383   0.374   2.422 -0.3192 -0.7874 -1.8597
 1067TIP3    H224617   6.510   0.456   2.415  0.2346 -1.6245 -1.7490
 1068TIP3   OH224618   3.470   1.981   1.269 -0.3448  0.8147  0.0898
 1068TIP3    H124619   3.433   2.060   1.230  0.8671  1.5006  0.3185
 1068TIP3    H224620   3.428   1.909   1.222 -0.5725  1.6119 -0.9306
 1069TIP3   OH224621   0.177   4.398  15.120  0.4533 -0.3025  0.1715
 1069TIP3    H124622   0.227   4.350  15.187  0.2279  0.0390  0.5797
 1069TIP3    H224623   0.106   4.339  15.097 -1.2318  0.7752  2.3959
 1070TIP3   OH224624   6.011   1.808   3.044  0.0451  0.0595 -0.0680
 1070TIP3    H124625   6.083   1.871   3.047  0.3268 -0.2406 -0.4593
 1070TIP3    H224626   6.031   1.752   2.969 -0.5227 -0.1161 -0.0908
 1071TIP3   OH224627   0.008   6.688  16.588 -0.2325 -0.2414 -0.4010
 1071TIP3    H124628  -0.022   6.608  16.630 -2.4093  0.9492  0.3693
 1071TIP3    H224629   0.026   6.748  16.660 -1.5335  0.9585 -1.0583
 1072TIP3   OH224630   4.837   4.120  15.957 -0.2936  0.0554  0.4755
 1072TIP3    H124631   4.753   4.076  15.966  0.2215 -1.0513 -0.0387
 1072TIP3    H224632   4.881   4.106  16.041 -0.8653  1.1563  0.9608
 1073TIP3   OH224633   6.309   1.269   5.128  0.0906  0.4915 -0.0798
 1073TIP3    H124634   6.314   1.247   5.035 -1.3397  2.0118 -0.5458
 1073TIP3    H224635   6.389   1.319   5.146  0.5796 -0.1843 -0.3897
 1074TIP3   OH224636   3.389   2.885   2.641  0.4193 -0.0603 -0.5408
 1074TIP3    H124637   3.409   2.951   2.575 -0.3632  0.0729 -0.6499
 1074TIP3    H224638   3.320   2.831   2.600 -1.4526  1.1884  0.9101
 1075TIP3   OH224639   3.708   2.961   5.502 -0.0104  0.1436  0.1330
 1075TIP3    H124640   3.799   2.934   5.515 -0.6733 -1.9544  0.7053
 1075TIP3    H224641   3.660   2.878   5.493 -1.7954  1.2262 -0.6085
 1076TIP3   OH224642   4.383   5.332  16.150 -0.1546 -0.4485 -0.4784
 1076TIP3    H124643   4.464   5.284  16.169 -1.1354 -1.5679  1.1385
 1076TIP3    H224644   4.389   5.412  16.202 -0.8614 -1.3995  1.1132
 1077TIP3   OH224645   3.550   4.958   1.145 -0.2817  0.0149 -0.0439
 1077TIP3    H124646   3.462   4.938   1.110 -0.3874 -2.7692  1.7100
 1077TIP3    H224647   3.608   4.944   1.070 -0.8529 -2.8351 -0.0227
 1078TIP3   OH224648   2.928   1.526  14.274 -0.3778  0.1242  0.2082
 1078TIP3    H124649   2.936   1.432  14.286 -0.5797 -0.1978 -2.0175
 1078TIP3    H224650   2.853   1.551  14.327 -0.2681 -0.9456  0.8737
 1079TIP3   OH224651   3.587   3.848  13.194 -0.2887 -0.0913 -0.6012
 1079TIP3    H124652   3.612   3.863  13.286 -0.5065 -3.0071 -0.0177
 1079TIP3    H224653   3.642   3.908  13.144  1.8864 -0.4655  1.2574
 1080TIP3   OH224654   6.568   4.382   3.891  0.3439 -0.7605  0.4926
 1080TIP3    H124655   6.504   4.336   3.945  1.5524 -0.9800  1.7653
 1080TIP3    H224656   6.557   4.345   3.804 -0.7172 -1.3591  0.8776
 1081TIP3   OH224657   0.084   1.134  11.579 -0.6058 -0.1522  0.5714
 1081TIP3    H124658   0.096   1.179  11.496  0.5653  1.8436  1.7711
 1081TIP3    H224659  -0.010   1.114  11.583 -0.7103 -0.0468 -1.0790
 1082TIP3   OH224660   5.193   3.604   3.357  0.3110 -0.2107 -0.0449
 1082TIP3    H124661   5.228   3.692   3.376 -1.2822  0.1585  1.2647
 1082TIP3    H224662   5.229   3.549   3.426  0.0735 -0.2639  0.0383
 1083TIP3   OH224663   2.927   2.756   0.309  0.0036  0.0041 -0.3574
 1083TIP3    H124664   2.909   2.850   0.309  0.0894  0.0334  0.7793
 1083TIP3    H224665   2.938   2.733   0.217  1.4057  1.3851 -0.5551
 1084TIP3   OH224666   3.792   1.872  12.792 -0.5881 -0.7960  0.3420
 1084TIP3    H124667   3.881   1.849  12.764 -0.4011 -1.2069  1.2726
 1084TIP3    H224668   3.755   1.917  12.716  0.6321 -0.0423  0.1762
 1085TIP3   OH224669   4.885   5.356   3.818  0.0402  0.2427 -0.2397
 1085TIP3    H124670   4.859   5.305   3.895 -1.4030  0.2909 -0.6823
 1085TIP3    H224671   4.804   5.400   3.790  0.4825 -0.0216 -1.9644
 1086TIP3   OH224672   4.892   6.563  14.065 -0.0199 -0.2297 -0.2015
 1086TIP3    H124673   4.941   6.482  14.055  0.9949  0.3130  0.3410
 1086TIP3    H224674   4.865   6.565  14.157 -0.4918 -0.1974 -0.3353
 1087TIP3   OH224675   2.276   1.684  15.207  0.1311  0.2011 -0.0881
 1087TIP3    H124676   2.310   1.609  15.255 -2.6284 -1.1378 -0.1249
 1087TIP3    H224677   2.349   1.712  15.151  1.5132 -1.8043  0.6730
 1088TIP3   OH224678   0.052   6.326  15.200 -0.2274 -0.1445 -0.9426
 1088TIP3    H124679   0.119   6.264  15.172 -0.6039 -2.1361  2.3144
 1088TIP3    H224680   0.083   6.358  15.285 -3.1651 -0.8269  0.4507
 1089TIP3   OH224681   0.756   4.244   3.719 -0.5002 -0.1765 -0.5990
 1089TIP3    H124682   0.701   4.292   3.781  2.0469  0.3797  1.2713
 1089TIP3    H224683   0.799   4.312   3.667  1.6958 -0.4322  0.8252
 1090TIP3   OH224684   4.626   3.046   1.753 -0.2285 -0.1833 -0.8328
 1090TIP3    H124685   4.630   3.139   1.776 -1.2259 -0.5216  0.7998
 1090TIP3    H224686   4.615   3.046   1.658  1.3631  1.3184 -1.0569
 1091TIP3   OH224687   6.442   2.435  17.071 -0.5406  0.2305 -0.1301
 1091TIP3    H124688   6.454   2.362  17.132 -1.9440  0.5385  0.5335
 1091TIP3    H224689   6.368   2.409  17.016 -1.8723  1.6531  0.9212
 1092TIP3   OH224690   3.814   3.279   0.644  0.1341 -0.4655  0.0569
 1092TIP3    H124691   3.898   3.308   0.608 -0.8141 -0.9496 -2.6694
 1092TIP3    H224692   3.766   3.361   0.661 -0.3662 -0.2129 -2.2921
 1093TIP3   OH224693   2.680   3.324   0.512 -0.5278  0.1546  0.2765
 1093TIP3    H124694   2.708   3.240   0.476  0.5581  0.7068 -0.1929
 1093TIP3    H224695   2.740   3.341   0.584 -1.9812 -0.3916  1.6405
 1094TIP3   OH224696   4.154   3.895  16.714  0.0573  0.1734  0.3166
 1094TIP3    H124697   4.131   3.910  16.806  0.6162  0.1611  0.4614
 1094TIP3    H224698   4.204   3.973  16.689  0.3515 -0.0578  0.1780
 1095TIP3   OH224699   2.829   2.293   1.823  0.3755 -0.0240 -0.1209
 1095TIP3    H124700   2.880   2.373   1.813  0.9471 -0.3834 -0.1108
 1095TIP3    H224701   2.738   2.320   1.809  0.4176  0.8923  1.2385
 1096TIP3   OH224702   5.351   1.027   5.744 -0.0336  0.0472 -0.3157
 1096TIP3    H124703   5.415   1.093   5.719  0.6449 -0.4337  0.1402
 1096TIP3    H224704   5.290   1.073   5.801  0.7060  0.1690  0.3879
 1097TIP3   OH224705   0.503   0.412   0.295 -0.9829  0.0435  0.0456
 1097TIP3    H124706   0.462   0.488   0.336 -0.1599  0.4972  0.0437
 1097TIP3    H224707   0.578   0.392   0.351  0.0778  0.5930 -1.1402
 1098TIP3   OH224708   0.658   3.353   3.760 -0.0915 -0.2328 -0.0852
 1098TIP3    H124709   0.732   3.359   3.821 -1.6653 -0.4294  1.8911
 1098TIP3    H224710   0.596   3.294   3.803 -3.0763  2.8974  0.0726
 1099TIP3   OH224711   1.832   2.933  14.793  0.2201  0.2220 -0.5513
 1099TIP3    H124712   1.881   2.916  14.712 -1.0016 -1.8347 -0.8977
 1099TIP3    H224713   1.805   3.024  14.785  3.0618  1.0922 -0.8317
 1100TIP3   OH224714   3.554   0.609   5.599  0.0097  0.7638 -0.4106
 1100TIP3    H124715   3.501   0.666   5.543 -0.7943  0.6573  0.2364
 1100TIP3    H224716   3.561   0.655   5.682 -0.1429  0.1987 -0.0787
 1101TIP3   OH224717   2.262   5.931  12.437  0.3132  0.1704 -0.6437
 1101TIP3    H124718   2.215   6.001  12.482 -0.7027  0.1432 -1.6337
 1101TIP3    H224719   2.355   5.955  12.445  0.3278 -1.0072  3.3730
 1102TIP3   OH224720   0.948   2.757  10.904  0.3702 -0.2515  0.6971
 1102TIP3    H124721   1.000   2.827  10.865  0.6535  0.1066  1.6980
 1102TIP3    H224722   0.959   2.683  10.844  1.5324  0.0070  0.5707
 1103TIP3   OH224723   1.102   4.932   1.533  0.2140 -0.1638  0.2324
 1103TIP3    H124724   1.058   5.012   1.506 -0.1791 -0.6716 -0.6957
 1103TIP3    H224725   1.041   4.862   1.510  0.4473 -0.7140  1.2485
 1104TIP3   OH224726   4.720   1.496  11.757  0.2441 -0.3299  0.1457
 1104TIP3    H124727   4.664   1.423  11.781 -0.8225  0.7449  0.9707
 1104TIP3    H224728   4.668   1.547  11.695  0.4043  0.5417  0.7213
 1105TIP3   OH224729   6.613   0.331  11.711  0.5699  0.7255 -0.2732
 1105TIP3    H124730   6.657   0.262  11.661 -1.3373  1.2522 -2.8027
 1105TIP3    H224731   6.648   0.413  11.675  0.0496  1.1128  0.0930
 1106TIP3   OH224732   0.338   5.096   5.920  0.1562  0.0874  0.1710
 1106TIP3    H124733   0.311   5.031   5.984 -0.5663  0.2427  0.0259
 1106TIP3    H224734   0.426   5.070   5.895  0.0749 -0.5236  0.5152
 1107TIP3   OH224735   1.920   1.927  16.884  0.6697 -0.1256  0.1344
 1107TIP3    H124736   1.885   1.898  16.968  1.5549 -1.2243  0.1437
 1107TIP3    H224737   1.980   1.998  16.907  0.9220 -0.4325  0.4363
 1108TIP3   OH224738   3.248   6.284  16.695 -0.1960  0.4917 -0.5924
 1108TIP3    H124739   3.160   6.311  16.670 -0.1984 -0.9522 -2.2876
 1108TIP3    H224740   3.267   6.209  16.638  2.0266  0.6284 -0.0840
 1109TIP3   OH224741   6.156   2.915   3.982 -0.6267 -0.4324 -0.3198
 1109TIP3    H124742   6.087   2.981   3.975 -1.0679 -1.1198 -2.9765
 1109TIP3    H224743   6.123   2.854   4.048 -0.5746  1.5143  1.5849
 1110TIP3   OH224744   1.457   6.508   3.732 -0.2035 -0.4129 -1.5993
 1110TIP3    H124745   1.434   6.416   3.737 -0.4640 -0.2809 -0.1017
 1110TIP3    H224746   1.482   6.522   3.641 -1.2812 -1.6853 -2.0958
 1111TIP3   OH224747   6.473   6.219  14.233  0.3901  0.3448 -0.0686
 1111TIP3    H124748   6.407   6.181  14.292 -1.3019 -0.8758 -2.6540
 1111TIP3    H224749   6.527   6.145  14.207  0.2514  0.6119 -1.1372
 1112TIP3   OH224750   3.778   2.725   0.672 -0.2119 -0.1097 -0.0153
 1112TIP3    H124751   3.850   2.748   0.614  0.1316  0.3052  0.5653
 1112TIP3    H224752   3.783   2.789   0.743 -1.5753  0.3404 -0.3178
 1113TIP3   OH224753   0.287   6.726   1.722 -0.2982  0.4294 -0.3435
 1113TIP3    H124754   0.353   6.780   1.680 -1.8532  2.0409 -0.7805
 1113TIP3    H224755   0.234   6.787   1.772 -0.2591 -1.0951  1.6320
 1114TIP3   OH224756   6.134   2.448   4.240  0.1712 -0.2498  0.1093
 1114TIP3    H124757   6.090   2.370   4.274  0.9192 -1.0551 -0.7403
 1114TIP3    H224758   6.218   2.416   4.208  0.4658  0.9050 -0.2833
 1115TIP3   OH224759   2.265   2.644  10.585  0.0021 -0.7616  0.4820
 1115TIP3    H124760   2.170   2.642  10.596 -0.1515 -0.5268 -0.7294
 1115TIP3    H224761   2.294   2.718  10.638 -0.3022 -1.7831  2.1175
 1116TIP3   OH224762   2.626   4.254   2.924  0.3108 -0.4132 -0.7303
 1116TIP3    H124763   2.549   4.209   2.959 -1.3114  2.3385 -0.5480
 1116TIP3    H224764   2.688   4.256   2.997 -0.8504  0.4002  0.2596
 1117TIP3   OH224765   2.012   5.255   1.363 -0.2405  0.0558  0.2275
 1117TIP3    H124766   2.070   5.276   1.436  1.6455 -1.0759 -0.8792
 1117TIP3    H224767   1.943   5.202   1.400  0.2158  0.2407  1.3477
 1118TIP3   OH224768   2.044   2.928   3.715  0.0899 -0.4172  0.1816
 1118TIP3    H124769   2.091   3.002   3.752 -0.7220  0.2957 -0.2124
 1118TIP3    H224770   2.041   2.945   3.621 -1.0757 -0.3872  0.2172
 1119TIP3   OH224771   1.391   3.844  11.432  0.6139  0.2735  0.0139
 1119TIP3    H124772   1.380   3.834  11.337 -1.6332 -2.3914  0.5004
 1119TIP3    H224773   1.486   3.835  11.445  1.1878  2.5162 -2.1177
 1120TIP3   OH224774   3.862   4.833   2.383  0.5467 -0.5943  0.0754
 1120TIP3    H124775   3.867   4.868   2.472 -0.5903 -0.7177  0.1945
 1120TIP3    H224776   3.922   4.889   2.333  1.0760 -0.4267  0.8792
 1121TIP3   OH224777   5.952   3.219  11.557 -0.3488 -0.8139  0.5013
 1121TIP3    H124778   5.976   3.142  11.608 -0.6634 -1.2156  0.0484
 1121TIP3    H224779   5.970   3.194  11.466  0.7367  0.0873  0.4551
 1122TIP3   OH224780   6.628   6.008  13.363  0.2035  0.3847  0.4174
 1122TIP3    H124781   6.684   5.970  13.295 -0.4807 -1.6821  0.9867
 1122TIP3    H224782   6.690   6.045  13.426  0.8838  0.5810 -0.3517
 1123TIP3   OH224783   6.601   2.494  15.407  0.2448 -0.0663  0.1628
 1123TIP3    H124784   6.574   2.407  15.434  1.4508 -0.8895 -1.1917
 1123TIP3    H224785   6.685   2.508  15.452  0.8340 -0.2613 -0.8680
 1124TIP3   OH224786   5.630   1.640   4.868 -0.3482  0.0071 -0.0241
 1124TIP3    H124787   5.584   1.662   4.787 -1.1369 -0.8115  0.1939
 1124TIP3    H224788   5.709   1.594   4.839  1.2526  2.9301 -0.4771
 1125TIP3   OH224789   4.451   2.582  16.768  0.1302  0.0938 -0.3201
 1125TIP3    H124790   4.484   2.493  16.782  0.5801  0.1604 -0.9595
 1125TIP3    H224791   4.358   2.576  16.788  0.1522 -0.5357 -0.4022
 1126TIP3   OH224792   1.266   1.391  12.010  0.6367  0.0342 -0.3907
 1126TIP3    H124793   1.173   1.365  12.010  1.0458 -1.5306  0.6822
 1126TIP3    H224794   1.312   1.313  12.040  2.2994  0.8691 -0.7185
 1127TIP3   OH224795   4.365   5.530  14.443 -0.2128  0.4978 -0.0518
 1127TIP3    H124796   4.373   5.608  14.388  0.5056 -0.4385 -1.3160
 1127TIP3    H224797   4.432   5.541  14.510  1.3739 -0.0259 -1.5029
 1128TIP3   OH224798   6.737   2.363  15.119 -0.3105  0.3763 -0.0546
 1128TIP3    H124799   6.760   2.449  15.154 -0.5219  0.1782  0.5902
 1128TIP3    H224800   6.805   2.344  15.055  0.8016  0.2174  1.1392
 1129TIP3   OH224801   5.701   4.724   5.598  0.1225 -0.1646  0.8720
 1129TIP3    H124802   5.634   4.740   5.532  0.6425 -0.0970  0.3645
 1129TIP3    H224803   5.768   4.791   5.582  0.6055 -0.6125  0.9843
 1130TIP3   OH224804   1.260   3.449  11.246  0.0172 -0.1873  0.1603
 1130TIP3    H124805   1.266   3.359  11.278 -3.1698  0.0451  1.5894
 1130TIP3    H224806   1.259   3.442  11.151 -1.3345 -1.7414  0.2821
 1131TIP3   OH224807   2.777   3.912   5.016  0.0252 -0.4429 -0.3668
 1131TIP3    H124808   2.837   3.925   5.090 -1.5198  0.3685  0.7784
 1131TIP3    H224809   2.749   4.001   4.993 -0.2810 -0.7739 -1.2850
 1132TIP3   OH224810   0.723   3.329  15.991 -0.3583 -0.0965 -0.5031
 1132TIP3    H124811   0.633   3.330  16.023  0.0103  2.3370  0.5970
 1132TIP3    H224812   0.719   3.377  15.908  0.2024  1.7939  0.5171
 1133TIP3   OH224813   5.691   4.648   2.658 -0.2864  0.3913  0.2645
 1133TIP3    H124814   5.615   4.602   2.691 -1.3844  1.9918  0.0465
 1133TIP3    H224815   5.684   4.736   2.695  1.2072  0.7045 -0.1296
 1134TIP3   OH224816   5.805   2.791  13.975 -0.0571 -0.5526  0.1746
 1134TIP3    H124817   5.728   2.778  13.920 -0.9412 -1.0464  1.5192
 1134TIP3    H224818   5.772   2.791  14.065  1.4843 -0.6145  0.7680
 1135TIP3   OH224819   2.826   0.766  16.360 -0.0677 -0.4374 -0.0549
 1135TIP3    H124820   2.846   0.777  16.267 -0.3076 -0.8531 -0.1557
 1135TIP3    H224821   2.772   0.687  16.363 -0.5263 -0.1108  0.3725
 1136TIP3   OH224822   4.334   5.382  13.056 -0.1238  0.0386  0.2438
 1136TIP3    H124823   4.308   5.328  13.130  0.5640  0.5462  0.8701
 1136TIP3    H224824   4.265   5.448  13.049 -0.3940 -0.2500  0.1833
 1137TIP3   OH224825   1.793   3.477  11.549  0.5798 -0.0547  0.1665
 1137TIP3    H124826   1.763   3.513  11.465  0.2154 -0.2905  0.1947
 1137TIP3    H224827   1.745   3.527  11.615  0.6504 -0.0662  0.2258
 1138TIP3   OH224828   3.522   1.737   2.429 -0.4495 -0.0065  0.0389
 1138TIP3    H124829   3.535   1.686   2.349  0.3046  0.6046 -0.2464
 1138TIP3    H224830   3.587   1.703   2.491 -0.5554 -0.0072  0.1499
 1139TIP3   OH224831   2.060   4.855  10.612 -0.2695 -0.3227 -0.8050
 1139TIP3    H124832   1.976   4.898  10.627 -0.3362 -1.0942  1.1489
 1139TIP3    H224833   2.122   4.905  10.666  0.0742 -1.2299 -0.3523
 1140TIP3   OH224834   2.524   1.080   2.820 -0.4074 -0.2956 -0.4079
 1140TIP3    H124835   2.584   1.049   2.753  0.8110 -0.0941  0.5795
 1140TIP3    H224836   2.438   1.080   2.777 -0.2024 -3.3938 -0.9657
 1141TIP3   OH224837   6.736   5.875  12.843 -0.5465  0.0601  0.3421
 1141TIP3    H124838   6.829   5.869  12.819 -0.4064  1.8438  0.3704
 1141TIP3    H224839   6.701   5.788  12.822  0.8733 -0.2814 -0.7486
 1142TIP3   OH224840   0.695   5.163  12.543 -0.0350  0.0329 -0.0265
 1142TIP3    H124841   0.717   5.135  12.632 -1.1085 -1.0652 -0.0886
 1142TIP3    H224842   0.673   5.082  12.497  0.3185  0.6071 -1.2479
 1143TIP3   OH224843   0.639   4.227   0.568  0.1694  0.5258  0.0028
 1143TIP3    H124844   0.566   4.278   0.533  0.1118  0.9098  0.6835
 1143TIP3    H224845   0.631   4.141   0.526 -1.5249  0.0997  1.1599
 1144TIP3   OH224846   1.156   4.986  13.082  0.0776  0.3561 -1.0131
 1144TIP3    H124847   1.092   5.053  13.105 -0.0570 -0.4363  0.9918
 1144TIP3    H224848   1.215   4.983  13.157  0.8512 -0.8650 -1.6615
 1145TIP3   OH224849   4.610   6.404  12.623  0.7740  0.2866  0.4381
 1145TIP3    H124850   4.549   6.419  12.551  1.7512 -0.2197 -0.5102
 1145TIP3    H224851   4.673   6.476  12.616  0.5843  0.5251  1.1099
 1146TIP3   OH224852   4.575   1.654  11.555 -0.0975 -0.2991  0.1964
 1146TIP3    H124853   4.657   1.701  11.570  0.0776 -0.9120  1.1799
 1146TIP3    H224854   4.575   1.637  11.460  1.2606 -0.9503  0.3058
 1147TIP3   OH224855   2.020   6.039  13.400 -0.2911  0.4778  0.3828
 1147TIP3    H124856   1.983   6.016  13.315  0.2755  0.9673 -0.0003
 1147TIP3    H224857   1.962   5.998  13.464 -1.1494  0.7554 -0.2234
 1148TIP3   OH224858   1.632   2.582  16.953 -0.0749 -0.2918  0.5953
 1148TIP3    H124859   1.592   2.497  16.940 -1.4421  0.4394 -0.1256
 1148TIP3    H224860   1.602   2.635  16.878  0.5002  0.9055  1.1838
 1149TIP3   OH224861   6.299   5.271   4.863 -0.1197  0.5266  0.1180
 1149TIP3    H124862   6.239   5.339   4.832 -0.0131  0.0957 -1.0635
 1149TIP3    H224863   6.286   5.198   4.802  0.4710 -0.1463  0.7906
 1150TIP3   OH224864   5.415   5.266  12.164 -0.4198 -0.0826 -0.1903
 1150TIP3    H124865   5.356   5.341  12.156  0.0022  0.2306 -0.3809
 1150TIP3    H224866   5.443   5.267  12.255 -0.3525  0.0337 -0.2128
 1151TIP3   OH224867   0.406   6.520   2.079 -0.5545  0.2113  0.0243
 1151TIP3    H124868   0.433   6.547   1.991 -0.0719  2.3901  0.8113
 1151TIP3    H224869   0.469   6.562   2.137 -0.8361 -1.2676  1.4186
 1152TIP3   OH224870   4.050   1.003  11.378  0.7357  0.2902  0.1955
 1152TIP3    H124871   4.013   0.958  11.302 -0.2386 -0.3426  1.0427
 1152TIP3    H224872   4.096   0.935  11.427 -1.0287  0.1016  1.6606
 1153TIP3   OH224873   0.861   4.896   0.460 -0.3076  0.6035 -0.3371
 1153TIP3    H124874   0.771   4.923   0.439 -0.0758  1.0535 -0.7449
 1153TIP3    H224875   0.905   4.977   0.485 -0.1093  0.3263  0.2226
 1154TIP3   OH224876   6.466   4.261  17.115 -0.5086  0.2126 -0.2581
 1154TIP3    H124877   6.533   4.325  17.091  1.0385 -1.1233  0.3885
 1154TIP3    H224878   6.415   4.248  17.035  1.0585  0.0041 -1.2390
 1155TIP3   OH224879   5.307   1.762   0.992  0.2667  0.1520 -0.1769
 1155TIP3    H124880   5.277   1.843   0.950 -1.3558 -0.5355 -0.3535
 1155TIP3    H224881   5.334   1.706   0.920 -1.6361 -0.6731 -0.2641
 1156TIP3   OH224882   4.585   1.951   4.844 -0.4629 -0.3500 -0.6787
 1156TIP3    H124883   4.608   2.018   4.909 -1.0652 -1.8301  1.1080
 1156TIP3    H224884   4.668   1.911   4.821 -0.3308 -0.3549 -0.2076
 1157TIP3   OH224885   5.082   3.457  15.160 -0.2831 -0.1225 -0.4659
 1157TIP3    H124886   5.015   3.478  15.095  0.0111 -0.0389 -0.7446
 1157TIP3    H224887   5.108   3.368  15.140 -1.0541 -0.5318  0.2956
 1158TIP3   OH224888   3.475   6.781  11.206 -0.1541  0.5150 -0.2235
 1158TIP3    H124889   3.496   6.845  11.274 -0.1488  0.6306 -0.3339
 1158TIP3    H224890   3.490   6.828  11.124 -0.3635  0.4419 -0.3043
 1159TIP3   OH224891   4.385   1.960  14.488 -0.4931  0.3790 -0.0141
 1159TIP3    H124892   4.419   1.966  14.399  0.2455 -1.5082  0.1151
 1159TIP3    H224893   4.300   2.004  14.485 -0.3011  0.6605 -1.5477
 1160TIP3   OH224894   1.920   5.407   5.910  0.4977 -0.7146 -0.0870
 1160TIP3    H124895   1.942   5.490   5.867  1.2732 -1.0824 -0.3972
 1160TIP3    H224896   1.846   5.429   5.967  1.0589  0.3125  0.2534
 1161TIP3   OH224897   4.201   2.968   3.770  0.0736  0.5943 -0.8615
 1161TIP3    H124898   4.177   3.047   3.721 -3.4509  1.5759  2.2723
 1161TIP3    H224899   4.275   2.994   3.824 -0.9414  1.7344 -0.0032
 1162TIP3   OH224900   6.318   1.290   3.045  0.0008 -0.1307  0.0342
 1162TIP3    H124901   6.252   1.252   2.987  0.1415 -1.3851  0.6761
 1162TIP3    H224902   6.402   1.264   3.007  0.1008  0.0718  0.1172
 1163TIP3   OH224903   2.932   4.493   4.449 -0.0173 -0.0617  0.0301
 1163TIP3    H124904   2.999   4.492   4.518 -0.7381  1.1730  0.7547
 1163TIP3    H224905   2.970   4.547   4.380  0.0883 -0.0692  0.0824
 1164TIP3   OH224906   2.770   4.307  15.243 -0.0843  0.3245  0.5425
 1164TIP3    H124907   2.774   4.396  15.278 -0.4425  0.5930 -0.0809
 1164TIP3    H224908   2.838   4.305  15.175 -0.2649  0.2077  0.3643
 1165TIP3   OH224909   6.023   2.656   5.554  0.5318 -0.0241  0.1765
 1165TIP3    H124910   5.941   2.676   5.509  1.4928  0.5185 -1.3677
 1165TIP3    H224911   6.054   2.576   5.512  1.9667  1.0655 -0.8732
 1166TIP3   OH224912   4.390   6.717  16.822  0.6131 -0.5722 -0.6769
 1166TIP3    H124913   4.386   6.812  16.832 -1.0887 -0.6735 -0.4150
 1166TIP3    H224914   4.456   6.704  16.754  1.3320  0.7619 -0.2604
 1167TIP3   OH224915   0.884   0.028   1.005 -0.4392 -0.2728  0.1999
 1167TIP3    H124916   0.801   0.005   1.045  0.5026  0.6012  2.7890
 1167TIP3    H224917   0.943  -0.043   1.029  0.0899  0.1656  0.2217
 1168TIP3   OH224918   5.125   5.139   4.958 -0.2283 -0.2835  0.4016
 1168TIP3    H124919   5.213   5.153   4.923 -0.2232 -0.2059  0.4452
 1168TIP3    H224920   5.068   5.155   4.883 -0.3124  1.4821  0.8215
 1169TIP3   OH224921   6.230   5.619   4.670 -0.6154 -0.0109  0.1797
 1169TIP3    H124922   6.157   5.631   4.610  0.2038  1.7585 -0.4879
 1169TIP3    H224923   6.308   5.638   4.618  0.0632  2.5334  2.0105
 1170TIP3   OH224924   5.402   6.742   0.164  0.1848  0.2495  0.8796
 1170TIP3    H124925   5.446   6.736   0.079 -0.6322  0.7374  0.4160
 1170TIP3    H224926   5.390   6.836   0.178 -3.6571  0.0463 -0.5479
 1171TIP3   OH224927   4.454   2.599   0.336  0.1278  0.1855 -0.2190
 1171TIP3    H124928   4.366   2.623   0.364  0.0298  0.2657 -0.6024
 1171TIP3    H224929   4.455   2.503   0.339  0.0297  0.1846 -0.2112
 1172TIP3   OH224930   6.728   5.725  14.215  0.2447 -0.0330 -0.5640
 1172TIP3    H124931   6.749   5.800  14.160  0.1984 -0.3026 -0.9543
 1172TIP3    H224932   6.805   5.669  14.210  1.0554  0.8876  1.2731
 1173TIP3   OH224933   0.281   5.584   0.919 -0.0610  0.3113  0.1060
 1173TIP3    H124934   0.363   5.598   0.871  0.1182 -3.0800 -0.7287
 1173TIP3    H224935   0.221   5.548   0.853 -2.0097  2.0021  0.8967
 1174TIP3   OH224936   0.603   1.279  15.103 -0.4750 -0.1386  0.3334
 1174TIP3    H124937   0.563   1.230  15.031 -1.0436 -0.4804  0.8759
 1174TIP3    H224938   0.692   1.246  15.109  0.0748  0.9827 -1.2224
 1175TIP3   OH224939   4.584   6.387   0.895  0.0518  0.2733  0.4785
 1175TIP3    H124940   4.613   6.296   0.901 -1.7184 -0.2163  2.3044
 1175TIP3    H224941   4.508   6.385   0.838 -0.8855  0.3410  1.6942
 1176TIP3   OH224942   0.497   4.623  14.746  0.0132 -0.3186 -0.4116
 1176TIP3    H124943   0.418   4.614  14.800  0.3336  1.5617  0.4458
 1176TIP3    H224944   0.479   4.699  14.690  1.0670 -0.1000 -0.4564
 1177TIP3   OH224945   5.488   6.113   6.668  0.1464  0.2154 -0.0402
 1177TIP3    H124946   5.566   6.109   6.723 -0.1648 -0.1356  0.3840
 1177TIP3    H224947   5.518   6.148   6.584  0.5652  1.0687  0.4638
 1178TIP3   OH224948   6.624   5.046  13.251 -0.5215 -0.6179 -0.5283
 1178TIP3    H124949   6.716   5.027  13.232 -0.5943 -0.4225 -1.0716
 1178TIP3    H224950   6.580   4.961  13.246 -0.5811 -0.5284 -1.4381
 1179TIP3   OH224951   5.012   0.211  11.558 -0.3720 -0.0417  0.2847
 1179TIP3    H124952   5.029   0.118  11.539  1.5553  0.2000  0.6645
 1179TIP3    H224953   4.955   0.240  11.486  0.3512 -1.1130 -0.7527
 1180TIP3   OH224954   5.239   4.700   2.933 -0.1691  0.1525  0.1979
 1180TIP3    H124955   5.209   4.634   2.996 -1.6035  2.1071  1.6091
 1180TIP3    H224956   5.224   4.784   2.977 -0.7269  1.5362 -2.5492
 1181TIP3   OH224957   1.278   5.513  15.811  0.4265  0.4294 -0.4101
 1181TIP3    H124958   1.354   5.490  15.759  0.1212  0.2811 -0.7927
 1181TIP3    H224959   1.314   5.541  15.895  0.9586  1.2821 -0.9103
 1182TIP3   OH224960   5.178   2.988  16.507  0.0929 -0.3593  0.4182
 1182TIP3    H124961   5.222   3.007  16.424 -1.2190  1.0875  0.0229
 1182TIP3    H224962   5.196   2.895  16.522  1.6653 -0.2651 -0.6754
 1183TIP3   OH224963   3.077   3.470  11.307 -0.1819  0.0999 -0.3052
 1183TIP3    H124964   3.124   3.492  11.388  1.8382  1.5499 -1.8235
 1183TIP3    H224965   3.075   3.552  11.257 -3.0812 -0.3104 -0.9352
 1184TIP3   OH224966   5.104   5.031   5.548  0.1801  0.1479 -0.1473
 1184TIP3    H124967   5.167   4.970   5.586 -0.1832 -0.3962 -0.4117
 1184TIP3    H224968   5.089   5.096   5.617 -1.1067 -1.3031  0.9858
 1185TIP3   OH224969   5.349   4.915   1.096  0.0576 -0.0316  0.1280
 1185TIP3    H124970   5.440   4.924   1.124 -0.6339  0.7677  2.1334
 1185TIP3    H224971   5.348   4.953   1.008  1.5316  0.4545  0.3008
 1186TIP3   OH224972   5.502   3.508  15.392  0.3484  0.1942 -0.1089
 1186TIP3    H124973   5.592   3.482  15.410  0.7258  1.0851 -0.6686
 1186TIP3    H224974   5.509   3.593  15.349 -0.6414 -0.6627 -2.0389
 1187TIP3   OH224975   4.843   4.376   4.955  0.2206 -0.1997  1.1433
 1187TIP3    H124976   4.810   4.455   4.997 -1.1056  0.0601 -0.3530
 1187TIP3    H224977   4.937   4.376   4.975  0.0772  1.2830  1.8823
 1188TIP3   OH224978   4.373   1.898  13.362 -0.3275  0.4399  0.5072
 1188TIP3    H124979   4.294   1.846  13.378 -0.1239  0.0590  0.2705
 1188TIP3    H224980   4.415   1.904  13.448 -0.7810  0.9219  0.7027
 1189TIP3   OH224981   5.374   2.074   3.650 -0.0248  0.0110 -0.1261
 1189TIP3    H124982   5.325   1.999   3.617 -1.2367  0.6335  0.2403
 1189TIP3    H224983   5.360   2.072   3.745 -2.5894  2.4442 -0.4071
 1190TIP3   OH224984   0.416   2.907   2.135 -0.2817  0.0020 -0.1681
 1190TIP3    H124985   0.441   2.819   2.162  2.3528  0.4801 -0.8674
 1190TIP3    H224986   0.328   2.898   2.098 -0.5611 -2.0808  0.9858
 1191TIP3   OH224987   1.461   5.462  14.961 -0.0513  0.4596  0.2869
 1191TIP3    H124988   1.497   5.525  15.024  0.6004 -2.1693  2.6750
 1191TIP3    H224989   1.537   5.426  14.916 -0.1024 -0.9009  1.2312
 1192TIP3   OH224990   4.735   6.566   6.772 -0.6891  0.0097 -0.2037
 1192TIP3    H124991   4.771   6.609   6.850  0.7986 -0.1704 -0.7847
 1192TIP3    H224992   4.812   6.534   6.724 -1.5624  0.5790 -2.0241
 1193TIP3   OH224993   2.928   4.064  15.011 -0.1142  0.1913  0.5617
 1193TIP3    H124994   2.929   4.061  15.106  1.4445  1.3969  0.6066
 1193TIP3    H224995   2.940   3.973  14.983  1.8079  0.1392  1.5218
 1194TIP3   OH224996   3.804   4.136  16.849  0.1751 -0.3986  0.1854
 1194TIP3    H124997   3.847   4.083  16.917 -1.0168 -1.5928  0.0281
 1194TIP3    H224998   3.863   4.210  16.836  1.5811 -1.3733  0.8543
 1195TIP3   OH224999   6.115   5.644   3.889 -0.2651  0.2174  0.3015
 1195TIP3    H125000   6.130   5.554   3.859 -1.0910 -0.1868  1.0474
 1195TIP3    H225001   6.062   5.683   3.819  0.0107  0.0900  0.0201
 1196TIP3   OH225002   2.141   6.056  15.983  0.1614  0.5515 -0.3142
 1196TIP3    H125003   2.188   6.063  16.066 -0.2010  2.5800 -0.2629
 1196TIP3    H225004   2.205   6.016  15.923 -0.3655 -3.2036  1.5056
 1197TIP3   OH225005   5.909   6.097  13.968  0.3951 -0.1652 -0.2390
 1197TIP3    H125006   5.968   6.148  14.023  0.8077 -0.2788 -0.5731
 1197TIP3    H225007   5.912   6.141  13.883 -0.9532  0.5665  0.0639
 1198TIP3   OH225008   6.545   0.892   4.523 -0.0641  0.1460  0.1984
 1198TIP3    H125009   6.521   0.813   4.475 -1.7381  1.6352 -1.5254
 1198TIP3    H225010   6.534   0.870   4.615  0.6125 -1.9676 -0.2115
 1199TIP3   OH225011   4.421   3.730  15.733  0.2845  0.2189  0.0829
 1199TIP3    H125012   4.495   3.745  15.792 -0.9877  1.0089  1.4977
 1199TIP3    H225013   4.384   3.817  15.717 -1.3728 -0.3286  0.7742
 1200TIP3   OH225014   6.251   6.070   5.068 -0.2655  0.1174  0.2394
 1200TIP3    H125015   6.264   6.050   4.975  0.7931 -0.2867  0.4673
 1200TIP3    H225016   6.213   6.157   5.069 -0.8494 -0.1168 -0.6013
 1201TIP3   OH225017   1.697   1.824  14.497 -0.1710  0.4336 -0.6978
 1201TIP3    H125018   1.608   1.860  14.493 -0.0256  0.6782 -2.1701
 1201TIP3    H225019   1.732   1.838  14.409  0.8049 -0.9984 -0.5477
 1202TIP3   OH225020   4.685   1.949   1.335 -0.8376 -0.1465  0.2237
 1202TIP3    H125021   4.597   1.976   1.362 -0.8833  3.5808 -3.1569
 1202TIP3    H225022   4.743   1.999   1.391 -0.8946  0.6384 -0.4155
 1203TIP3   OH225023   6.734   1.372   2.755 -0.5258 -0.2689  0.2708
 1203TIP3    H125024   6.827   1.373   2.778 -0.9890 -1.1051  2.2402
 1203TIP3    H225025   6.701   1.457   2.784 -0.8631 -0.8747  1.6827
 1204TIP3   OH225026   3.370   3.428  11.362 -0.1390  0.1507 -0.4954
 1204TIP3    H125027   3.315   3.501  11.391 -2.4423 -1.5685 -0.4071
 1204TIP3    H225028   3.389   3.380  11.442 -1.1020 -0.9766 -0.9308
 1205TIP3   OH225029   0.432   3.671  10.330 -0.6548 -0.0609  0.1884
 1205TIP3    H125030   0.342   3.673  10.296 -0.1726 -0.9412 -1.1744
 1205TIP3    H225031   0.486   3.698  10.256  0.3006 -0.7107  0.6482
 1206TIP3   OH225032   3.062   6.300  12.371  0.1833  0.1696 -0.2875
 1206TIP3    H125033   3.000   6.356  12.326  0.7387  0.5839 -0.5403
 1206TIP3    H225034   3.082   6.346  12.453 -0.7644 -0.5439  0.3566
 1207TIP3   OH225035   4.897   2.441   5.806 -0.5967  0.9715  0.0855
 1207TIP3    H125036   4.913   2.529   5.840 -0.8262  0.8920  0.4023
 1207TIP3    H225037   4.969   2.424   5.746  1.7865 -0.2611  3.1730
 1208TIP3   OH225038   5.128   3.559   4.322 -0.2731 -0.0128  0.0692
 1208TIP3    H125039   5.110   3.571   4.415 -0.0165  0.9511 -0.0070
 1208TIP3    H225040   5.223   3.565   4.314 -0.2674 -0.4217 -0.2082
 1209TIP3   OH225041   6.251   0.717   0.621  0.1450 -0.2778 -0.6830
 1209TIP3    H125042   6.330   0.762   0.591 -0.3141  0.3385 -0.9690
 1209TIP3    H225043   6.241   0.644   0.560  0.3622 -0.2292 -0.7802
 1210TIP3   OH225044   0.005   6.644  11.844 -0.6295 -0.1261  0.1449
 1210TIP3    H125045  -0.066   6.667  11.783 -1.0283  0.6611  0.9118
 1210TIP3    H225046  -0.035   6.650  11.930 -0.2850 -2.0437  0.4574
 1211TIP3   OH225047   2.678   5.596   4.464  0.1444 -0.3987 -0.7894
 1211TIP3    H125048   2.604   5.640   4.423  0.1547 -0.0245 -0.4048
 1211TIP3    H225049   2.751   5.657   4.456 -0.5508  0.9310  2.3530
 1212TIP3   OH225050   3.456   6.116  12.318 -0.0572  0.2964  0.4199
 1212TIP3    H125051   3.361   6.129  12.308  0.2149  2.9501  0.8687
 1212TIP3    H225052   3.478   6.050  12.252 -2.4897 -1.6724  1.5140
 1213TIP3   OH225053   4.284   5.288   4.059  0.0713  0.1177 -0.4365
 1213TIP3    H125054   4.296   5.327   4.146  0.0876 -1.1274  0.1270
 1213TIP3    H225055   4.206   5.331   4.025  0.4140  1.0549 -0.0523
 1214TIP3   OH225056   1.670   1.587  14.606  0.0158  0.0634 -0.1542
 1214TIP3    H125057   1.593   1.616  14.557  1.1094  1.4493 -1.0892
 1214TIP3    H225058   1.731   1.661  14.600  1.5342 -1.1340  0.3308
 1215TIP3   OH225059   3.248   6.516  14.848 -0.2246  0.4035  0.9920
 1215TIP3    H125060   3.169   6.569  14.853 -1.4944 -1.3283 -0.4244
 1215TIP3    H225061   3.232   6.442  14.906  0.3294  0.0125  0.6548
 1216TIP3   OH225062   1.143   0.198  14.644  0.8585 -0.0558  0.3556
 1216TIP3    H125063   1.058   0.239  14.629  0.9646  0.2313  0.5340
 1216TIP3    H225064   1.150   0.132  14.575  0.5174 -0.0421  0.3058
 1217TIP3   OH225065   4.131   1.917   3.384 -0.2657 -0.3475  0.6564
 1217TIP3    H125066   4.161   1.855   3.318 -0.7501 -1.6265  1.6272
 1217TIP3    H225067   4.093   1.863   3.453 -0.2533  0.9954  1.7425
 1218TIP3   OH225068   1.591   4.811  14.075 -0.0783 -0.3976 -0.0602
 1218TIP3    H125069   1.630   4.726  14.055 -1.4013 -1.4115  1.4999
 1218TIP3    H225070   1.665   4.870  14.085  0.8106 -1.1011 -2.2536
 1219TIP3   OH225071   0.585   6.620  14.525 -0.0037 -0.1920 -0.9370
 1219TIP3    H125072   0.650   6.556  14.554  0.7258  0.9019 -0.1121
 1219TIP3    H225073   0.614   6.647  14.437  0.6180  0.2267 -0.6062
 1220TIP3   OH225074   1.592   1.467   4.818  0.3319 -0.2953 -0.1621
 1220TIP3    H125075   1.638   1.545   4.848  0.7125 -0.5462 -0.1004
 1220TIP3    H225076   1.577   1.482   4.725  0.7700 -0.3336 -0.2382
 1221TIP3   OH225077   0.617   5.211  11.870 -0.2257  0.1849 -0.0169
 1221TIP3    H125078   0.703   5.213  11.828 -1.2699  0.7696 -2.1856
 1221TIP3    H225079   0.600   5.302  11.894 -1.2022  0.4384 -1.6313
 1222TIP3   OH225080   1.047   6.529   2.669  0.2471 -0.1070  0.1051
 1222TIP3    H125081   1.077   6.456   2.615  0.1424  0.7401 -1.1194
 1222TIP3    H225082   0.974   6.567   2.620  1.0315  1.5168  0.1675
 1223TIP3   OH225083   2.141   6.593   2.694  0.1416  0.7673 -0.0247
 1223TIP3    H125084   2.116   6.663   2.755 -1.1003  1.1708 -0.9626
 1223TIP3    H225085   2.117   6.628   2.608 -1.5567 -1.2859 -0.4077
 1224TIP3   OH225086   0.176   0.941  14.411  0.0183  0.1054 -0.0387
 1224TIP3    H125087   0.241   0.942  14.481 -1.0103  1.3842  0.9238
 1224TIP3    H225088   0.221   0.899  14.338  0.5260 -2.9619  1.9373
 1225TIP3   OH225089   6.694   0.023   4.464  0.3524 -0.0190 -0.2982
 1225TIP3    H125090   6.760   0.058   4.524  0.4181  0.3381 -0.5748
 1225TIP3    H225091   6.715   0.064   4.380  0.0921 -0.3047 -0.4993
 1226TIP3   OH225092   1.002   5.404  16.432 -0.7110 -0.0462  0.6163
 1226TIP3    H125093   1.077   5.345  16.431 -1.1888 -0.6698 -1.3665
 1226TIP3    H225094   1.035   5.485  16.392 -1.5172 -0.9483 -2.0233
 1227TIP3   OH225095   4.696   0.804   1.438 -0.5791 -0.0417 -0.1504
 1227TIP3    H125096   4.684   0.863   1.512 -1.3012 -1.5903  0.9909
 1227TIP3    H225097   4.759   0.849   1.382  1.3210  0.4200  2.2369
 1228TIP3   OH225098   6.733   6.699   1.765 -0.3180  0.0224  0.2497
 1228TIP3    H125099   6.664   6.737   1.711 -0.3204 -0.6794 -0.2515
 1228TIP3    H225100   6.776   6.774   1.806 -0.0137  0.5957 -1.0986
 1229TIP3   OH225101   0.132   2.659   5.868 -0.6416  0.3759  0.0064
 1229TIP3    H125102   0.206   2.662   5.929 -0.3873 -2.4828 -0.0917
 1229TIP3    H225103   0.168   2.688   5.785  0.1260 -0.0432  0.1914
 1230TIP3   OH225104   1.291   5.250   0.484 -0.0433  0.1243 -0.3693
 1230TIP3    H125105   1.264   5.301   0.407  0.2445 -1.2396 -1.3936
 1230TIP3    H225106   1.319   5.316   0.548 -0.0585  1.2726 -1.5260
 1231TIP3   OH225107   5.767   3.848   4.594  0.2149 -0.2178  0.6001
 1231TIP3    H125108   5.761   3.944   4.595  1.3870 -0.1249 -0.0985
 1231TIP3    H225109   5.720   3.822   4.514 -0.7756 -0.2919  1.1934
 1232TIP3   OH225110   0.490   3.543   0.395 -0.0382  0.4683 -0.1787
 1232TIP3    H125111   0.462   3.452   0.386 -0.3826  0.3863  1.4929
 1232TIP3    H225112   0.578   3.545   0.358  0.0701 -0.6067  0.0019
 1233TIP3   OH225113   1.969   4.370  15.010 -0.1204 -0.3716 -0.1492
 1233TIP3    H125114   2.064   4.364  15.002 -0.0500  1.0622 -0.5308
 1233TIP3    H225115   1.937   4.354  14.921 -0.1717  0.2664 -0.2467
 1234TIP3   OH225116   5.582   3.088  13.114 -0.5806  0.4240 -0.4772
 1234TIP3    H125117   5.648   3.108  13.047  1.2672  0.2008  1.2358
 1234TIP3    H225118   5.588   2.994  13.127 -0.5861  0.5387  0.3696
 1235TIP3   OH225119   5.556   3.620   0.796 -0.0984  0.2006 -0.9961
 1235TIP3    H125120   5.620   3.689   0.816  0.8484 -0.5811 -1.3134
 1235TIP3    H225121   5.592   3.541   0.837 -1.3550 -0.0413 -0.3361
 1236TIP3   OH225122   2.295   1.936  12.777 -1.1056 -0.9938 -0.6898
 1236TIP3    H125123   2.298   1.857  12.831  0.2399  1.0701  2.3726
 1236TIP3    H225124   2.212   1.978  12.801 -0.4118  0.0308 -0.0282
 1237TIP3   OH225125   4.941   0.413   1.901  0.0264 -0.7409  0.1597
 1237TIP3    H125126   4.894   0.457   1.830 -0.2847  1.0716  1.4450
 1237TIP3    H225127   4.872   0.375   1.955  0.1842 -0.5795  0.4715
 1238TIP3   OH225128   2.145   5.373   4.598  0.1676  0.1464 -0.2100
 1238TIP3    H125129   2.210   5.377   4.669 -2.9148  0.8491  2.7251
 1238TIP3    H225130   2.124   5.464   4.580  0.4212 -0.0562 -1.5788
 1239TIP3   OH225131   6.393   1.458   1.904 -0.0246 -0.5627 -0.0727
 1239TIP3    H125132   6.447   1.472   1.982  1.2843 -0.7903 -0.9238
 1239TIP3    H225133   6.321   1.402   1.935 -1.1797  1.7781  1.6304
 1240TIP3   OH225134   0.377   1.650   4.577  0.1411 -0.2239 -0.1675
 1240TIP3    H125135   0.329   1.614   4.651  1.0395  0.5514  0.7951
 1240TIP3    H225136   0.463   1.608   4.581 -0.4595 -1.7251 -1.9710
 1241TIP3   OH225137   2.107   3.431  12.430  0.4997 -1.0559 -0.4243
 1241TIP3    H125138   2.194   3.393  12.442  0.4220 -1.0291  0.2638
 1241TIP3    H225139   2.058   3.366  12.380  0.0909 -2.2564  1.4941
 1242TIP3   OH225140   1.584   3.095   0.749 -0.5256  0.0660 -0.2160
 1242TIP3    H125141   1.612   3.103   0.658 -3.2886 -0.0774 -1.1280
 1242TIP3    H225142   1.550   3.006   0.756  5.1444 -2.1808  2.6463
 1243TIP3   OH225143   5.387   6.379  11.881 -0.3263 -0.2671 -0.1747
 1243TIP3    H125144   5.313   6.433  11.850 -0.5485 -1.7053 -2.2207
 1243TIP3    H225145   5.346   6.310  11.933 -0.1942  0.4478  0.8864
 1244TIP3   OH225146   2.663   5.331  16.574  0.3973 -0.7982 -0.3105
 1244TIP3    H125147   2.693   5.407  16.525  0.5160 -0.0480  0.9121
 1244TIP3    H225148   2.730   5.316  16.641 -0.5379 -0.8260  0.6446
 1245TIP3   OH225149   1.930   6.378   1.206 -0.1904 -0.6276 -0.2716
 1245TIP3    H125150   1.959   6.380   1.115  0.3357  1.6650 -0.0947
 1245TIP3    H225151   1.946   6.289   1.235  1.7837 -0.7797 -1.7539
 1246TIP3   OH225152   5.843   1.015   2.997 -0.0470  0.2897 -0.4751
 1246TIP3    H125153   5.799   0.997   3.081  0.6690 -3.4749 -0.8041
 1246TIP3    H225154   5.778   1.063   2.946 -1.4976  0.2409  1.2728
 1247TIP3   OH225155   1.369   5.641   5.502  0.3383 -0.6245 -0.1720
 1247TIP3    H125156   1.389   5.727   5.464 -0.9646  0.1224  0.7964
 1247TIP3    H225157   1.289   5.655   5.553  1.3679 -1.8908  1.8416
 1248TIP3   OH225158   3.605   3.384   4.991  0.2913  0.0668 -0.1554
 1248TIP3    H125159   3.670   3.389   4.920 -0.4417 -1.4584 -0.9551
 1248TIP3    H225160   3.526   3.423   4.954  0.1078 -0.1100  0.0472
 1249TIP3   OH225161   3.607   1.526   3.181 -0.2466  0.0970 -0.0040
 1249TIP3    H125162   3.566   1.515   3.095 -0.3994  0.8804 -0.0321
 1249TIP3    H225163   3.538   1.563   3.236  0.1012  0.3981  0.2306
 1250TIP3   OH225164   1.576   0.312   2.740  0.0044  0.5071 -0.1325
 1250TIP3    H125165   1.645   0.261   2.699 -0.3951 -0.6931  0.6681
 1250TIP3    H225166   1.534   0.251   2.801 -1.7341  1.2314 -0.5805
 1251TIP3   OH225167   6.296   4.766   5.540  0.4081 -0.2702  0.0157
 1251TIP3    H125168   6.289   4.843   5.484  1.4392 -1.0303 -1.1838
 1251TIP3    H225169   6.224   4.774   5.602 -0.2750  0.9849 -0.9317
 1252TIP3   OH225170   3.286   5.248   3.260 -0.0579 -0.6154 -0.0103
 1252TIP3    H125171   3.332   5.174   3.221  3.5663  1.0478  0.8559
 1252TIP3    H225172   3.265   5.304   3.185 -0.2645 -1.1937 -0.3878
 1253TIP3   OH225173   0.382   1.455   1.688 -0.0718 -0.2075 -0.6347
 1253TIP3    H125174   0.400   1.418   1.601 -0.9138 -0.2948 -0.7766
 1253TIP3    H225175   0.340   1.383   1.736  0.6406 -0.2493 -0.0585
 1254TIP3   OH225176   1.595   2.112   0.751  0.1562  0.6203 -0.1139
 1254TIP3    H125177   1.542   2.167   0.694  0.3054  0.5771 -0.2940
 1254TIP3    H225178   1.560   2.024   0.739 -1.5297  0.9812  1.8181
 1255TIP3   OH225179   1.683   2.962  11.907  0.5364 -0.1063 -0.3603
 1255TIP3    H125180   1.700   2.872  11.935  1.4438  0.1665 -0.0249
 1255TIP3    H225181   1.640   2.953  11.823  0.0102 -0.8765 -0.0164
 1256TIP3   OH225182   5.532   2.796  16.202  0.0907 -0.1184 -0.0647
 1256TIP3    H125183   5.447   2.767  16.235 -0.1912 -0.1847 -0.8295
 1256TIP3    H225184   5.593   2.728  16.228 -0.4722 -1.1585 -1.3891
 1257TIP3   OH225185   2.450   3.049  16.253  0.0491  0.0461 -0.6540
 1257TIP3    H125186   2.493   3.125  16.213 -1.8057  1.2975 -0.3099
 1257TIP3    H225187   2.357   3.071  16.254 -0.5514 -2.3416 -0.7608
 1258TIP3   OH225188   5.147   6.228   5.219 -0.4821  0.3329 -0.8910
 1258TIP3    H125189   5.171   6.205   5.309 -0.9063 -1.3255 -1.1823
 1258TIP3    H225190   5.056   6.198   5.210 -0.7154  1.2407 -1.6188
 1259TIP3   OH225191   3.530   4.235   2.401  0.0278 -0.3890  0.0628
 1259TIP3    H125192   3.554   4.192   2.483  1.2234 -0.8075 -0.5019
 1259TIP3    H225193   3.607   4.226   2.345 -1.4096 -1.6795 -1.7723
 1260TIP3   OH225194   3.587   5.591   0.591 -0.0603 -0.0148  0.3248
 1260TIP3    H125195   3.614   5.504   0.565 -0.0829 -0.2982  1.2279
 1260TIP3    H225196   3.500   5.602   0.553  0.2689 -0.0699 -0.4592
 1261TIP3   OH225197   4.294   0.727   0.130 -0.9837 -0.4038  0.5299
 1261TIP3    H125198   4.269   0.635   0.134 -2.3937 -0.0673  0.0100
 1261TIP3    H225199   4.277   0.760   0.218 -1.3710 -0.4274  0.4649
 1262TIP3   OH225200   1.901   2.189  15.003  0.1438 -0.0401  0.2729
 1262TIP3    H125201   1.848   2.124  15.050  0.4085  1.0432  2.1435
 1262TIP3    H225202   1.884   2.171  14.911 -2.2827 -0.7148  0.7983
 1263TIP3   OH225203   4.081   0.927   1.810  0.0367 -0.5779  0.3205
 1263TIP3    H125204   4.034   0.941   1.728  1.4880  0.2344 -0.3948
 1263TIP3    H225205   4.056   1.001   1.865 -0.4070 -0.7587  0.3626
 1264TIP3   OH225206   5.380   4.538   3.290 -0.2979 -0.2246 -0.1717
 1264TIP3    H125207   5.288   4.555   3.267 -0.1358 -2.1695 -2.3821
 1264TIP3    H225208   5.383   4.444   3.307  1.5567 -0.4514 -1.6189
 1265TIP3   OH225209   3.582   2.697   6.366 -0.5277 -0.0701  0.3119
 1265TIP3    H125210   3.518   2.626   6.355 -1.1089  0.2383  1.6363
 1265TIP3    H225211   3.663   2.653   6.393 -0.7441 -0.2744  0.6252
 1266TIP3   OH225212   6.273   4.051   0.290 -0.2868  0.6583 -0.1978
 1266TIP3    H125213   6.213   4.094   0.351  0.4221  0.3940  0.6850
 1266TIP3    H225214   6.296   4.121   0.228 -1.0567  0.9073 -0.2185
 1267TIP3   OH225215   0.858   0.365  11.871  0.5589  0.1560 -0.4313
 1267TIP3    H125216   0.947   0.363  11.838  0.5293  0.3095 -0.5225
 1267TIP3    H225217   0.865   0.334  11.962  0.6880  0.0611 -0.4735
 1268TIP3   OH225218   2.346   5.382   4.005 -0.7230  0.0935 -0.4343
 1268TIP3    H125219   2.254   5.380   3.980 -0.8612  0.7940 -0.0059
 1268TIP3    H225220   2.356   5.309   4.066 -0.8681 -0.3213 -0.9076
 1269TIP3   OH225221   2.502   3.182  15.074 -0.4078  0.1188  0.1781
 1269TIP3    H125222   2.576   3.234  15.042 -0.1177 -0.5673 -0.2659
 1269TIP3    H225223   2.429   3.208  15.017 -0.5372  0.8442  0.6590
 1270TIP3   OH225224   1.676   3.829   2.953  0.0346  1.0887  0.1610
 1270TIP3    H125225   1.632   3.787   3.027 -0.0180  0.9050  0.0251
 1270TIP3    H225226   1.768   3.806   2.964 -0.1626 -0.1246 -0.6157
 1271TIP3   OH225227   2.814   5.637   4.893 -0.5931  0.0436 -0.5005
 1271TIP3    H125228   2.796   5.653   4.986  0.1698 -0.9072 -0.1841
 1271TIP3    H225229   2.908   5.618   4.890 -0.7668 -0.7065 -1.3603
 1272TIP3   OH225230   4.859   5.752  14.729  0.0519  0.6555 -0.4998
 1272TIP3    H125231   4.902   5.834  14.704 -0.0658  1.6469  2.3231
 1272TIP3    H225232   4.923   5.706  14.782 -0.8681  0.2145  0.2514
 1273TIP3   OH225233   0.657   4.235  15.101  0.2350  0.1895  0.2703
 1273TIP3    H125234   0.648   4.316  15.151  1.2389  0.3829  0.1430
 1273TIP3    H225235   0.719   4.256  15.031 -1.5497  0.0734 -1.3956
 1274TIP3   OH225236   1.872   0.094   1.048 -0.2220 -0.5046 -0.0708
 1274TIP3    H125237   1.821   0.094   1.129  1.4752  0.1017  1.0271
 1274TIP3    H225238   1.948   0.149   1.067  0.1573 -0.2714 -2.1130
 1275TIP3   OH225239   2.472   0.313  15.380 -0.1894 -0.0901 -0.2016
 1275TIP3    H125240   2.426   0.349  15.456  0.3621 -0.0974  0.1300
 1275TIP3    H225241   2.530   0.384  15.351 -0.1814 -0.1919 -0.4394
 1276TIP3   OH225242   1.576   1.223  11.142  0.5083 -0.7724 -0.1549
 1276TIP3    H125243   1.649   1.195  11.087  1.5149 -0.6100  1.0678
 1276TIP3    H225244   1.539   1.299  11.097  1.1632 -0.7975 -0.7334
 1277TIP3   OH225245   3.133   2.285   1.935 -0.4337 -0.2468 -0.0277
 1277TIP3    H125246   3.068   2.282   1.865  0.1423 -1.0209 -0.5289
 1277TIP3    H225247   3.163   2.376   1.935 -0.9619 -0.0685 -0.2941
 1278TIP3   OH225248   2.747   0.302   2.920 -0.3546 -0.0235  0.6291
 1278TIP3    H125249   2.818   0.314   2.859  0.8916 -1.5298  1.7277
 1278TIP3    H225250   2.667   0.308   2.867  0.6147  0.8904 -0.7289
 1279TIP3   OH225251   5.202   5.508   5.858 -0.1004  0.3261  0.2473
 1279TIP3    H125252   5.195   5.594   5.900 -1.6696 -0.5421  1.8243
 1279TIP3    H225253   5.119   5.465   5.879  0.3340 -1.2578 -1.2481
 1280TIP3   OH225254   3.870   5.463  10.918  0.3792 -0.0629 -0.8891
 1280TIP3    H125255   3.826   5.429  10.840 -0.9643 -1.5432  0.4736
 1280TIP3    H225256   3.963   5.455  10.897  0.0334  0.4329 -2.7004
 1281TIP3   OH225257   0.669   0.149   3.825 -0.7141 -0.0490  0.1148
 1281TIP3    H125258   0.649   0.242   3.835  0.6849  0.1583  1.0647
 1281TIP3    H225259   0.720   0.143   3.745 -0.7912 -0.0066  0.0621
 1282TIP3   OH225260   2.548   2.282  13.653 -0.4837  0.1708  0.0022
 1282TIP3    H125261   2.477   2.223  13.629  1.3051 -2.5026  1.0802
 1282TIP3    H225262   2.551   2.279  13.748  1.0481  0.2528 -0.0321
 1283TIP3   OH225263   4.480   5.286   0.361 -0.3047 -0.4098  0.4812
 1283TIP3    H125264   4.558   5.283   0.307 -0.6962  1.3192 -0.2276
 1283TIP3    H225265   4.427   5.212   0.332  0.8906 -1.3633  0.7042
 1284TIP3   OH225266   2.403   2.270   0.355 -0.2036  0.5580 -0.1126
 1284TIP3    H125267   2.472   2.218   0.315 -0.2051  0.6346 -0.2157
 1284TIP3    H225268   2.370   2.216   0.427 -0.7069  0.1102 -0.6820
 1285TIP3   OH225269   6.489   2.647   4.894  0.3350 -0.5749 -0.2061
 1285TIP3    H125270   6.405   2.602   4.902  0.4104 -0.8318 -0.8156
 1285TIP3    H225271   6.519   2.659   4.984 -0.4356 -0.3274  0.0191
 1286TIP3   OH225272   0.485   0.561  13.397  0.1064 -0.6538 -0.8975
 1286TIP3    H125273   0.513   0.645  13.433  1.1025 -1.7799  1.0592
 1286TIP3    H225274   0.505   0.498  13.466  0.6698 -2.6995 -2.8873
 1287TIP3   OH225275   0.242   3.776  15.846  0.0054  0.2818  0.3486
 1287TIP3    H125276   0.222   3.774  15.939  0.8519  0.2690  0.5400
 1287TIP3    H225277   0.291   3.857  15.833 -0.1903  0.3296 -0.0985
 1288TIP3   OH225278   6.318   4.417  15.812 -0.0888  0.3371 -0.3380
 1288TIP3    H125279   6.364   4.497  15.837  2.6473 -1.3644  0.3182
 1288TIP3    H225280   6.346   4.352  15.877 -2.5369 -1.0983 -0.6306
 1289TIP3   OH225281   4.340   1.942   1.606  0.0079  0.0807  0.2332
 1289TIP3    H125282   4.414   1.949   1.666  1.0204  1.8987 -1.1838
 1289TIP3    H225283   4.317   1.849   1.607  2.0680 -0.4450  0.9939
 1290TIP3   OH225284   1.750   2.520  13.177  0.1642  0.2573  0.2680
 1290TIP3    H125285   1.786   2.435  13.203 -0.7671  0.1700  1.2794
 1290TIP3    H225286   1.667   2.500  13.136  0.0629  0.6634  0.2724
 1291TIP3   OH225287   5.693   5.230   4.104  0.5519 -0.2553 -0.0835
 1291TIP3    H125288   5.612   5.263   4.066  0.0132 -2.6974 -1.1385
 1291TIP3    H225289   5.760   5.293   4.078 -1.0548  2.0180  1.1639
 1292TIP3   OH225290   4.335   0.428   2.783 -0.4203  0.1109 -0.3597
 1292TIP3    H125291   4.260   0.368   2.785 -1.0229  0.9010  2.3440
 1292TIP3    H225292   4.386   0.405   2.861  1.6114  0.2958 -1.6079
 1293TIP3   OH225293   0.266   5.058  12.464 -0.2749  0.6274  0.8462
 1293TIP3    H125294   0.225   5.014  12.538  0.4101  0.6791  1.2494
 1293TIP3    H225295   0.254   5.152  12.482 -0.8039  0.6345  0.4973
 1294TIP3   OH225296   6.061   0.913   2.872 -0.4288  0.1288 -0.4268
 1294TIP3    H125297   5.983   0.951   2.912 -0.4996 -0.4745  0.0124
 1294TIP3    H225298   6.037   0.822   2.854  0.3483 -0.2031  0.1841
 1295TIP3   OH225299   4.776   3.338   1.621  0.2006 -0.3254 -0.5352
 1295TIP3    H125300   4.701   3.393   1.644  1.3088  1.3948 -0.8659
 1295TIP3    H225301   4.803   3.298   1.703 -0.3549 -0.0056 -0.1914
 1296TIP3   OH225302   5.463   5.505  17.051  0.5346  0.0005 -0.1044
 1296TIP3    H125303   5.451   5.438  16.983 -2.5139  0.8179 -0.4402
 1296TIP3    H225304   5.555   5.530  17.044  1.2869 -2.8569 -1.1772
 1297TIP3   OH225305   5.196   5.196   1.526 -0.2747 -0.0525 -0.3546
 1297TIP3    H125306   5.233   5.107   1.522  0.1427  0.0634  0.7692
 1297TIP3    H225307   5.272   5.253   1.541 -0.3871  0.6332 -2.2535
 1298TIP3   OH225308   0.406   4.463   4.097  0.4854 -0.2463  0.0902
 1298TIP3    H125309   0.474   4.530   4.101  0.3512 -0.0588 -0.6840
 1298TIP3    H225310   0.431   4.400   4.164  0.2435  0.9210  1.3031
 1299TIP3   OH225311   0.893   4.601   3.342 -0.4569  0.0038 -0.3951
 1299TIP3    H125312   0.946   4.680   3.353  0.5670 -0.7535  0.2210
 1299TIP3    H225313   0.892   4.586   3.247  1.3196 -0.5448 -0.3527
 1300TIP3   OH225314   0.375   5.151  12.193 -0.0930 -0.4838  0.6506
 1300TIP3    H125315   0.412   5.080  12.140  0.7824  0.2339  0.2978
 1300TIP3    H225316   0.359   5.111  12.278 -1.7550 -1.7207 -0.2111
 1301TIP3   OH225317   1.339   2.847  15.426 -0.0580  0.1753 -0.5301
 1301TIP3    H125318   1.378   2.915  15.481  0.5839  0.2537 -1.0729
 1301TIP3    H225319   1.347   2.882  15.337 -0.7396 -0.1222 -0.7085
 1302TIP3   OH225320   6.249   5.046   5.874  0.3355  0.3258  0.3658
 1302TIP3    H125321   6.320   5.097   5.913 -0.9105  1.5411  1.1045
 1302TIP3    H225322   6.235   4.974   5.935 -1.1333  1.8292  1.8884
 1303TIP3   OH225323   1.693   5.743  12.619 -0.3208 -0.5156 -0.2429
 1303TIP3    H125324   1.670   5.688  12.693  0.3050 -0.7949 -0.2487
 1303TIP3    H225325   1.675   5.690  12.542 -0.3591 -0.4633 -0.2712
 1304TIP3   OH225326   3.416   2.466  11.551 -0.1881 -0.0831 -0.2570
 1304TIP3    H125327   3.450   2.553  11.530 -0.8027  0.4865  1.0297
 1304TIP3    H225328   3.470   2.406  11.500  1.4909  0.9358  0.2869
 1305TIP3   OH225329   6.480   5.146  15.136 -0.2171  0.5994 -0.2983
 1305TIP3    H125330   6.388   5.132  15.115  0.3909 -0.2392 -2.5272
 1305TIP3    H225331   6.493   5.100  15.219 -2.2371  2.3609  1.0427
 1306TIP3   OH225332   4.640   5.796   4.492 -0.5951  0.8601 -0.0202
 1306TIP3    H125333   4.567   5.837   4.537 -0.4892  1.7229 -0.6299
 1306TIP3    H225334   4.631   5.823   4.400 -0.4587 -0.3694 -0.4169
 1307TIP3   OH225335   5.616   0.517  15.276 -0.2903  0.2002 -0.3536
 1307TIP3    H125336   5.609   0.612  15.288  1.4234  0.5780 -2.0821
 1307TIP3    H225337   5.684   0.490  15.338  1.3146  0.5939 -1.8827
 1308TIP3   OH225338   6.242   4.677   2.979 -0.7240 -0.4353 -0.1124
 1308TIP3    H125339   6.221   4.734   3.053 -0.2025 -1.5854  0.9352
 1308TIP3    H225340   6.179   4.702   2.911 -2.4482 -0.6613  1.3700
 1309TIP3   OH225341   2.485   5.808   2.467  0.4649  0.2039 -0.0271
 1309TIP3    H125342   2.430   5.773   2.537  0.5489  1.2155  0.5648
 1309TIP3    H225343   2.505   5.733   2.412  0.0868 -0.5397  0.8304
 1310TIP3   OH225344   6.583   1.446  14.698  0.4865 -0.1976 -0.0958
 1310TIP3    H125345   6.549   1.451  14.609 -0.5376  0.1886  0.3143
 1310TIP3    H225346   6.572   1.354  14.723  0.3714 -0.2137 -0.2056
 1311TIP3   OH225347   1.392   6.389  14.840 -0.1839 -0.2338 -0.0515
 1311TIP3    H125348   1.408   6.300  14.810 -0.6210 -0.3310  0.0002
 1311TIP3    H225349   1.474   6.436  14.822 -0.5330 -0.2236 -1.6269
 1312TIP3   OH225350   6.072   5.419  16.010 -0.5005  0.2002  0.3369
 1312TIP3    H125351   6.017   5.454  15.940 -0.0828 -1.7158 -0.9941
 1312TIP3    H225352   6.157   5.462  15.997 -0.7232  0.6248  0.2905
 1313TIP3   OH225353   1.084   3.502  13.319 -0.5733  0.4372 -0.0976
 1313TIP3    H125354   1.111   3.457  13.399 -1.4059  0.7057  0.3362
 1313TIP3    H225355   1.080   3.594  13.343  1.3354  0.7879 -1.0463
 1314TIP3   OH225356   2.837   6.724  15.673 -0.6229 -1.1817  0.3674
 1314TIP3    H125357   2.868   6.682  15.593 -0.3903 -0.6040  0.1538
 1314TIP3    H225358   2.745   6.699  15.680 -0.5007 -1.6751  0.2058
 1315TIP3   OH225359   1.568   3.975  12.754 -0.0433 -0.1138 -0.1353
 1315TIP3    H125360   1.544   3.894  12.800  0.2560  0.0686  0.3448
 1315TIP3    H225361   1.505   3.982  12.683  0.0466 -0.8760 -0.2911
 1316TIP3   OH225362   4.879   0.922   4.217  0.1726  0.0796 -0.5016
 1316TIP3    H125363   4.887   0.850   4.279  0.2724 -0.5679 -1.2506
 1316TIP3    H225364   4.785   0.937   4.208  0.1602  0.1927 -0.1757
 1317TIP3   OH225365   4.506   6.732  16.310  0.1731 -0.5391  0.2683
 1317TIP3    H125366   4.499   6.803  16.246  0.9523 -1.5038 -0.9130
 1317TIP3    H225367   4.524   6.776  16.393 -0.5165  0.7141 -0.2222
 1318TIP3   OH225368   3.079   0.918   5.412  0.0456 -0.2094 -0.2730
 1318TIP3    H125369   3.130   0.975   5.470 -0.3113 -0.9459  0.7718
 1318TIP3    H225370   3.137   0.843   5.395 -0.4554 -0.7641  0.4405
 1319TIP3   OH225371   3.788   3.494  15.223 -0.3023 -0.5421  0.5751
 1319TIP3    H125372   3.702   3.457  15.202  0.0693 -0.5972 -0.8678
 1319TIP3    H225373   3.847   3.419  15.224  0.5391 -0.0004 -2.7971
 1320TIP3   OH225374   0.923   3.393  10.888 -0.0354 -0.0316 -0.3506
 1320TIP3    H125375   0.859   3.323  10.872 -1.5485  0.9145  1.3890
 1320TIP3    H225376   0.924   3.443  10.806 -1.8423  0.1739 -0.2747
 1321TIP3   OH225377   2.877   1.377   5.022 -0.2062 -0.2494 -0.4661
 1321TIP3    H125378   2.929   1.401   4.945 -0.8780  0.9529 -0.5599
 1321TIP3    H225379   2.909   1.290   5.046  1.2825  0.1276 -1.0082
 1322TIP3   OH225380   5.310   0.991  10.692  0.2915 -0.7336  0.6398
 1322TIP3    H125381   5.244   1.017  10.627  0.9800  1.4064  0.7624
 1322TIP3    H225382   5.263   0.933  10.752 -0.9710 -0.7870 -0.3724
 1323TIP3   OH225383   1.558   6.341   5.150  0.1613  0.5244  0.5109
 1323TIP3    H125384   1.553   6.432   5.181 -2.6832  0.2339  1.0086
 1323TIP3    H225385   1.487   6.334   5.086  2.1224 -0.6080 -1.6040
 1324TIP3   OH225386   0.675   5.363   3.035  0.1933 -0.2774 -0.3561
 1324TIP3    H125387   0.767   5.337   3.033  0.2714  0.0519 -1.2736
 1324TIP3    H225388   0.650   5.354   3.127  1.8449  2.1820  0.3745
 1325TIP3   OH225389   1.676   1.426  13.734  0.3837  0.7754  0.8312
 1325TIP3    H125390   1.666   1.520  13.718 -0.4517  0.6440  0.5936
 1325TIP3    H225391   1.617   1.384  13.672  1.2979  0.0630  0.4386
 1326TIP3   OH225392   4.149   1.427   3.544  0.5319  0.2023  0.0249
 1326TIP3    H125393   4.155   1.331   3.547 -0.2733  0.1253 -0.7649
 1326TIP3    H225394   4.063   1.445   3.506  0.3130  1.2518  0.9844
 1327TIP3   OH225395   0.717   3.999  17.014 -0.2748 -0.4692 -0.5934
 1327TIP3    H125396   0.635   4.049  17.008 -0.6294 -1.0402 -0.5116
 1327TIP3    H225397   0.772   4.035  16.944 -1.7095 -2.1454 -2.6443
 1328TIP3   OH225398   6.254   3.183   0.632  0.3528  0.0119 -0.0759
 1328TIP3    H125399   6.324   3.150   0.688  0.7754 -0.9366 -1.1349
 1328TIP3    H225400   6.188   3.216   0.693  0.6861 -1.2236  0.9854
 1329TIP3   OH225401   5.487   0.626   0.152  0.4865  0.4660  0.8349
 1329TIP3    H125402   5.449   0.638   0.065  0.2753 -1.2420  0.6736
 1329TIP3    H225403   5.525   0.711   0.173  0.0484  1.0641 -0.6864
 1330TIP3   OH225404   5.177   5.133   4.034 -0.5688  0.2009 -0.0810
 1330TIP3    H125405   5.126   5.212   4.017 -0.4020  0.2114 -0.5531
 1330TIP3    H225406   5.167   5.118   4.128  2.3256  2.8505  0.7584
 1331TIP3   OH225407   0.794   6.327   2.062 -0.2934  0.6389  0.6299
 1331TIP3    H125408   0.770   6.277   1.983 -2.1672  2.2047  0.1677
 1331TIP3    H225409   0.847   6.266   2.113  1.6566 -0.1590 -2.1994
 1332TIP3   OH225410   1.082   4.191   5.582 -0.0804  0.0620  0.5987
 1332TIP3    H125411   1.084   4.113   5.527 -1.2646 -0.1580  0.8647
 1332TIP3    H225412   1.174   4.207   5.604  0.2245 -0.8849  0.0294
 1333TIP3   OH225413   1.717   2.189   0.248  0.4707 -0.3483  0.3891
 1333TIP3    H125414   1.738   2.120   0.310 -0.1054 -1.4715 -0.6505
 1333TIP3    H225415   1.638   2.159   0.204 -0.0738  1.2130  0.2787
 1334TIP3   OH225416   5.317   0.117  15.759 -0.6950  0.1275  0.2924
 1334TIP3    H125417   5.314   0.041  15.817  0.2495  0.1325  0.3660
 1334TIP3    H225418   5.383   0.174  15.798  0.0206  0.0905 -0.8184
 1335TIP3   OH225419   5.662   2.158   2.751 -0.1021 -0.3299 -0.1373
 1335TIP3    H125420   5.672   2.247   2.718  1.0020 -0.3301  0.2106
 1335TIP3    H225421   5.748   2.118   2.741 -0.1382 -0.8101  1.3446
 1336TIP3   OH225422   5.441   6.069   4.374  0.4741  0.4694  0.4160
 1336TIP3    H125423   5.389   6.030   4.445 -1.4624  2.1100 -0.0584
 1336TIP3    H225424   5.521   6.098   4.416  0.1793 -0.3221  1.5526
 1337TIP3   OH225425   3.548   5.429   4.489 -0.5243  0.0093  0.1548
 1337TIP3    H125426   3.479   5.380   4.444 -2.1101  1.9441  0.4468
 1337TIP3    H225427   3.594   5.363   4.542 -1.3121 -1.5157 -1.0223
 1338TIP3   OH225428   1.130   0.408  12.613  0.4797  0.3123 -0.1119
 1338TIP3    H125429   1.081   0.460  12.549  0.3156  0.9111  0.4988
 1338TIP3    H225430   1.206   0.463  12.634  0.2491  0.3508  0.6160
 1339TIP3   OH225431   3.499   4.151  11.844 -0.2187 -0.4474  0.3510
 1339TIP3    H125432   3.418   4.194  11.871  0.1386 -0.3816  1.3180
 1339TIP3    H225433   3.564   4.178  11.909 -0.3012 -3.4906  1.7674
 1340TIP3   OH225434   1.795   2.684   1.237  0.2459  0.3385 -0.3405
 1340TIP3    H125435   1.816   2.601   1.194 -1.7513  0.2655 -1.2428
 1340TIP3    H225436   1.710   2.669   1.278  0.1859  1.7417  0.0861
 1341TIP3   OH225437   2.947   4.897  10.813  0.4962  0.6590 -0.5543
 1341TIP3    H125438   3.000   4.933  10.742 -0.0807  1.4611 -0.5825
 1341TIP3    H225439   2.863   4.876  10.773 -0.1320  1.9389  0.0781
 1342TIP3   OH225440   3.480   2.900  11.241  0.0902 -0.1219 -0.3519
 1342TIP3    H125441   3.432   2.983  11.237 -0.6393 -0.5877 -1.2567
 1342TIP3    H225442   3.501   2.889  11.334 -0.1688  0.8687 -0.1691
 1343TIP3   OH225443   3.954   4.841   4.420 -0.3362 -0.3349  0.1504
 1343TIP3    H125444   4.031   4.891   4.394 -0.3225 -0.2580  0.3416
 1343TIP3    H225445   3.906   4.900   4.479 -0.1906 -0.6472  0.5769
 1344TIP3   OH225446   2.345   1.098  16.300  0.3162  0.4421  0.2009
 1344TIP3    H125447   2.378   1.120  16.387  2.3615 -1.1098 -0.1557
 1344TIP3    H225448   2.396   1.153  16.240  0.7530 -0.3861 -0.1980
 1345TIP3   OH225449   3.135   4.687   1.366 -0.0114 -0.2002  0.3084
 1345TIP3    H125450   3.073   4.736   1.312 -1.1538  0.5918  2.2806
 1345TIP3    H225451   3.151   4.607   1.317 -0.3240  0.9003 -1.6222
 1346TIP3   OH225452   0.942   4.877  11.633  0.3960 -0.0102  0.5263
 1346TIP3    H125453   1.032   4.890  11.604  0.1369 -0.5575 -0.5536
 1346TIP3    H225454   0.935   4.782  11.648 -0.0558  0.0037  0.4065
 1347TIP3   OH225455   6.752   3.773   4.734 -0.4239 -0.2086  1.0359
 1347TIP3    H125456   6.766   3.681   4.711  0.8377  0.1360  0.3584
 1347TIP3    H225457   6.790   3.782   4.821  2.1493  0.2964 -0.0560
 1348TIP3   OH225458   3.446   3.077   4.157 -0.0382  0.5279  0.0725
 1348TIP3    H125459   3.406   3.142   4.098 -1.0232 -0.1243  0.0092
 1348TIP3    H225460   3.372   3.034   4.199  0.4929 -2.1202 -1.5449
 1349TIP3   OH225461   0.163   2.457  11.126 -0.4454  0.0927 -0.0962
 1349TIP3    H125462   0.226   2.529  11.117  1.2932 -1.4918 -0.8388
 1349TIP3    H225463   0.119   2.453  11.041  1.1883 -1.2601 -0.9209
 1350TIP3   OH225464   0.314   5.575   6.091 -0.1507  0.0809  0.7616
 1350TIP3    H125465   0.247   5.636   6.061 -1.0421 -1.4540 -0.4353
 1350TIP3    H225466   0.290   5.491   6.051  1.6974 -0.7992  1.4351
 1351TIP3   OH225467   1.234   4.645   3.675  0.1439  0.6025 -0.1349
 1351TIP3    H125468   1.246   4.570   3.618 -1.7327 -0.6153  1.0098
 1351TIP3    H225469   1.285   4.715   3.635  1.8722 -1.2646 -1.2365
 1352TIP3   OH225470   1.824   4.579  11.937 -0.0888  0.1462  0.1724
 1352TIP3    H125471   1.773   4.511  11.982  0.1892  0.6128  1.1997
 1352TIP3    H225472   1.882   4.530  11.879  0.4318 -0.5249  1.2464
 1353TIP3   OH225473   2.488   4.611   3.368 -0.2068 -0.1731  0.1321
 1353TIP3    H125474   2.494   4.518   3.393  0.9343  0.1933  1.2764
 1353TIP3    H225475   2.407   4.617   3.319 -0.0178 -1.9029 -0.4284
 1354TIP3   OH225476   2.899   1.230  16.691 -0.7114  0.4232 -0.2424
 1354TIP3    H125477   2.908   1.176  16.770 -1.1003  0.5379 -0.1168
 1354TIP3    H225478   2.865   1.169  16.625  0.6904  0.0613 -0.6396
 1355TIP3   OH225479   6.125   6.095  11.724 -0.1273  0.3853 -0.1404
 1355TIP3    H125480   6.061   6.090  11.653 -0.3473 -0.2970  0.1013
 1355TIP3    H225481   6.202   6.136  11.685 -0.9068  1.7496 -0.2938
 1356TIP3   OH225482   0.885   5.018   4.876 -0.0679  0.3602 -0.0863
 1356TIP3    H125483   0.872   4.948   4.813  0.3174  1.0326 -0.9248
 1356TIP3    H225484   0.933   4.977   4.948  2.2191  0.2885 -1.6078
 1357TIP3   OH225485   2.886   1.650   0.706 -0.3803 -0.4093 -0.2108
 1357TIP3    H125486   2.951   1.580   0.707  0.7861  0.6559  0.8382
 1357TIP3    H225487   2.832   1.632   0.629  2.1065 -0.4246 -1.9994
 1358TIP3   OH225488   5.982   2.338   2.754 -0.0380 -0.0002  0.4369
 1358TIP3    H125489   6.027   2.268   2.801  0.2120  0.9873  1.7202
 1358TIP3    H225490   6.016   2.419   2.793 -0.4530  0.8369 -0.8826
 1359TIP3   OH225491   2.608   2.445   1.774 -0.7347 -0.2840  0.3603
 1359TIP3    H125492   2.612   2.510   1.704 -1.2612  1.5197  1.9618
 1359TIP3    H225493   2.540   2.384   1.747 -0.1504 -0.2562 -1.2169
 1360TIP3   OH225494   1.982   3.655   3.760 -0.3705  0.5988  0.4774
 1360TIP3    H125495   2.016   3.725   3.705 -0.9478 -0.5954 -1.4587
 1360TIP3    H225496   1.928   3.602   3.700  0.4844 -1.7903  1.7622
 1361TIP3   OH225497   4.108   2.008   3.056  0.1351 -0.2058 -0.1696
 1361TIP3    H125498   4.115   1.960   3.138 -0.1393 -0.6710 -0.4220
 1361TIP3    H225499   4.181   1.975   3.003  0.3585  0.1499 -0.0890
 1362TIP3   OH225500   3.012   5.020  12.249  0.3461 -0.1233 -0.7353
 1362TIP3    H125501   3.099   5.058  12.246  0.2398  0.2393  0.3201
 1362TIP3    H225502   3.024   4.928  12.225  1.0132 -0.0645 -0.6171
 1363TIP3   OH225503   4.679   6.018  13.933  0.2851  0.0877 -0.5548
 1363TIP3    H125504   4.667   6.078  13.860 -0.8934  0.6332  0.0735
 1363TIP3    H225505   4.642   5.935  13.902  0.0392  0.2437 -0.6829
 1364TIP3   OH225506   5.446   1.053   1.768  0.3974 -0.3015  0.3598
 1364TIP3    H125507   5.518   1.033   1.829 -0.1603 -0.8632  0.8454
 1364TIP3    H225508   5.406   1.133   1.803 -0.2012 -0.8710  0.9903
 1365TIP3   OH225509   5.633   2.454   3.527  0.0558 -0.2274  0.0400
 1365TIP3    H125510   5.647   2.379   3.584 -1.4661 -0.4791  0.1124
 1365TIP3    H225511   5.691   2.522   3.562 -0.9338 -0.3393  1.9787
 1366TIP3   OH225512   0.553   0.988  14.542  0.3362 -0.1205  0.4210
 1366TIP3    H125513   0.539   1.058  14.478  0.0842 -0.7469 -0.2222
 1366TIP3    H225514   0.648   0.983  14.552  0.4244 -0.6564 -0.6298
 1367TIP3   OH225515   3.539   3.021  14.966  0.4927 -0.2885 -0.1655
 1367TIP3    H125516   3.520   3.017  15.060 -1.5741 -0.3406 -0.5760
 1367TIP3    H225517   3.628   2.985  14.958  0.1755 -1.5061  1.5966
 1368TIP3   OH225518   1.840   0.983  11.471 -0.1247 -0.4469  0.0471
 1368TIP3    H125519   1.751   0.949  11.477 -0.2532 -0.0071  0.8385
 1368TIP3    H225520   1.894   0.907  11.450 -0.4503 -1.0753  1.4075
 1369TIP3   OH225521   0.799   2.890  15.953  0.0256 -0.3187 -0.2495
 1369TIP3    H125522   0.865   2.948  15.913  0.2035  0.5547  1.2489
 1369TIP3    H225523   0.850   2.815  15.984 -0.1034 -0.9683 -1.5631
 1370TIP3   OH225524   6.421   5.530   1.916  0.5548 -0.0789 -0.5254
 1370TIP3    H125525   6.452   5.584   1.989  0.0208 -2.0735  1.2398
 1370TIP3    H225526   6.352   5.582   1.876  0.9715  1.1376  0.2874
 1371TIP3   OH225527   1.427   2.574   1.650  0.0257 -0.1317  0.7031
 1371TIP3    H125528   1.511   2.607   1.618  0.3856  0.6119  2.3696
 1371TIP3    H225529   1.362   2.630   1.610  0.4316  0.3617  0.7287
 1372TIP3   OH225530   1.549   3.930   0.477  0.1420  0.4998 -0.3559
 1372TIP3    H125531   1.572   3.884   0.396 -1.1981 -0.1936 -0.3540
 1372TIP3    H225532   1.457   3.909   0.491  0.1080  1.4048  0.8387
 1373TIP3   OH225533   0.789   3.389  15.661  0.4778 -0.3104 -0.9387
 1373TIP3    H125534   0.732   3.413  15.588  0.1779  1.2514 -0.2148
 1373TIP3    H225535   0.796   3.469  15.714  1.4199 -1.1561  0.2592
 1374TIP3   OH225536   2.706   2.494  15.623 -0.1970 -0.2092  0.4392
 1374TIP3    H125537   2.763   2.567  15.647  0.4069  0.3605 -2.5209
 1374TIP3    H225538   2.617   2.526  15.637  0.1309  0.1632  1.6650
 1375TIP3   OH225539   0.059   1.109  13.645 -0.5282  0.8315  0.1875
 1375TIP3    H125540   0.044   1.102  13.550 -0.7524 -2.0969  0.4041
 1375TIP3    H225541   0.055   1.203  13.662  2.2325  1.6993 -3.1743
 1376TIP3   OH225542   1.894   6.707   5.805  0.0229  0.1659  0.1608
 1376TIP3    H125543   1.925   6.787   5.763  3.4407 -0.6390  0.9866
 1376TIP3    H225544   1.849   6.737   5.883  1.3853  1.2979  0.5305
 1377TIP3   OH225545   0.827   4.355  11.457  0.6616  0.0900 -0.5122
 1377TIP3    H125546   0.867   4.289  11.513  0.0480 -0.0319 -0.2200
 1377TIP3    H225547   0.745   4.378  11.500  0.7960  0.9332 -0.6913
 1378TIP3   OH225548   5.064   4.279  13.707 -0.1531  0.6353 -0.2232
 1378TIP3    H125549   5.007   4.355  13.722 -1.3864 -0.4546  0.6742
 1378TIP3    H225550   5.046   4.253  13.616 -1.8836 -0.3393  0.3742
 1379TIP3   OH225551   2.042   2.828   2.931 -0.2486  0.2369 -0.0044
 1379TIP3    H125552   2.032   2.734   2.921 -1.6775  0.3714  0.0751
 1379TIP3    H225553   1.957   2.858   2.964  0.5797  1.3865  1.1658
 1380TIP3   OH225554   1.549   4.433   1.762 -0.4774 -0.0111 -0.0044
 1380TIP3    H125555   1.520   4.520   1.788 -2.3760 -0.0204 -1.9483
 1380TIP3    H225556   1.500   4.373   1.818  2.9213  0.1404  3.3512
 1381TIP3   OH225557   5.692   4.109   4.594  0.5162 -0.4381 -0.1986
 1381TIP3    H125558   5.632   4.124   4.666  0.5447  0.3982 -0.3378
 1381TIP3    H225559   5.748   4.187   4.593 -0.1771  0.0597 -1.7841
 1382TIP3   OH225560   2.065   5.113   2.162  0.5536  0.3838  0.9046
 1382TIP3    H125561   2.063   5.199   2.120 -0.6307 -0.5020 -0.9130
 1382TIP3    H225562   1.978   5.104   2.202  0.2405 -0.4387  0.0707
 1383TIP3   OH225563   5.127   6.347  13.470 -0.2027  0.2311 -0.1738
 1383TIP3    H125564   5.175   6.283  13.523 -1.2332 -0.3481  0.0711
 1383TIP3    H225565   5.091   6.297  13.397  0.2791  0.8245 -0.8331
 1384TIP3   OH225566   0.267   5.954  15.410  0.2198  0.1275  0.1512
 1384TIP3    H125567   0.311   5.986  15.331 -1.3842 -0.3678 -0.9674
 1384TIP3    H225568   0.294   5.862  15.416 -0.3617 -0.0813 -0.3419
 1385TIP3   OH225569   1.329   4.763   2.917  0.5703 -0.3863 -0.1373
 1385TIP3    H125570   1.295   4.792   3.002 -1.4334 -2.9991  0.0141
 1385TIP3    H225571   1.265   4.794   2.853  1.1387  0.0193 -0.5106
 1386TIP3   OH225572   6.627   3.028   1.784  0.1236 -0.1146  0.2692
 1386TIP3    H125573   6.548   3.033   1.729  0.4945  0.4384 -0.2179
 1386TIP3    H225574   6.700   3.034   1.722  0.5556 -1.5756  0.6375
 1387TIP3   OH225575   2.658   5.043   5.419 -0.0907 -0.5625 -0.2240
 1387TIP3    H125576   2.626   4.954   5.402  1.1216 -0.9640 -0.3989
 1387TIP3    H225577   2.641   5.090   5.337  0.9256 -1.1120 -0.7536
 1388TIP3   OH225578   6.582   0.278  16.192  0.1783  0.2866 -0.0089
 1388TIP3    H125579   6.640   0.332  16.245  0.4396 -1.1542  1.1896
 1388TIP3    H225580   6.640   0.215  16.148 -0.4365 -1.0815  1.0978
 1389TIP3   OH225581   6.440   6.527   1.759  0.2161 -0.1000 -0.2766
 1389TIP3    H125582   6.464   6.608   1.714  1.3084 -0.2569  0.0046
 1389TIP3    H225583   6.434   6.552   1.852 -0.7909 -0.0541 -0.3410
 1390TIP3   OH225584   4.625   0.660  16.550 -0.5056 -0.3874  0.3232
 1390TIP3    H125585   4.686   0.733  16.536 -0.7092 -0.2964 -0.1045
 1390TIP3    H225586   4.641   0.601  16.476  0.1595 -1.1336  1.0479
 1391TIP3   OH225587   3.790   5.670   4.797 -0.1328 -0.8914  0.1694
 1391TIP3    H125588   3.765   5.581   4.822 -1.7709 -1.0855 -1.9391
 1391TIP3    H225589   3.716   5.724   4.822  0.4661 -0.2676  0.6034
 1392TIP3   OH225590   3.460   4.825  16.686  0.1082 -0.1238 -0.4154
 1392TIP3    H125591   3.424   4.870  16.762 -0.5496  0.7687 -1.2301
 1392TIP3    H225592   3.452   4.732  16.707  0.5173  0.1210  0.8604
 1393TIP3   OH225593   6.712   6.359   4.343 -0.3232  0.1949  0.1270
 1393TIP3    H125594   6.796   6.323   4.371  0.0712  0.1675 -1.0804
 1393TIP3    H225595   6.654   6.283   4.339  0.0149 -0.0250 -0.6032
 1394TIP3   OH225596   3.719   4.471  13.449  0.1583 -0.1190 -0.2109
 1394TIP3    H125597   3.719   4.566  13.464  1.8668 -0.2403  0.6748
 1394TIP3    H225598   3.693   4.433  13.533 -2.4866 -0.4080 -1.0993
 1395TIP3   OH225599   0.564   6.115  11.662  0.5044  0.4639 -0.3083
 1395TIP3    H125600   0.545   6.182  11.728  1.7107  0.3336  0.1927
 1395TIP3    H225601   0.478   6.088  11.630 -0.0457  1.4191  0.3197
 1396TIP3   OH225602   1.791   0.828   0.474  0.5650  0.5668 -0.0836
 1396TIP3    H125603   1.860   0.787   0.527 -0.2452 -1.1335 -0.3162
 1396TIP3    H225604   1.738   0.755   0.443 -2.2062  1.9649  1.2436
 1397TIP3   OH225605   5.910   4.697   1.210 -0.2417  0.1261  0.6163
 1397TIP3    H125606   5.893   4.722   1.300  0.0417 -0.7181  0.9083
 1397TIP3    H225607   5.823   4.688   1.170 -0.3756  0.1336  0.9089
 1398TIP3   OH225608   1.136   0.650  17.229 -0.0296  0.2080  0.1571
 1398TIP3    H125609   1.217   0.603  17.209 -0.6240 -0.4505 -0.7256
 1398TIP3    H225610   1.139   0.663  17.324  0.6856 -0.5923  0.2538
 1399TIP3   OH225611   6.220   0.399   3.579  0.7324  0.0588 -0.2915
 1399TIP3    H125612   6.198   0.391   3.487  1.6046 -0.8957 -0.4174
 1399TIP3    H225613   6.316   0.397   3.582  0.7172  0.1963  0.6187
 1400TIP3   OH225614   6.319   0.151  16.203 -0.6544  0.1508 -0.2275
 1400TIP3    H125615   6.302   0.194  16.287  0.2183 -1.8149  1.0009
 1400TIP3    H225616   6.400   0.191  16.172  0.1088 -0.5142  0.8644
 1401TIP3   OH225617   6.363   5.759   3.257 -0.1296  0.3088 -0.5912
 1401TIP3    H125618   6.368   5.854   3.260 -0.9712  0.3197  1.0524
 1401TIP3    H225619   6.344   5.739   3.165  4.0839  1.4890 -1.8151
 1402TIP3   OH225620   5.799   1.391   2.249 -0.3193 -0.1565  0.3889
 1402TIP3    H125621   5.837   1.377   2.336 -0.3881 -1.8931  0.1555
 1402TIP3    H225622   5.844   1.469   2.216 -0.8073  0.9362  2.2498
 1403TIP3   OH225623   4.855   4.011  16.318 -0.4587 -0.3257  0.6238
 1403TIP3    H125624   4.786   3.952  16.348  0.0091 -0.2006  1.9782
 1403TIP3    H225625   4.897   3.964  16.246 -1.2517 -0.8616  0.5056
 1404TIP3   OH225626   4.147   3.871  11.362  0.1425  0.0736 -0.8290
 1404TIP3    H125627   4.096   3.801  11.402 -0.1629  1.0756  0.5696
 1404TIP3    H225628   4.101   3.889  11.279 -0.6305 -0.3858 -0.5095
 1405TIP3   OH225629   5.172   5.260   1.269  0.4600  0.4627  0.4130
 1405TIP3    H125630   5.156   5.261   1.364  2.3599 -1.1399  0.7842
 1405TIP3    H225631   5.262   5.291   1.260 -0.1532  1.8582 -0.9884
 1406TIP3   OH225632   2.447   1.474   3.264  0.4922 -0.0327  0.6983
 1406TIP3    H125633   2.493   1.458   3.182 -0.6353  0.3754 -0.0192
 1406TIP3    H225634   2.389   1.547   3.246 -0.5853 -0.6578  1.5299
 1407TIP3   OH225635   4.915   1.437  16.186 -0.6219 -0.4651  0.3485
 1407TIP3    H125636   4.913   1.530  16.210  0.5074 -0.1053 -0.8986
 1407TIP3    H225637   4.912   1.391  16.269  1.3425  0.7212  1.1181
 1408TIP3   OH225638   2.083   5.483  12.305  0.4011 -0.0118  0.0079
 1408TIP3    H125639   2.038   5.496  12.221  0.0782  2.1524  0.5038
 1408TIP3    H225640   2.068   5.564  12.353  2.6988 -0.2629  1.1883
 1409TIP3   OH225641   1.976   2.464  16.118  0.4466  0.1117  0.7635
 1409TIP3    H125642   2.043   2.403  16.149 -1.6214 -3.7342 -2.0033
 1409TIP3    H225643   1.900   2.447  16.173 -0.5553 -0.8507 -0.8508
 1410TIP3   OH225644   0.528   0.332   5.261 -0.0121  0.5181 -0.2475
 1410TIP3    H125645   0.506   0.252   5.309 -1.1580  0.9286 -0.0736
 1410TIP3    H225646   0.513   0.403   5.324  2.5257  0.7955  0.1197
 1411TIP3   OH225647   2.837   3.343   3.469 -0.2255 -0.6486 -0.1639
 1411TIP3    H125648   2.758   3.363   3.519 -0.4060  1.8349 -1.3552
 1411TIP3    H225649   2.897   3.306   3.533 -1.2054  0.4507  1.4308
 1412TIP3   OH225650   2.448   3.341  14.005 -0.3801  0.0425  0.4444
 1412TIP3    H125651   2.360   3.316  13.978  0.4150 -1.8876 -0.4712
 1412TIP3    H225652   2.453   3.318  14.097 -1.2874  1.4826  0.8642
 1413TIP3   OH225653   6.703   2.890  14.731 -0.4501  0.2894 -0.1078
 1413TIP3    H125654   6.767   2.958  14.752 -0.0168 -0.1671  0.0558
 1413TIP3    H225655   6.756   2.815  14.706 -0.9411  0.1723 -0.7883
 1414TIP3   OH225656   3.748   4.989  11.290  0.4053 -0.8941  0.6544
 1414TIP3    H125657   3.810   5.054  11.321 -0.8418  0.5027  0.2725
 1414TIP3    H225658   3.719   5.022  11.205 -0.9629 -1.4416  0.8962
 1415TIP3   OH225659   1.322   6.621   1.137 -0.2398  0.2645  0.3573
 1415TIP3    H125660   1.283   6.536   1.118  0.2465 -0.2483  1.5534
 1415TIP3    H225661   1.289   6.679   1.069 -1.7249 -0.5486  0.3728
 1416TIP3   OH225662   0.799   6.321  14.623  0.0243 -0.0520 -0.4766
 1416TIP3    H125663   0.830   6.389  14.563  0.0993 -0.7118 -1.1992
 1416TIP3    H225664   0.844   6.339  14.705  1.0752 -0.0158 -1.0513
 1417TIP3   OH225665   2.940   5.917  12.177 -0.8476  0.0586 -0.5112
 1417TIP3    H125666   2.998   5.953  12.110 -1.1902 -1.0301 -1.4106
 1417TIP3    H225667   2.872   5.984  12.189 -0.3673  0.5813 -0.7066
 1418TIP3   OH225668   5.974   2.804  15.262  0.4278  0.1627 -0.4147
 1418TIP3    H125669   6.032   2.735  15.295  0.5764  0.5064  0.0458
 1418TIP3    H225670   6.020   2.841  15.187  0.2535 -0.3800 -0.7894
 1419TIP3   OH225671   2.217   5.935  16.999  0.0720  0.0217 -0.0424
 1419TIP3    H125672   2.207   5.972  17.086 -1.4719  0.1347 -0.2483
 1419TIP3    H225673   2.220   5.840  17.013 -0.3072  0.0328  0.1345
 1420TIP3   OH225674   1.503   6.001  15.376  0.4435 -0.1520 -0.2295
 1420TIP3    H125675   1.593   5.971  15.383  0.8362  1.2225  0.8498
 1420TIP3    H225676   1.451   5.932  15.419  0.9117 -1.2033 -1.3396
 1421TIP3   OH225677   5.170   2.501   4.552  0.2820 -0.4978  0.3561
 1421TIP3    H125678   5.179   2.414   4.592 -1.6987 -0.2887  1.3058
 1421TIP3    H225679   5.130   2.484   4.467  0.5071 -0.5662  0.2623
 1422TIP3   OH225680   4.076   0.577   6.617  0.9482 -0.9487  0.8537
 1422TIP3    H125681   4.023   0.560   6.696 -0.4007 -2.5744 -0.3627
 1422TIP3    H225682   4.094   0.491   6.582  2.8239 -0.2942  0.1817
 1423TIP3   OH225683   3.635   2.543  12.687 -0.0691  0.0084 -0.4565
 1423TIP3    H125684   3.635   2.513  12.778 -0.4055  4.5330  1.1795
 1423TIP3    H225685   3.720   2.516  12.653  0.1900 -1.4888  1.2699
 1424TIP3   OH225686   3.671   5.650  12.495 -0.2561  0.2723 -0.0083
 1424TIP3    H125687   3.746   5.609  12.539 -0.6371  0.9423  1.3075
 1424TIP3    H225688   3.710   5.698  12.422  0.5514  0.1415  0.3205
 1425TIP3   OH225689   5.303   1.441  11.493  0.2253 -0.3841 -0.2745
 1425TIP3    H125690   5.238   1.469  11.428 -0.1289 -1.8047 -0.5366
 1425TIP3    H225691   5.263   1.462  11.578  1.2555  2.7520 -0.4809
 1426TIP3   OH225692   0.687   5.661   3.978  0.2317 -0.0460 -0.3332
 1426TIP3    H125693   0.674   5.666   4.073 -1.0190  1.4439 -0.5565
 1426TIP3    H225694   0.626   5.594   3.949 -1.4364  1.4543 -0.4016
 1427TIP3   OH225695   6.695   5.418   2.505 -0.1597  0.2929  0.2405
 1427TIP3    H125696   6.773   5.394   2.553 -1.6284  0.2320  2.6517
 1427TIP3    H225697   6.722   5.491   2.449  2.1120 -1.1197 -0.5472
 1428TIP3   OH225698   1.847   4.148  12.419 -0.0273 -0.9097  0.7707
 1428TIP3    H125699   1.822   4.088  12.489  0.7772 -0.6099  1.3249
 1428TIP3    H225700   1.928   4.111  12.384  0.1854 -0.4306  0.7591
 1429TIP3   OH225701   3.571   5.407  13.183  0.8266 -0.4011 -0.1253
 1429TIP3    H125702   3.528   5.481  13.226 -0.4588 -1.6465  0.7658
 1429TIP3    H225703   3.570   5.337  13.249 -1.0635 -2.2991 -2.1022
 1430TIP3   OH225704   0.217   4.147  12.712 -0.1552  0.9471  0.3091
 1430TIP3    H125705   0.176   4.083  12.654  1.6210 -0.5201  0.6212
 1430TIP3    H225706   0.149   4.213  12.728 -2.5540 -1.6636  1.2374
 1431TIP3   OH225707   1.214   3.048   4.542 -0.3848  0.3533  0.2062
 1431TIP3    H125708   1.267   3.036   4.621  1.1829 -3.5519 -1.2961
 1431TIP3    H225709   1.270   3.098   4.483  0.5476 -1.2848 -0.3235
 1432TIP3   OH225710   4.066   1.490  13.881 -0.0497  0.0103 -0.0210
 1432TIP3    H125711   4.146   1.457  13.921 -0.0785 -1.2185 -0.9475
 1432TIP3    H225712   4.097   1.542  13.806 -0.0745  0.5960  0.3718
 1433TIP3   OH225713   0.044   6.618  12.192 -0.0770 -0.2639  0.1383
 1433TIP3    H125714  -0.025   6.664  12.144 -0.4388 -1.8556 -0.9173
 1433TIP3    H225715   0.002   6.590  12.273 -0.2497  0.0533  0.1585
 1434TIP3   OH225716   5.730   5.678   1.518 -0.2485  0.3208  0.3954
 1434TIP3    H125717   5.690   5.710   1.599  0.0841  0.7555  0.3917
 1434TIP3    H225718   5.657   5.666   1.458 -0.6085 -0.9281  1.0650
 1435TIP3   OH225719   4.746   4.561  11.095 -0.3664 -0.2783 -0.3359
 1435TIP3    H125720   4.798   4.538  11.172  1.6815 -1.5315 -2.0456
 1435TIP3    H225721   4.784   4.642  11.063  0.5391 -1.1601 -1.5488
 1436TIP3   OH225722   3.686   0.976   1.919  0.1879  0.1416  0.0658
 1436TIP3    H125723   3.743   0.946   1.989 -0.0072 -0.7856 -0.1702
 1436TIP3    H225724   3.686   0.905   1.855 -0.4308  0.5571 -0.4076
 1437TIP3   OH225725   2.225   4.694   1.119  0.8571  0.4397 -0.1673
 1437TIP3    H125726   2.291   4.753   1.154 -0.4843  1.5724  0.4998
 1437TIP3    H225727   2.196   4.643   1.194  0.6660  0.2445 -0.3704
 1438TIP3   OH225728   2.193   4.088   5.416 -0.0872  0.3290  0.5079
 1438TIP3    H125729   2.274   4.059   5.374  0.8305  0.5476  2.0600
 1438TIP3    H225730   2.123   4.058   5.359  0.9729 -2.0999  0.4337
 1439TIP3   OH225731   5.341   4.004   0.953 -0.1642  1.0408 -0.1466
 1439TIP3    H125732   5.351   3.972   0.864 -0.1493  3.4131 -1.0404
 1439TIP3    H225733   5.337   4.099   0.944 -0.5018  1.3045  2.3532
 1440TIP3   OH225734   6.262   6.330   5.611 -0.7395 -0.5074 -0.6493
 1440TIP3    H125735   6.272   6.403   5.550 -2.0996  0.8660  0.6943
 1440TIP3    H225736   6.187   6.281   5.577 -1.0826 -0.1171 -0.4702
 1441TIP3   OH225737   0.916   0.311   1.662  0.0616  0.1061  0.2624
 1441TIP3    H125738   0.949   0.390   1.619 -1.3036  0.8410  0.5428
 1441TIP3    H225739   0.953   0.315   1.751 -1.3115  1.3053  0.8088
 1442TIP3   OH225740   5.822   0.282  16.786  0.2114 -0.6869  0.4667
 1442TIP3    H125741   5.846   0.233  16.864 -2.0392  0.4729  1.9476
 1442TIP3    H225742   5.774   0.358  16.819 -0.1770  0.2077 -2.0172
 1443TIP3   OH225743   2.912   5.064   0.482 -0.4923 -0.0192  0.1594
 1443TIP3    H125744   2.937   5.030   0.568 -2.7335 -0.7371  0.5565
 1443TIP3    H225745   2.853   5.137   0.501  0.4943  1.0402 -0.7610
 1444TIP3   OH225746   4.297   3.831  12.323  0.1503 -0.2448 -0.4270
 1444TIP3    H125747   4.254   3.779  12.391  0.7509  0.5620  0.5933
 1444TIP3    H225748   4.370   3.777  12.293  0.2479 -0.3557  0.0084
 1445TIP3   OH225749   4.647   6.179  13.722 -0.1037  0.4619 -0.3270
 1445TIP3    H125750   4.654   6.275  13.727  2.8403  0.2376  1.8300
 1445TIP3    H225751   4.720   6.153  13.666 -0.6673 -0.5584 -0.5971
 1446TIP3   OH225752   4.338   3.294   3.882 -0.1128 -0.0076  0.2508
 1446TIP3    H125753   4.331   3.213   3.932  0.7792 -1.1322 -1.3957
 1446TIP3    H225754   4.254   3.339   3.898 -1.0241 -1.7157  0.3910
 1447TIP3   OH225755   4.095   0.998  13.080 -0.0968 -0.4120  0.1447
 1447TIP3    H125756   4.058   0.933  13.139 -3.8780  0.7239 -0.8050
 1447TIP3    H225757   4.131   0.947  13.007 -1.0875 -1.5544  0.4439
 1448TIP3   OH225758   1.553   6.047   0.568  0.0710  0.3432 -0.1104
 1448TIP3    H125759   1.559   5.964   0.520 -2.2589  0.2395 -0.2740
 1448TIP3    H225760   1.496   6.102   0.514  0.3344  1.5217  0.7805
 1449TIP3   OH225761   2.442   3.454   6.668 -0.4446  0.0821 -0.0833
 1449TIP3    H125762   2.473   3.542   6.686  0.4783 -0.5311  1.4126
 1449TIP3    H225763   2.459   3.405   6.748  0.3986 -1.8084 -1.3633
 1450TIP3   OH225764   2.020   5.578   4.334 -0.2027  0.2363 -0.1746
 1450TIP3    H125765   1.964   5.504   4.356 -1.1689  0.6483 -1.1815
 1450TIP3    H225766   2.038   5.621   4.418 -0.9648 -0.2029  0.2157
 1451TIP3   OH225767   3.162   1.947   2.112  0.0308  0.4585 -0.0735
 1451TIP3    H125768   3.124   2.031   2.138  1.2105  0.8623  0.3803
 1451TIP3    H225769   3.208   1.917   2.190 -0.8963 -0.9194 -0.0357
 1452TIP3   OH225770   5.328   0.941   3.156  0.0239  0.3213  0.2056
 1452TIP3    H125771   5.365   0.862   3.195 -1.3608 -0.2369  0.4264
 1452TIP3    H225772   5.322   0.922   3.062  2.2365  1.2145 -0.1509
 1453TIP3   OH225773   3.309   3.128  14.259 -0.1609 -0.2746 -0.7404
 1453TIP3    H125774   3.402   3.137  14.238  0.2690  0.1689  1.3110
 1453TIP3    H225775   3.306   3.107  14.352 -2.2171  2.2766 -0.1562
 1454TIP3   OH225776   2.309   5.329  12.231  0.1432  0.0350 -0.0185
 1454TIP3    H125777   2.250   5.394  12.271  0.8689  0.5010  0.2996
 1454TIP3    H225778   2.390   5.336  12.281  0.7094 -0.1171 -0.9038
 1455TIP3   OH225779   4.247   2.959   3.455 -0.1149 -0.2154  0.0682
 1455TIP3    H125780   4.177   2.990   3.397  0.1892  0.7714  0.2214
 1455TIP3    H225781   4.231   3.004   3.538 -0.4960 -1.5597  0.7409
 1456TIP3   OH225782   1.439   5.423   4.304 -0.5506 -0.2431  0.1889
 1456TIP3    H125783   1.364   5.437   4.247 -1.6953 -0.8067  1.5379
 1456TIP3    H225784   1.495   5.499   4.289 -1.1559 -0.0586 -1.1783
 1457TIP3   OH225785   4.549   6.668  15.498  0.5255  0.1239  0.0527
 1457TIP3    H125786   4.513   6.583  15.472 -0.1479  0.5509 -0.4119
 1457TIP3    H225787   4.644   6.658  15.488  0.4625 -0.6561  0.2421
 1458TIP3   OH225788   2.732   0.029  14.896 -0.0473 -0.0606  0.2538
 1458TIP3    H125789   2.714   0.123  14.901  0.3364 -0.0408  1.2788
 1458TIP3    H225790   2.661  -0.006  14.842  0.7342  1.0573 -1.5334
 1459TIP3   OH225791   4.800   6.617  13.804 -0.2489 -0.2303 -0.5533
 1459TIP3    H125792   4.706   6.602  13.804 -0.1514 -0.8154 -0.3013
 1459TIP3    H225793   4.824   6.622  13.897 -0.3497  1.8947 -0.5982
 1460TIP3   OH225794   1.532   5.801   0.402 -0.3343  0.0611  0.5893
 1460TIP3    H125795   1.504   5.715   0.372  0.8357  0.3776 -1.4967
 1460TIP3    H225796   1.499   5.862   0.336  3.5385  0.6128 -0.9964
 1461TIP3   OH225797   1.796   1.181  15.671 -0.3758  0.6332  0.0182
 1461TIP3    H125798   1.869   1.182  15.733 -0.6426 -1.4785  0.3824
 1461TIP3    H225799   1.743   1.257  15.695  1.1359  1.5935  0.4037
 1462TIP3   OH225800   2.524   1.778   5.125 -0.2872  0.5523  0.1571
 1462TIP3    H125801   2.575   1.697   5.120  0.8847  1.3669 -1.6877
 1462TIP3    H225802   2.433   1.749   5.124  0.0959 -0.8610  2.1319
 1463TIP3   OH225803   3.884   4.819  16.451 -0.0200  0.1282 -0.0189
 1463TIP3    H125804   3.819   4.784  16.391 -1.9825  0.1020  2.0515
 1463TIP3    H225805   3.864   4.913  16.457  1.6479  0.5956 -1.1638
 1464TIP3   OH225806   2.219   0.324   2.856  0.3291 -0.0705  0.2942
 1464TIP3    H125807   2.256   0.373   2.930  0.6465  0.2214 -0.0568
 1464TIP3    H225808   2.148   0.379   2.824 -0.9305 -0.9891  1.4568
 1465TIP3   OH225809   5.739   5.834  17.231 -0.0570 -0.3942  0.4986
 1465TIP3    H125810   5.726   5.864  17.321  0.5546  1.7266 -0.1070
 1465TIP3    H225811   5.651   5.838  17.192  0.0094  0.5225  0.4434
 1466TIP3   OH225812   3.217   4.797   2.875  0.2756  0.8557 -0.1946
 1466TIP3    H125813   3.230   4.716   2.826 -1.4605  0.8982 -0.7729
 1466TIP3    H225814   3.189   4.861   2.809  0.0612  1.4960  0.5082
 1467TIP3   OH225815   3.040   5.644  15.307 -0.3916 -0.0527 -0.5484
 1467TIP3    H125816   3.121   5.617  15.264  0.2268  0.4214  0.3047
 1467TIP3    H225817   3.035   5.738  15.293 -1.6892 -0.3231 -2.0825
 1468TIP3   OH225818   2.863   2.435   5.421 -0.0304  0.1375  0.3994
 1468TIP3    H125819   2.854   2.416   5.514  0.2181 -1.7362  0.0627
 1468TIP3    H225820   2.953   2.410   5.400 -0.8924 -1.9814 -0.9010
 1469TIP3   OH225821   6.057   1.010   4.046  0.8084  0.4836  0.0590
 1469TIP3    H125822   6.118   0.937   4.038 -0.3960 -0.6252  0.7667
 1469TIP3    H225823   6.004   1.006   3.967  1.1235  0.9549 -0.1773
 1470TIP3   OH225824   1.355   1.283  14.646 -0.2334 -0.1691  0.3830
 1470TIP3    H125825   1.345   1.368  14.689 -1.1993 -0.1615  0.1659
 1470TIP3    H225826   1.311   1.294  14.561  0.8561 -0.4567 -0.2257
 1471TIP3   OH225827   2.425   5.017   3.261 -0.4276 -0.0581 -0.2456
 1471TIP3    H125828   2.424   4.970   3.345  1.9600  1.7962  0.9100
 1471TIP3    H225829   2.518   5.031   3.243 -1.0307  4.0010 -0.6308
 1472TIP3   OH225830   2.323   2.418  16.591  0.3005 -0.0093  0.0808
 1472TIP3    H125831   2.401   2.365  16.608  0.6812  0.5601  0.1385
 1472TIP3    H225832   2.354   2.487  16.532 -0.6038 -0.9251 -1.4838
 1473TIP3   OH225833   4.610   5.539   3.150  0.5562  0.2282  0.2043
 1473TIP3    H125834   4.524   5.509   3.121  0.4098 -0.0606  0.9368
 1473TIP3    H225835   4.652   5.461   3.185  1.1267  0.3687 -0.1622
 1474TIP3   OH225836   0.832   6.557  12.705 -0.3044 -0.0417 -0.0511
 1474TIP3    H125837   0.765   6.580  12.768 -0.6412  2.4406 -1.2754
 1474TIP3    H225838   0.914   6.587  12.744 -0.0161 -1.9292  0.8695
 1475TIP3   OH225839   6.162   4.116   6.561  0.1824 -0.7263 -0.6591
 1475TIP3    H125840   6.116   4.033   6.544  0.3243 -0.5930 -1.6784
 1475TIP3    H225841   6.093   4.182   6.558  0.1160 -0.7684 -0.1328
 1476TIP3   OH225842   2.100   4.791  15.499 -0.0609  0.3484 -0.2874
 1476TIP3    H125843   2.161   4.816  15.430 -0.2402  0.1172 -0.5315
 1476TIP3    H225844   2.104   4.863  15.562 -0.0423  0.6521 -0.6341
 1477TIP3   OH225845   5.921   2.547  13.455  0.1379  0.6498  0.4413
 1477TIP3    H125846   6.014   2.525  13.457  0.8619  3.2979 -1.2920
 1477TIP3    H225847   5.891   2.517  13.369 -0.4344  0.4129  0.7216
 1478TIP3   OH225848   5.579   2.667   4.477 -0.1198  0.1072  0.0163
 1478TIP3    H125849   5.672   2.685   4.494 -0.0520 -0.6640  0.4855
 1478TIP3    H225850   5.533   2.714   4.547 -0.0233 -0.3813  0.4093
 1479TIP3   OH225851   4.656   0.877   3.026  0.0136  0.2097 -0.1196
 1479TIP3    H125852   4.662   0.840   2.938  0.2032  1.1091 -0.4886
 1479TIP3    H225853   4.579   0.835   3.065  0.4067 -0.8057 -0.4124
 1480TIP3   OH225854   4.505   3.837  14.485  0.1649 -0.4625 -1.0621
 1480TIP3    H125855   4.556   3.918  14.484 -0.6690  0.1636  1.6594
 1480TIP3    H225856   4.567   3.769  14.510  0.4736 -0.3550 -1.5323
 1481TIP3   OH225857   1.618   0.067  16.989 -0.3554 -0.2129  0.0164
 1481TIP3    H125858   1.562   0.131  16.945  0.4785  0.2097 -0.4414
 1481TIP3    H225859   1.584   0.063  17.079 -2.4865 -1.5864 -0.8344
 1482TIP3   OH225860   4.963   2.365  11.084  0.4032  0.2831  0.5791
 1482TIP3    H125861   5.057   2.351  11.074  0.2364  0.1165 -0.8224
 1482TIP3    H225862   4.931   2.287  11.129  0.9777  0.5016  1.3892
 1483TIP3   OH225863   0.493   3.277   0.734 -0.4720 -0.5202  0.0277
 1483TIP3    H125864   0.524   3.217   0.666  0.9289 -0.3868  0.5556
 1483TIP3    H225865   0.398   3.265   0.734 -0.2717 -2.2357 -0.3484
 1484TIP3   OH225866   3.687   3.692   6.092 -0.1328  0.3316  0.2087
 1484TIP3    H125867   3.781   3.705   6.104 -0.1387 -0.1916  0.8441
 1484TIP3    H225868   3.678   3.599   6.070 -0.4713  0.4625 -0.2241
 1485TIP3   OH225869   6.192   5.752  13.560 -0.1039 -0.1226  0.3650
 1485TIP3    H125870   6.176   5.660  13.581  0.1283  0.2729  2.3441
 1485TIP3    H225871   6.178   5.799  13.643 -1.0465  1.7339 -0.7939
 1486TIP3   OH225872   5.129   4.301   4.969 -0.1534  0.1093 -0.2794
 1486TIP3    H125873   5.180   4.235   5.017 -2.3716 -0.5691  1.2203
 1486TIP3    H225874   5.081   4.252   4.903 -1.5950  0.2153  0.6552
 1487TIP3   OH225875   1.722   4.687  12.576  0.2617 -0.3562  0.1944
 1487TIP3    H125876   1.749   4.777  12.556  1.3180 -0.5452  0.7664
 1487TIP3    H225877   1.803   4.636  12.573  0.6042 -0.3628  5.2018
 1488TIP3   OH225878   1.405   5.925   1.062  0.0419 -0.1690 -0.4577
 1488TIP3    H125879   1.392   5.946   0.970  0.1313  1.3057 -0.1524
 1488TIP3    H225880   1.494   5.953   1.082 -0.2160  0.1749  0.2481
 1489TIP3   OH225881   2.958   5.131   5.322  0.3815  0.1518  0.0799
 1489TIP3    H125882   2.943   5.115   5.415  1.6221 -0.2613  0.2213
 1489TIP3    H225883   2.987   5.046   5.287 -0.9375  0.0805 -0.8710
 1490TIP3   OH225884   3.154   5.090  14.136 -0.1607  0.4644  0.1695
 1490TIP3    H125885   3.076   5.036  14.141 -0.1625  0.3406 -1.0540
 1490TIP3    H225886   3.143   5.155  14.205 -1.4100  0.5288 -0.0863
 1491TIP3   OH225887   5.757   6.739   3.490 -0.1483  0.5981  0.1432
 1491TIP3    H125888   5.789   6.824   3.520  0.2348  0.1327  1.0671
 1491TIP3    H225889   5.661   6.749   3.487 -0.1934  0.6854  1.4508
 1492TIP3   OH225890   2.263   3.330   0.948 -0.5445 -0.2249  0.7291
 1492TIP3    H125891   2.185   3.312   1.000 -0.4939 -2.1979  0.1697
 1492TIP3    H225892   2.290   3.245   0.915  0.9104  0.6545 -0.4286
 1493TIP3   OH225893   5.917   5.500   4.754  0.2890  0.1532  0.2510
 1493TIP3    H125894   5.891   5.426   4.698 -1.6737  0.2631  0.9614
 1493TIP3    H225895   5.943   5.568   4.692 -1.6065  0.1858 -0.5537
 1494TIP3   OH225896   4.970   5.606  11.555 -0.4749 -0.2450 -0.0800
 1494TIP3    H125897   5.041   5.543  11.570 -2.6818 -2.1181  2.9486
 1494TIP3    H225898   4.918   5.567  11.485  0.1690  0.0446 -0.7379
 1495TIP3   OH225899   0.126   1.655  12.888  0.3345 -0.0816  0.1528
 1495TIP3    H125900   0.075   1.735  12.884  0.2173 -0.1617  0.0374
 1495TIP3    H225901   0.168   1.657  12.974  1.5956  0.8756 -0.4649
 1496TIP3   OH225902   1.163   5.504  14.412  0.0168  0.2286 -0.5839
 1496TIP3    H125903   1.226   5.440  14.444  1.8147  1.4335 -1.6616
 1496TIP3    H225904   1.108   5.523  14.488  0.1927 -1.7098  0.0518
 1497TIP3   OH225905   4.402   2.689   4.303  0.3150 -0.4186  0.1609
 1497TIP3    H125906   4.402   2.719   4.212  0.1642 -2.2971 -0.4783
 1497TIP3    H225907   4.489   2.713   4.336  0.8798 -0.9973 -0.9041
 1498TIP3   OH225908   2.551   5.221   0.819  0.0003 -0.1793  0.0904
 1498TIP3    H125909   2.529   5.191   0.907 -0.6982  1.2811  0.4325
 1498TIP3    H225910   2.628   5.170   0.794  0.1486 -0.6627  1.5051
 1499TIP3   OH225911   2.656   6.615   0.368 -0.8421  0.1032  0.3479
 1499TIP3    H125912   2.709   6.583   0.441 -0.6191 -0.9238 -0.2606
 1499TIP3    H225913   2.569   6.629   0.407 -0.5285  0.3230  0.9857
 1500TIP3   OH225914   2.875   3.675  11.976  0.2373 -0.0194 -0.1149
 1500TIP3    H125915   2.821   3.721  12.040  1.0167  0.9094 -0.1287
 1500TIP3    H225916   2.944   3.634  12.028 -0.7020 -1.5784 -0.0441
 1501TIP3   OH225917   1.167   1.378   2.220 -0.3106 -0.5716 -0.0032
 1501TIP3    H125918   1.078   1.391   2.254  0.3275 -1.4314  2.0809
 1501TIP3    H225919   1.170   1.286   2.194 -0.5784 -0.0882 -1.8085
 1502TIP3   OH225920   3.780   2.831  14.917 -0.2500  0.0424 -0.0436
 1502TIP3    H125921   3.737   2.754  14.955 -0.7355 -0.0894 -0.8413
 1502TIP3    H225922   3.850   2.794  14.863  0.4905  0.2327  0.7598
 1503TIP3   OH225923   5.341   0.669   3.501  0.5375 -0.1760 -0.2866
 1503TIP3    H125924   5.406   0.698   3.438 -0.7929  0.4311 -1.4054
 1503TIP3    H225925   5.273   0.628   3.448 -0.8845  0.8833  0.6968
 1504TIP3   OH225926   2.609   2.369  14.528  0.1122 -0.5378 -0.1409
 1504TIP3    H125927   2.685   2.423  14.549  0.0098 -0.6753  0.5815
 1504TIP3    H225928   2.543   2.431  14.497  0.5242 -0.4214 -0.8166
 1505TIP3   OH225929   1.158   4.132  12.363 -0.0720 -0.1011 -0.2883
 1505TIP3    H125930   1.130   4.110  12.451 -0.2680 -1.3232 -0.6492
 1505TIP3    H225931   1.103   4.206  12.337  1.6264  1.8596  1.5118
 1506TIP3   OH225932   0.717   4.852  12.735  0.2169 -0.0289  0.0015
 1506TIP3    H125933   0.671   4.923  12.690  1.5553  0.0759 -1.2397
 1506TIP3    H225934   0.797   4.892  12.767  0.8759 -0.9196 -0.5142
 1507TIP3   OH225935   4.993   5.191   4.273 -0.4502 -0.4933  0.4318
 1507TIP3    H125936   5.033   5.257   4.329 -1.0842  0.8067 -0.6112
 1507TIP3    H225937   5.034   5.108   4.299  1.2161  0.4769  0.9466
 1508TIP3   OH225938   0.856   0.812   4.248 -0.0850 -0.1697 -0.3232
 1508TIP3    H125939   0.802   0.792   4.171  0.5695 -1.1819 -0.5250
 1508TIP3    H225940   0.944   0.785   4.223  0.5457  1.5834 -0.0309
 1509TIP3   OH225941   5.205   1.023   4.318 -0.4708 -0.0533 -0.3358
 1509TIP3    H125942   5.166   1.075   4.388  0.2668  0.6785 -0.4617
 1509TIP3    H225943   5.272   0.970   4.362 -0.3740  0.0136 -0.4017
 1510TIP3   OH225944   5.564   5.593   0.095  0.4223 -0.2912  0.4447
 1510TIP3    H125945   5.615   5.673   0.108 -0.4743  0.2233  0.8886
 1510TIP3    H225946   5.508   5.613   0.020  0.3125 -0.5670  0.4524
 1511TIP3   OH225947   5.703   2.386  11.065  0.1619  0.1409 -0.6083
 1511TIP3    H125948   5.723   2.479  11.052  3.0241 -0.5233 -1.3970
 1511TIP3    H225949   5.660   2.359  10.984  0.2290  0.5788 -0.7902
 1512TIP3   OH225950   2.988   0.163  11.498 -0.3562 -0.0629  1.0896
 1512TIP3    H125951   3.007   0.089  11.555  0.0930 -0.6970  0.1326
 1512TIP3    H225952   2.921   0.212  11.544  2.3302  1.2922  3.7624
 1513TIP3   OH225953   4.092   1.736   4.038  0.5997  0.3410 -0.2086
 1513TIP3    H125954   4.113   1.757   3.947  1.6996  1.7184  0.3468
 1513TIP3    H225955   4.007   1.776   4.054 -0.6155 -1.7412 -1.2468
 1514TIP3   OH225956   4.739   2.195   3.660  0.5345  0.2245  0.0907
 1514TIP3    H125957   4.727   2.264   3.595  1.5009 -0.6544 -1.0417
 1514TIP3    H225958   4.817   2.148   3.632 -1.3525 -2.7252 -0.4712
 1515TIP3   OH225959   4.571   2.099  13.327  0.9134 -0.6708  0.5294
 1515TIP3    H125960   4.645   2.056  13.371  1.1052 -0.2407  0.6320
 1515TIP3    H225961   4.499   2.037  13.335  0.7715 -0.3334  2.0056
 1516TIP3   OH225962   3.304   3.894   4.431 -0.0680  0.6219  0.6542
 1516TIP3    H125963   3.343   3.975   4.397  0.3469  0.5162  0.8780
 1516TIP3    H225964   3.374   3.853   4.482 -0.2270  0.0403  0.4081
 1517TIP3   OH225965   1.470   1.183   5.678  0.3192  0.4174  0.1365
 1517TIP3    H125966   1.431   1.118   5.737 -0.5037 -1.1466 -2.0354
 1517TIP3    H225967   1.398   1.207   5.619  1.7025  0.2077 -1.6633
 1518TIP3   OH225968   2.361   6.588   3.961 -0.0654 -0.7012  0.7577
 1518TIP3    H125969   2.333   6.673   3.995  3.5267  0.2256  1.6023
 1518TIP3    H225970   2.424   6.609   3.893 -0.1196 -2.7087  0.0543
 1519TIP3   OH225971   5.961   6.248  13.058  0.2023  0.2689 -0.3347
 1519TIP3    H125972   5.930   6.196  12.983  2.3321  0.1509 -1.1536
 1519TIP3    H225973   5.958   6.338  13.027  0.4853  0.2738 -0.3464
 1520TIP3   OH225974   2.378   2.392  13.341  0.0312  0.0472 -0.0730
 1520TIP3    H125975   2.362   2.345  13.259 -0.5226 -0.4722  0.3265
 1520TIP3    H225976   2.313   2.462  13.341  1.0898  1.0439 -0.8350
 1521TIP3   OH225977   1.179   0.117   3.416 -0.1024  0.2359  0.2118
 1521TIP3    H125978   1.166   0.022   3.407  2.3307 -0.0471 -0.6867
 1521TIP3    H225979   1.257   0.135   3.363  0.3399  2.5113  1.5982
 1522TIP3   OH225980   6.659   4.343  15.922 -0.4047 -0.2634  0.0472
 1522TIP3    H125981   6.735   4.287  15.941 -0.3913 -0.3589 -0.2885
 1522TIP3    H225982   6.676   4.379  15.835 -1.4246 -1.4352 -0.6604
 1523TIP3   OH225983   1.294   2.001   0.217  0.1470 -0.1194 -0.2591
 1523TIP3    H125984   1.373   2.038   0.176 -0.3016  0.7201 -0.3854
 1523TIP3    H225985   1.273   1.924   0.164 -0.3289  0.8555 -1.5156
 1524TIP3   OH225986   0.130   0.579   0.164 -0.7435 -0.1443  0.4140
 1524TIP3    H125987   0.158   0.598   0.074 -1.3821  2.6159  0.7514
 1524TIP3    H225988   0.086   0.494   0.158 -1.7599  0.5089 -2.0953
 1525TIP3   OH225989   3.403   5.878  14.805 -0.2573 -0.7327 -0.1346
 1525TIP3    H125990   3.309   5.864  14.819 -0.0605 -1.2979  0.6739
 1525TIP3    H225991   3.407   5.944  14.736 -1.2548 -0.3279  0.1762
 1526TIP3   OH225992   1.647   2.433   5.001 -0.6770  0.0414  0.9353
 1526TIP3    H125993   1.669   2.526   5.012 -0.8562  0.0303  1.4165
 1526TIP3    H225994   1.687   2.390   5.077  1.4403 -0.6252 -0.5163
 1527TIP3   OH225995   1.807   4.048   3.499  0.3152 -0.3246  0.1941
 1527TIP3    H125996   1.747   4.042   3.573 -1.1517 -3.0682 -1.1410
 1527TIP3    H225997   1.894   4.036   3.537 -0.1756  0.8136  1.7588
 1528TIP3   OH225998   4.512   1.026   3.977  0.2905 -0.8888  0.1517
 1528TIP3    H125999   4.547   0.979   4.053  1.4973 -0.7945 -0.3364
 1528TIP3    H226000   4.580   1.089   3.954 -0.5406 -0.1599 -0.3297
 1529TIP3   OH226001   0.547   0.059  13.645  0.1241 -0.0255  0.3189
 1529TIP3    H126002   0.620   0.114  13.616 -0.6552  0.2455 -1.1900
 1529TIP3    H226003   0.577  -0.030  13.630  0.3229  0.0700  0.1396
 1530TIP3   OH226004   5.888   6.375   2.722 -0.0876 -0.1734  0.6375
 1530TIP3    H126005   5.909   6.389   2.630  2.0887 -0.4267  1.0626
 1530TIP3    H226006   5.831   6.448   2.745 -0.7389 -0.1665 -0.9405
 1531TIP3   OH226007   3.198   1.197  14.388 -0.4908  0.3402  0.2089
 1531TIP3    H126008   3.170   1.112  14.356 -3.6726  0.2743  2.9262
 1531TIP3    H226009   3.167   1.260  14.322  0.5520 -0.4220 -1.0380
 1532TIP3   OH226010   1.421   6.419   2.644  0.0012 -0.1149 -0.0916
 1532TIP3    H126011   1.404   6.512   2.657  2.7869  0.2450  1.3356
 1532TIP3    H226012   1.472   6.415   2.563  0.4842 -0.3097  0.2162
 1533TIP3   OH226013   4.261   1.738  16.402  0.2554  0.1687  0.0984
 1533TIP3    H126014   4.274   1.732  16.307 -0.4929  0.0293  0.0008
 1533TIP3    H226015   4.349   1.749  16.437  0.4135  1.8556 -0.7390
 1534TIP3   OH226016   1.830   2.357   5.300 -0.0842 -0.0301 -0.6590
 1534TIP3    H126017   1.925   2.341   5.300 -0.0907 -0.0810 -0.1022
 1534TIP3    H226018   1.793   2.278   5.340 -0.3752 -0.0730 -1.0138
 1535TIP3   OH226019   1.036   1.975  11.893  0.2357  0.3100  0.3497
 1535TIP3    H126020   1.031   1.981  11.798 -0.0898  0.5037  0.3785
 1535TIP3    H226021   0.991   2.053  11.925 -0.1434 -0.0338  0.6684
 1536TIP3   OH226022   0.396   0.922  14.219  0.6266  0.1278  0.1612
 1536TIP3    H126023   0.389   0.910  14.124 -0.5605 -0.3434  0.3012
 1536TIP3    H226024   0.460   0.993  14.230 -1.9997  2.7860 -1.1269
 1537TIP3   OH226025   3.607   2.855  14.072 -0.0155 -0.5731 -0.2563
 1537TIP3    H126026   3.682   2.807  14.110  0.2558 -0.8140 -1.0874
 1537TIP3    H226027   3.594   2.929  14.131  0.7976 -0.6068 -0.0200
 1538TIP3   OH226028   6.661   3.879   3.177  0.2651 -0.1013  0.0582
 1538TIP3    H126029   6.707   3.890   3.260 -1.5520 -0.0312  1.0917
 1538TIP3    H226030   6.638   3.786   3.176  0.0456 -0.0432 -0.2210
 1539TIP3   OH226031   1.831   5.578   4.050 -0.4553 -0.1106  0.4603
 1539TIP3    H126032   1.799   5.663   4.021 -1.2437 -0.6444 -0.2530
 1539TIP3    H226033   1.925   5.592   4.065 -0.3834  0.6140 -0.6440
 1540TIP3   OH226034   2.919   5.782  14.898 -0.3129 -0.4786 -0.0980
 1540TIP3    H126035   2.845   5.795  14.958 -0.7407 -1.5531 -0.3820
 1540TIP3    H226036   2.880   5.790  14.811 -0.1442 -1.2455 -0.2492
 1541TIP3   OH226037   2.138   1.278   1.086  0.4847  0.9088 -0.3260
 1541TIP3    H126038   2.230   1.251   1.093  0.0875 -0.9435 -1.6288
 1541TIP3    H226039   2.089   1.202   1.119 -0.6058  1.3596 -0.8934
 1542TIP3   OH226040   2.607   5.687  15.785 -0.5723  0.1905 -0.5139
 1542TIP3    H126041   2.528   5.737  15.764  0.2230  1.1037 -1.3828
 1542TIP3    H226042   2.677   5.731  15.736 -0.0666 -2.5796 -2.3968
 1543TIP3   OH226043   1.359   1.206   6.283 -0.8902  0.3950 -0.3629
 1543TIP3    H126044   1.440   1.187   6.236 -1.2473 -0.0755 -0.7816
 1543TIP3    H226045   1.387   1.266   6.353  0.0692 -0.8442  0.3527
 1544TIP3   OH226046   0.229   0.968   4.801 -0.0406  0.8316  0.2573
 1544TIP3    H126047   0.299   1.031   4.820  1.2922  0.0457 -1.8499
 1544TIP3    H226048   0.248   0.937   4.713 -2.0893 -0.6984  0.3161
 1545TIP3   OH226049   5.484   1.944  16.299  0.4841 -0.3584 -0.2569
 1545TIP3    H126050   5.449   1.919  16.213  1.1294 -1.0921 -0.3194
 1545TIP3    H226051   5.579   1.939  16.288  0.6117  1.2268  0.0106
 1546TIP3   OH226052   6.123   2.089   0.865  0.1104 -0.6402 -1.1166
 1546TIP3    H126053   6.065   2.093   0.789  0.1730  0.8354 -1.0954
 1546TIP3    H226054   6.071   2.122   0.938  0.4232 -0.9446 -0.7512
 1547TIP3   OH226055   5.034   4.683   3.748 -0.0862 -0.6329 -0.2702
 1547TIP3    H126056   4.987   4.616   3.798 -0.4306 -2.2367 -2.6963
 1547TIP3    H226057   5.099   4.717   3.810  0.0921 -3.1756  1.0346
 1548TIP3   OH226058   6.036   1.477   3.999  0.0558  0.4641 -0.1215
 1548TIP3    H126059   6.062   1.445   3.912 -0.7592 -1.1360  0.2175
 1548TIP3    H226060   5.941   1.476   3.998 -0.0436  3.7513 -0.3963
 1549TIP3   OH226061   2.986   6.217  15.286  0.3745  0.4116  0.3870
 1549TIP3    H126062   2.919   6.268  15.240 -0.2488  1.0025  1.9140
 1549TIP3    H226063   2.946   6.131  15.298  1.0020 -0.1241 -1.2115
 1550TIP3   OH226064   1.247   0.633  12.900 -0.2211 -0.2014 -0.1137
 1550TIP3    H126065   1.268   0.639  12.993 -0.5666  1.2241 -0.1166
 1550TIP3    H226066   1.186   0.705  12.885 -2.4394 -2.1459 -0.8288
 1551TIP3   OH226067   4.103   4.658  14.733  0.1116  0.7231 -0.3898
 1551TIP3    H126068   4.117   4.747  14.765  0.1156  0.7900 -0.5772
 1551TIP3    H226069   4.142   4.658  14.645 -0.4386  0.7122 -0.6343
 1552TIP3   OH226070   2.568   5.462   3.285  0.3308  0.3594  0.2173
 1552TIP3    H126071   2.643   5.480   3.229  1.1553 -0.2659  1.1074
 1552TIP3    H226072   2.559   5.366   3.283 -0.0057  0.3783  0.6780
 1553TIP3   OH226073   1.646   2.786   3.534 -0.0010 -0.0931 -0.2113
 1553TIP3    H126074   1.654   2.802   3.440  0.2914 -0.3761 -0.2377
 1553TIP3    H226075   1.603   2.700   3.539 -0.6909  0.2648 -0.0836
 1554TIP3   OH226076   5.001   4.115   5.773  0.1870  0.1963 -0.3852
 1554TIP3    H126077   5.052   4.187   5.809 -2.1201  1.2681  0.7955
 1554TIP3    H226078   5.023   4.040   5.829  0.0112  0.7967  0.4965
 1555TIP3   OH226079   1.870   1.447   2.183  0.3215 -0.1235  0.3497
 1555TIP3    H126080   1.843   1.525   2.135 -2.0579 -1.6063 -0.8361
 1555TIP3    H226081   1.810   1.442   2.257  0.5997 -0.6918  0.5401
 1556TIP3   OH226082   5.717   4.263   4.072 -0.5375 -0.4027  0.3324
 1556TIP3    H126083   5.635   4.300   4.037 -0.1101  0.6017  0.3828
 1556TIP3    H226084   5.782   4.279   4.003 -0.1128 -0.1308  0.7983
 1557TIP3   OH226085   5.750   4.334   1.602  0.7068  0.2224 -0.1080
 1557TIP3    H126086   5.772   4.282   1.524  0.7464  0.7833 -0.4768
 1557TIP3    H226087   5.771   4.277   1.676 -1.3201 -1.1416 -0.5147
 1558TIP3   OH226088   5.753   0.948  11.892  0.4942  0.3318 -0.1217
 1558TIP3    H126089   5.741   1.024  11.836  0.4200  2.1290  2.2441
 1558TIP3    H226090   5.697   0.881  11.855  1.1592  1.1649 -2.6985
 1559TIP3   OH226091   5.041   5.955   4.893 -0.0176 -0.4564  0.2116
 1559TIP3    H126092   4.993   6.028   4.932 -1.6621 -0.3969 -1.8542
 1559TIP3    H226093   5.096   5.922   4.964 -2.0013  0.4276  2.2105
 1560TIP3   OH226094   5.740   5.370  11.730 -0.3150  0.6394  0.1035
 1560TIP3    H126095   5.726   5.386  11.823 -0.3315  0.5731  0.1122
 1560TIP3    H226096   5.737   5.275  11.721 -0.8237  0.6676 -0.0462
 1561TIP3   OH226097   1.097   0.112  11.858 -0.2847  0.4332  0.0289
 1561TIP3    H126098   1.009   0.092  11.827 -0.2410  0.8967 -0.4129
 1561TIP3    H226099   1.155   0.079  11.789 -0.1463  0.7127  0.0106
 1562TIP3   OH226100   3.092   5.926   5.079 -0.2945 -0.1355 -0.2405
 1562TIP3    H126101   3.066   5.879   5.158  0.1384 -1.8588 -1.0956
 1562TIP3    H226102   3.031   5.897   5.011 -0.9931  1.7276 -0.4377
 1563TIP3   OH226103   5.151   1.192  15.068  0.2953 -0.0989 -0.5610
 1563TIP3    H126104   5.064   1.185  15.107  0.4802  0.6198 -0.0241
 1563TIP3    H226105   5.211   1.159  15.135  0.3187 -2.0774 -1.4921
 1564TIP3   OH226106   4.901   4.671  14.536 -0.3273 -0.3379  0.3552
 1564TIP3    H126107   4.930   4.762  14.536 -2.5232  0.3902 -0.3850
 1564TIP3    H226108   4.980   4.621  14.555  1.4131  1.5826 -1.5019
 1565TIP3   OH226109   4.063   0.012  12.665 -0.3471  0.0834 -0.2072
 1565TIP3    H126110   4.002   0.086  12.663 -0.5954 -0.0683  1.2319
 1565TIP3    H226111   4.009  -0.063  12.691 -0.0250 -0.5500 -1.3127
 1566TIP3   OH226112   1.604   2.276  11.628  0.7187 -0.2958 -0.2397
 1566TIP3    H126113   1.677   2.338  11.632 -0.1975  0.9883 -2.3069
 1566TIP3    H226114   1.543   2.306  11.696  0.8548  0.3253 -0.3878
 1567TIP3   OH226115   4.218   4.359  17.084  0.1393 -0.1718 -0.3422
 1567TIP3    H126116   4.252   4.405  17.007  1.1681  0.3164  0.3978
 1567TIP3    H226117   4.294   4.344  17.139 -0.6708 -0.0746  0.8194
 1568TIP3   OH226118   3.047   6.262  15.625 -0.3103  0.2101  0.0804
 1568TIP3    H126119   3.099   6.318  15.566  0.4114 -1.7280 -1.1907
 1568TIP3    H226120   3.104   6.248  15.700  1.3519 -2.4087 -1.5792
 1569TIP3   OH226121   5.823   6.151   0.414  0.3847  0.6329 -0.3113
 1569TIP3    H126122   5.892   6.156   0.348  0.4863 -0.1894 -0.2713
 1569TIP3    H226123   5.861   6.101   0.485 -0.6903 -0.9845 -0.8532
 1570TIP3   OH226124   6.425   3.786   4.381  0.0731 -0.2976 -0.8457
 1570TIP3    H126125   6.350   3.774   4.440  0.3731 -0.3719 -0.4786
 1570TIP3    H226126   6.470   3.863   4.415  0.0297 -0.1109 -1.2098
 1571TIP3   OH226127   2.999   0.656   0.532  0.2025 -0.0203 -0.3659
 1571TIP3    H126128   2.965   0.718   0.468 -0.4868  0.0382  0.0471
 1571TIP3    H226129   3.061   0.603   0.483 -0.5965 -0.2245 -1.1840
 1572TIP3   OH226130   1.685   3.832  10.835 -0.8352  0.2908  0.4287
 1572TIP3    H126131   1.626   3.907  10.836 -0.4791  0.6155 -1.0586
 1572TIP3    H226132   1.631   3.759  10.806 -1.1972 -0.0577  1.9385
 1573TIP3   OH226133   0.239   4.258   1.580  0.1187  0.5816 -0.1539
 1573TIP3    H126134   0.144   4.270   1.573 -0.0114  0.2788  0.9854
 1573TIP3    H226135   0.272   4.340   1.617  0.0698  0.0520  1.1115
 1574TIP3   OH226136   3.036   2.342   0.366  0.5928 -0.8672  0.1079
 1574TIP3    H126137   3.050   2.377   0.278 -0.7511 -1.3138 -0.2966
 1574TIP3    H226138   3.067   2.412   0.424  1.8200 -0.7194 -0.7166
 1575TIP3   OH226139   5.781   3.173   4.247 -0.6193 -0.6443 -0.5711
 1575TIP3    H126140   5.841   3.198   4.318  0.0218  0.0284 -1.3367
 1575TIP3    H226141   5.826   3.101   4.203  0.2323  0.6913 -1.9244
 1576TIP3   OH226142   4.694   1.218  16.669 -0.0643  0.2227  0.2096
 1576TIP3    H126143   4.688   1.154  16.598  0.2976  1.0909 -0.6100
 1576TIP3    H226144   4.641   1.292  16.640 -0.9834  0.0594  1.4211
 1577TIP3   OH226145   6.698   5.707  13.572 -0.5415 -0.2418 -0.0318
 1577TIP3    H126146   6.670   5.780  13.627  3.8331  1.5976 -0.0210
 1577TIP3    H226147   6.685   5.630  13.626 -2.6999  0.8056  0.9891
 1578TIP3   OH226148   2.471   5.784   1.366  0.0921 -0.0458 -0.2443
 1578TIP3    H126149   2.537   5.763   1.432  0.7443  0.5243 -0.7100
 1578TIP3    H226150   2.392   5.801   1.416  0.6839  0.7784  0.4151
 1579TIP3   OH226151   2.950   1.203   1.880 -0.2140  0.7233 -0.0752
 1579TIP3    H126152   2.927   1.296   1.880 -0.1584  0.7373  0.0131
 1579TIP3    H226153   2.900   1.167   1.954 -1.3496  0.4102 -0.9696
 1580TIP3   OH226154   0.872   5.798  15.478  0.2322  0.1067  0.0318
 1580TIP3    H126155   0.843   5.731  15.415  0.5940 -1.0120  1.0345
 1580TIP3    H226156   0.968   5.793  15.475  0.3126  2.0686 -1.4394
 1581TIP3   OH226157   0.930   2.065   2.895 -0.2396 -0.5053 -0.5416
 1581TIP3    H126158   0.905   2.099   2.981 -1.8474 -0.7072 -0.9020
 1581TIP3    H226159   0.962   2.141   2.847 -2.0095  0.1783 -0.6961
 1582TIP3   OH226160   1.473   6.774  16.413  0.0371  0.0371 -0.0075
 1582TIP3    H126161   1.495   6.707  16.478  0.3089  0.7964  0.6881
 1582TIP3    H226162   1.540   6.841  16.424 -0.2239  0.4174 -0.7123
 1583TIP3   OH226163   1.221   5.392   5.434  0.7368  0.0349 -0.7618
 1583TIP3    H126164   1.258   5.479   5.419 -1.5024  0.7806 -2.1099
 1583TIP3    H226165   1.151   5.383   5.370 -0.7932 -1.7259  1.0674
 1584TIP3   OH226166   3.772   2.009   3.772 -0.0249 -0.1623  0.1703
 1584TIP3    H126167   3.774   2.081   3.835  0.3055 -0.4993  0.5499
 1584TIP3    H226168   3.828   1.942   3.811  0.0799 -0.4217 -0.4243
 1585TIP3   OH226169   0.558   4.424   3.268  0.0110 -0.1934  0.0911
 1585TIP3    H126170   0.593   4.450   3.353  0.6464  2.6268 -0.9828
 1585TIP3    H226171   0.618   4.356   3.238  0.6780 -0.1156  1.2168
 1586TIP3   OH226172   3.978   4.718  11.929 -0.5666 -0.0276  0.6150
 1586TIP3    H126173   4.009   4.774  11.858  0.6656 -1.4290  0.0126
 1586TIP3    H226174   3.932   4.777  11.988  0.4397  1.5604 -0.1530
 1587TIP3   OH226175   3.479   4.615  16.407 -0.0836 -0.5455  0.9369
 1587TIP3    H126176   3.544   4.549  16.432 -1.1397 -1.8698  0.2676
 1587TIP3    H226177   3.414   4.567  16.356 -0.8926  1.0190  0.4464
 1588TIP3   OH226178   2.672   5.167   0.186  0.6040  0.1657  0.2250
 1588TIP3    H126179   2.587   5.130   0.211  0.2589  1.5536  1.1623
 1588TIP3    H226180   2.736   5.110   0.229  0.0826  0.5285  1.5148
 1589TIP3   OH226181   5.356   0.398   0.310 -0.5439  0.2214  0.4290
 1589TIP3    H126182   5.376   0.486   0.279 -1.4846  0.0288 -0.7745
 1589TIP3    H226183   5.260   0.395   0.314 -0.4837 -0.2554  1.9427
 1590TIP3   OH226184   5.622   3.232   3.798 -0.0255  0.0055  0.0249
 1590TIP3    H126185   5.647   3.320   3.828  0.6887 -0.0765 -0.3098
 1590TIP3    H226186   5.704   3.183   3.796 -0.6346 -1.1156  1.6393
 1591TIP3   OH226187   6.439   2.468  12.631  0.1411 -0.4843 -0.6358
 1591TIP3    H126188   6.518   2.447  12.581 -0.2204  1.1155 -1.9115
 1591TIP3    H226189   6.471   2.517  12.707  0.6062 -2.1970  0.3167
 1592TIP3   OH226190   3.527   1.345  13.054  0.2564  0.9928  0.0042
 1592TIP3    H126191   3.539   1.256  13.085 -0.8081  0.6033 -0.6448
 1592TIP3    H226192   3.443   1.343  13.007  1.2687  1.8071 -1.9211
 1593TIP3   OH226193   0.204   2.764  12.534 -0.2490 -0.1484 -0.4660
 1593TIP3    H126194   0.215   2.790  12.625  1.0063 -1.1311 -0.3194
 1593TIP3    H226195   0.157   2.837  12.494 -0.7390  0.3256  0.9419
 1594TIP3   OH226196   3.222   2.723  15.991 -0.3468  0.4816 -0.5037
 1594TIP3    H126197   3.136   2.765  15.981 -0.5601  0.3253  0.6201
 1594TIP3    H226198   3.215   2.643  15.939 -0.2743  1.3201 -1.8494
 1595TIP3   OH226199   0.366   3.394  13.791  0.1003 -0.5002 -0.3998
 1595TIP3    H126200   0.326   3.479  13.809 -2.2772 -1.6692  0.2237
 1595TIP3    H226201   0.321   3.363  13.712  0.2116 -1.5711 -0.0550
 1596TIP3   OH226202   3.205   6.525   1.389 -0.0663 -0.2044 -0.3244
 1596TIP3    H126203   3.295   6.549   1.366 -0.2188  0.9786  0.2574
 1596TIP3    H226204   3.158   6.609   1.389 -0.7601 -0.5829  1.1902
 1597TIP3   OH226205   6.214   3.540   4.427  0.0600 -0.4680  0.3445
 1597TIP3    H126206   6.226   3.627   4.465 -0.8614 -0.0654 -0.2620
 1597TIP3    H226207   6.128   3.544   4.386 -0.3134 -1.8909  0.9373
 1598TIP3   OH226208   1.967   0.679   1.110  0.3507 -0.0787  0.2762
 1598TIP3    H126209   1.894   0.737   1.134  0.5720 -0.5276  2.1351
 1598TIP3    H226210   1.926   0.595   1.093  0.5025 -0.5321  2.0976
 1599TIP3   OH226211   5.200   2.688  16.936  0.0259  0.6929 -0.1868
 1599TIP3    H126212   5.267   2.719  16.996  0.1800  0.4186 -0.2179
 1599TIP3    H226213   5.118   2.720  16.973 -0.2493 -2.4972  2.1430
 1600TIP3   OH226214   5.277   0.910  11.167 -0.1197  0.8831  0.7390
 1600TIP3    H126215   5.371   0.895  11.161 -0.1926 -0.1712  1.9728
 1600TIP3    H226216   5.269   0.998  11.205  0.3663  0.7650  1.1137
 1601TIP3   OH226217   6.358   4.944  11.614  0.2456 -0.2785 -0.8785
 1601TIP3    H126218   6.430   5.007  11.612 -1.1404  1.3498 -1.5400
 1601TIP3    H226219   6.400   4.859  11.604  2.1487  0.5658 -0.3299
 1602TIP3   OH226220   6.278   0.664  12.317  0.0283 -0.7546 -0.2226
 1602TIP3    H126221   6.231   0.635  12.239 -1.1601  3.0339 -1.0256
 1602TIP3    H226222   6.355   0.710  12.283  0.2472 -0.2964  0.8659
 1603TIP3   OH226223   2.660   0.334   6.632  0.1900 -0.4145  0.3427
 1603TIP3    H126224   2.628   0.309   6.546 -1.4591 -2.2732  1.4515
 1603TIP3    H226225   2.682   0.427   6.624 -2.7913  0.2103 -1.2525
 1604TIP3   OH226226   1.558   2.429   1.321  0.2819  0.1375  0.3405
 1604TIP3    H126227   1.513   2.366   1.264  0.5737 -1.2344  1.5769
 1604TIP3    H226228   1.635   2.381   1.352  2.1526  2.1690 -1.0742
 1605TIP3   OH226229   1.825   6.443  12.767  0.5297  0.4514  0.7845
 1605TIP3    H126230   1.745   6.392  12.779  1.0525 -0.3934  0.7325
 1605TIP3    H226231   1.829   6.459  12.672  0.7760 -0.1012  0.6971
 1606TIP3   OH226232   6.010   3.112  11.311  0.4097 -0.2987 -0.4865
 1606TIP3    H126233   5.970   3.094  11.226  2.4462  0.3515 -1.6054
 1606TIP3    H226234   6.077   3.044  11.322  0.3207 -0.2418  0.5077
 1607TIP3   OH226235   4.355   1.573   2.833  0.4568  0.0665 -0.9078
 1607TIP3    H126236   4.337   1.645   2.892  1.0011 -1.8394  1.6678
 1607TIP3    H226237   4.297   1.502   2.862  1.5566 -1.2855 -1.9213
 1608TIP3   OH226238   1.978   4.573  12.258  0.0577 -0.1791  0.5326
 1608TIP3    H126239   1.957   4.637  12.191 -0.2669  0.1212  0.9218
 1608TIP3    H226240   2.073   4.579  12.268  0.3175 -1.2993 -0.9840
 1609TIP3   OH226241   4.813   5.114   4.911  0.0136 -0.1119 -0.0533
 1609TIP3    H126242   4.881   5.131   4.846 -0.0329 -0.0650 -0.0906
 1609TIP3    H226243   4.855   5.133   4.995  1.1558 -3.6282  0.2166
 1610TIP3   OH226244   2.935   1.700   4.190  0.4567 -0.0603 -0.3158
 1610TIP3    H126245   2.974   1.765   4.132  1.7437 -0.7100 -0.1969
 1610TIP3    H226246   2.843   1.725   4.195  0.3661  0.1496 -2.4486
 1611TIP3   OH226247   4.677   0.084   2.254 -0.1579 -0.2666 -0.0946
 1611TIP3    H126248   4.620   0.036   2.313 -0.4277 -0.9864 -0.9270
 1611TIP3    H226249   4.731   0.017   2.213  0.7659  0.3317  0.1235
 1612TIP3   OH226250   4.449   6.250   5.050 -0.1159 -0.2717 -0.2963
 1612TIP3    H126251   4.377   6.189   5.067  1.1013 -2.0253 -1.3479
 1612TIP3    H226252   4.503   6.246   5.129  0.8183 -1.7743 -1.0024
 1613TIP3   OH226253   0.712   3.489   5.920 -0.2345 -0.3476  0.2938
 1613TIP3    H126254   0.742   3.559   5.979 -0.5139 -0.1184  0.1656
 1613TIP3    H226255   0.675   3.422   5.977 -0.3467 -0.2039  0.3896
 1614TIP3   OH226256   5.133   3.921   3.421 -0.2362 -0.1004 -0.2721
 1614TIP3    H126257   5.209   3.874   3.453 -0.4454 -0.2814 -0.0433
 1614TIP3    H226258   5.111   3.983   3.491 -0.4490 -0.2180 -0.2347
 1615TIP3   OH226259   2.287   6.692  15.379  0.0866 -0.6769  0.0910
 1615TIP3    H126260   2.268   6.667  15.469  0.4544 -0.1230  0.3278
 1615TIP3    H226261   2.242   6.626  15.325 -1.2619 -0.2191  0.6482
 1616TIP3   OH226262   2.429   6.430   5.665  0.4583 -0.3687  0.3405
 1616TIP3    H126263   2.361   6.369   5.694 -0.1762  0.1189 -0.0953
 1616TIP3    H226264   2.385   6.487   5.602  0.6144  1.5884  1.9433
 1617TIP3   OH226265   4.661   0.338  13.290  0.3187  0.4446  0.1266
 1617TIP3    H126266   4.749   0.308  13.266  1.7399  2.9027  2.1535
 1617TIP3    H226267   4.637   0.285  13.366  0.4514  0.4788  0.1901
 1618TIP3   OH226268   5.535   4.616  15.714 -0.3498 -0.2300 -0.4122
 1618TIP3    H126269   5.509   4.667  15.637 -0.3159  1.4306  0.6364
 1618TIP3    H226270   5.537   4.526  15.684 -0.1771  0.4101 -2.4042
 1619TIP3   OH226271   4.626   4.366  16.932 -0.6733 -0.3953  0.1190
 1619TIP3    H126272   4.660   4.352  16.844 -1.1800 -1.4675  0.0843
 1619TIP3    H226273   4.568   4.292  16.947  1.3487 -1.6020  2.3213
 1620TIP3   OH226274   0.360   0.689  15.601  0.2882  0.9866  0.2374
 1620TIP3    H126275   0.406   0.742  15.537  0.6540  0.6266  0.2058
 1620TIP3    H226276   0.357   0.744  15.680  0.5582  1.1052  0.1654
 1621TIP3   OH226277   2.822   2.414   5.719  0.5770  0.1010 -0.1535
 1621TIP3    H126278   2.900   2.404   5.774 -0.5582  1.1270  1.7006
 1621TIP3    H226279   2.783   2.326   5.717 -0.6387  0.5090  2.7118
 1622TIP3   OH226280   2.568   2.041   1.445 -0.2326  0.5086 -0.0186
 1622TIP3    H126281   2.531   1.958   1.413 -0.8432 -0.0569  2.0665
 1622TIP3    H226282   2.550   2.040   1.539  0.6857  2.5472  0.1951
 1623TIP3   OH226283   5.180   6.322   0.628  0.0068 -0.2542 -1.2055
 1623TIP3    H126284   5.154   6.370   0.707  0.2310 -0.7563 -0.8207
 1623TIP3    H226285   5.126   6.360   0.558  2.9607  3.3255 -1.6959
 1624TIP3   OH226286   4.784   2.955  14.933 -0.1856 -0.1828 -0.4224
 1624TIP3    H126287   4.871   2.933  14.898  0.8315  1.1525  1.1525
 1624TIP3    H226288   4.740   3.001  14.862 -0.0433 -1.8680 -1.6336
 1625TIP3   OH226289   0.621   0.635  12.157  0.2822 -0.0375 -0.1358
 1625TIP3    H126290   0.596   0.550  12.122  1.0249 -1.1912  2.0188
 1625TIP3    H226291   0.537   0.679  12.174 -0.1003 -0.1818 -1.5971
 1626TIP3   OH226292   0.861   0.822  11.182 -0.2048  0.0010  0.1146
 1626TIP3    H126293   0.929   0.875  11.222 -1.1844  1.9241 -0.6761
 1626TIP3    H226294   0.861   0.848  11.090 -0.0129 -2.1479 -0.5342
 1627TIP3   OH226295   0.729   5.372  11.396 -0.1727  0.4559 -0.1203
 1627TIP3    H126296   0.652   5.399  11.345  0.4145  0.4903 -0.9932
 1627TIP3    H226297   0.702   5.290  11.437 -0.7138  0.5191 -0.3423
 1628TIP3   OH226298   3.546   2.587   0.847 -0.4031 -0.2030 -0.5355
 1628TIP3    H126299   3.579   2.506   0.885 -0.1616  0.0952 -0.1102
 1628TIP3    H226300   3.618   2.621   0.793 -0.3200 -0.0021 -0.2991
 1629TIP3   OH226301   5.413   0.236   1.858  0.4146  0.6187 -0.8460
 1629TIP3    H126302   5.369   0.227   1.773 -1.8785 -0.6215  0.4298
 1629TIP3    H226303   5.354   0.291   1.910 -0.5027 -2.3426  1.4014
 1630TIP3   OH226304   2.579   3.616   6.377 -0.1284  0.5823 -0.7434
 1630TIP3    H126305   2.632   3.692   6.354  0.8077 -0.2167 -1.2713
 1630TIP3    H226306   2.533   3.643   6.457  2.0132  0.8727  0.4307
 1631TIP3   OH226307   5.833   1.942  13.305  0.0294 -0.4514  0.4177
 1631TIP3    H126308   5.786   1.980  13.231 -0.4347  1.6104  1.7199
 1631TIP3    H226309   5.894   1.880  13.266 -1.9123 -1.2327 -1.5027
 1632TIP3   OH226310   4.293   0.788   4.931 -0.5164 -0.2561  0.1647
 1632TIP3    H126311   4.209   0.770   4.975  0.0279 -0.0679  1.3139
 1632TIP3    H226312   4.328   0.702   4.910 -0.1868 -0.3932  1.2606
 1633TIP3   OH226313   1.794   1.618   5.732 -0.4974 -0.3402 -0.2695
 1633TIP3    H126314   1.828   1.590   5.646 -0.4308  0.5666 -0.5400
 1633TIP3    H226315   1.829   1.706   5.744 -1.0049 -0.2337  0.4204
 1634TIP3   OH226316   4.620   4.648   5.502 -0.5865 -0.5702  0.4138
 1634TIP3    H126317   4.533   4.612   5.485 -1.3862  1.3193  0.3115
 1634TIP3    H226318   4.604   4.717   5.567  0.9553 -0.7738  1.0068
 1635TIP3   OH226319   3.236   6.780  14.597 -0.0522 -0.1931 -0.1723
 1635TIP3    H126320   3.219   6.690  14.568 -2.3457  0.3383 -0.5892
 1635TIP3    H226321   3.153   6.809  14.634  1.5554  0.6913  2.9056
 1636TIP3   OH226322   3.285   0.310   7.135  0.7097 -0.0908 -0.6043
 1636TIP3    H126323   3.375   0.344   7.138  0.5345  0.3183  0.7551
 1636TIP3    H226324   3.295   0.216   7.122  1.4001 -0.2360  0.8220
 1637TIP3   OH226325   5.893   1.979  11.672 -0.3669 -0.3194  0.2359
 1637TIP3    H126326   5.818   1.968  11.730  0.2744  0.5312  1.2642
 1637TIP3    H226327   5.939   2.056  11.707  0.7162 -0.5443 -0.6552
 1638TIP3   OH226328   6.021   0.201   3.346  0.5796 -0.4118  0.1887
 1638TIP3    H126329   5.984   0.289   3.341  1.7686  0.0706 -0.3999
 1638TIP3    H226330   6.114   0.214   3.327  0.9653 -1.6456  1.1953
 1639TIP3   OH226331   6.117   0.095   5.999  0.0377  0.2286 -0.2257
 1639TIP3    H126332   6.050   0.027   6.014  0.5644 -0.7194 -1.9782
 1639TIP3    H226333   6.083   0.145   5.924  0.8554  0.3052 -0.5462
 1640TIP3   OH226334   4.463   4.274   2.796 -0.1182  0.2138 -0.2166
 1640TIP3    H126335   4.435   4.344   2.737 -2.1075  0.0181  0.4597
 1640TIP3    H226336   4.402   4.279   2.870  0.5267 -1.4084  0.4446
 1641TIP3   OH226337   1.516   3.585  14.009  0.0821 -0.1250  0.3007
 1641TIP3    H126338   1.544   3.494  14.017 -0.1384 -0.0689  1.8993
 1641TIP3    H226339   1.597   3.636  14.011  0.1652 -0.2525  0.1246
 1642TIP3   OH226340   1.361   6.193   6.037  0.0026  0.6417 -0.2971
 1642TIP3    H126341   1.372   6.280   6.073  0.3327  0.2012  0.6798
 1642TIP3    H226342   1.412   6.136   6.094 -0.8769 -0.3063 -0.4269
 1643TIP3   OH226343   3.843   0.620  14.864  0.3658 -0.1149 -0.0359
 1643TIP3    H126344   3.841   0.600  14.958  1.8594  0.2552  0.0955
 1643TIP3    H226345   3.935   0.643  14.847 -0.0237  0.4311 -1.4562
 1644TIP3   OH226346   1.865   3.253   3.081 -0.2149  0.5286 -0.3923
 1644TIP3    H126347   1.857   3.171   3.130 -0.6127  0.2162 -0.9667
 1644TIP3    H226348   1.775   3.283   3.070 -0.0487  1.2082  0.0901
 1645TIP3   OH226349   4.465   3.902   0.656 -0.7147 -0.3457 -0.2758
 1645TIP3    H126350   4.385   3.917   0.706  0.0560 -0.5009  1.0254
 1645TIP3    H226351   4.482   3.808   0.663  0.5732 -0.0350  1.0095
 1646TIP3   OH226352   3.105   0.941  13.979  0.2204  0.3135 -0.1635
 1646TIP3    H126353   3.129   0.868  13.923  0.5244 -0.3015  0.7644
 1646TIP3    H226354   3.153   1.016  13.943 -1.6417  0.5069 -2.3348
 1647TIP3   OH226355   5.926   6.092   4.296  0.2688  0.5546 -0.4582
 1647TIP3    H126356   5.993   6.142   4.342  1.0372  0.0390 -0.9947
 1647TIP3    H226357   5.850   6.150   4.293 -0.1997  0.1692  2.4754
 1648TIP3   OH226358   6.443   3.618   1.133  0.5226  0.0179  0.5443
 1648TIP3    H126359   6.502   3.692   1.124  0.6168 -0.3931 -2.8528
 1648TIP3    H226360   6.501   3.542   1.143  0.6290 -0.3067 -2.1600
 1649TIP3   OH226361   3.647   2.619  15.028  0.3084 -0.3637  0.2783
 1649TIP3    H126362   3.555   2.646  15.033  0.5166  0.0817  1.9905
 1649TIP3    H226363   3.647   2.529  15.058  0.5388 -0.1194  1.0038
 1650TIP3   OH226364   1.825   5.243   0.888  0.1573  0.3861 -0.4044
 1650TIP3    H126365   1.902   5.241   0.945 -0.6683  0.8643  0.7420
 1650TIP3    H226366   1.764   5.302   0.932 -0.8748 -0.0106 -1.2863
 1651TIP3   OH226367   3.222   0.113  11.976  0.4646  0.0644 -0.1271
 1651TIP3    H126368   3.149   0.132  12.035  1.7429  0.0779  1.4756
 1651TIP3    H226369   3.211   0.021  11.953 -0.4768  0.2637 -0.4994
 1652TIP3   OH226370   0.929   3.557   5.661 -0.0551 -0.1524  0.0442
 1652TIP3    H126371   0.894   3.537   5.574 -0.3345  0.2138  0.0714
 1652TIP3    H226372   0.860   3.608   5.703 -1.2177 -2.8330  1.5617
 1653TIP3   OH226373   5.834   5.904   3.053  0.2892 -0.9536  0.0455
 1653TIP3    H126374   5.851   5.811   3.068  1.1260 -1.0537 -1.4337
 1653TIP3    H226375   5.762   5.906   2.989  0.2295 -0.5782  0.1189
 1654TIP3   OH226376   0.517   2.159   1.745 -0.0101  0.4136 -0.0841
 1654TIP3    H126377   0.427   2.139   1.719 -0.6763  2.4337  0.5267
 1654TIP3    H226378   0.516   2.151   1.840 -0.3211  3.1609  0.1976
 1655TIP3   OH226379   1.862   0.043  11.978 -0.1571 -0.5765 -0.0462
 1655TIP3    H126380   1.771   0.046  12.008 -0.5456 -0.4210 -1.2415
 1655TIP3    H226381   1.858   0.011  11.888  0.9565 -0.4144 -0.1695
 1656TIP3   OH226382   5.436   1.251  14.561  0.3631  0.2385 -0.4919
 1656TIP3    H126383   5.432   1.331  14.509 -0.7422  0.0725 -0.6689
 1656TIP3    H226384   5.478   1.187  14.504  0.9094  0.5898 -0.4863
 1657TIP3   OH226385   0.006   1.726   0.913 -0.5972  0.5563  0.3421
 1657TIP3    H126386   0.044   1.811   0.937  0.5156  0.0767  0.2766
 1657TIP3    H226387  -0.073   1.720   0.966  0.3802  0.7436  1.8247
 1658TIP3   OH226388   4.534   1.126   0.615  0.4186 -0.5555 -0.5562
 1658TIP3    H126389   4.523   1.203   0.559  1.1384 -0.1925 -0.1924
 1658TIP3    H226390   4.450   1.117   0.660  1.4169  2.0092  1.9359
 1659TIP3   OH226391   0.770   1.323   1.579  0.3308  0.0100  0.4387
 1659TIP3    H126392   0.720   1.267   1.519  0.1788  0.2318  0.3571
 1659TIP3    H226393   0.850   1.273   1.598  0.9535  0.4901 -0.9237
 1660TIP3   OH226394   0.001   2.100   6.007  0.2193  0.0529 -0.1866
 1660TIP3    H126395  -0.092   2.113   5.986 -0.1790 -0.0089  1.4955
 1660TIP3    H226396   0.020   2.166   6.074  1.5569  0.4750 -0.9553
 1661TIP3   OH226397   1.432   5.073  12.976  0.3273  0.1100 -0.8929
 1661TIP3    H126398   1.350   5.105  12.940 -0.4739 -1.6722 -0.7137
 1661TIP3    H226399   1.412   5.052  13.067  0.6816 -1.3865 -1.1461
 1662TIP3   OH226400   1.160   4.326  15.572 -0.1559 -0.0310 -0.5367
 1662TIP3    H126401   1.088   4.340  15.510 -0.8693 -0.0796  0.2622
 1662TIP3    H226402   1.130   4.254  15.628 -0.8282  1.9372  1.7373
 1663TIP3   OH226403   4.706   3.667   2.253 -0.1126  0.4820  0.3190
 1663TIP3    H126404   4.628   3.630   2.294  1.2327  0.2335  2.7471
 1663TIP3    H226405   4.762   3.591   2.236  0.7853  0.9220  1.2374
 1664TIP3   OH226406   0.984   1.711  13.051  0.2490  0.2712  0.1899
 1664TIP3    H126407   1.036   1.690  12.974 -0.5448 -0.2700 -0.2093
 1664TIP3    H226408   0.913   1.766  13.017 -1.5328 -2.0367  0.0977
 1665TIP3   OH226409   4.184   2.953   2.900 -0.1576  0.0123 -0.3842
 1665TIP3    H126410   4.152   2.911   2.979  1.1963  0.0024  0.1737
 1665TIP3    H226411   4.105   2.976   2.851 -0.9413 -1.9306 -0.0559
 1666TIP3   OH226412   0.496   4.756  16.622  0.3504  0.4045 -0.1949
 1666TIP3    H126413   0.556   4.799  16.684  2.0433 -0.3042 -1.3287
 1666TIP3    H226414   0.518   4.663  16.629 -1.8360 -0.0794  0.6569
 1667TIP3   OH226415   1.953   4.301   5.835 -0.1569  0.3229 -0.0966
 1667TIP3    H126416   1.865   4.263   5.846 -0.1994  0.7093  0.9769
 1667TIP3    H226417   1.987   4.260   5.756 -2.4651  2.4022 -2.2582
 1668TIP3   OH226418   4.025   6.568   5.157  0.2011  0.1360  0.3250
 1668TIP3    H126419   3.952   6.540   5.213 -0.6509  0.0796 -0.7931
 1668TIP3    H226420   4.036   6.496   5.095  1.0752  0.2417  0.3568
 1669TIP3   OH226421   0.118   1.634  12.614  0.1625  0.4118  0.2627
 1669TIP3    H126422   0.119   1.625  12.709 -1.0962  0.3793  0.2858
 1669TIP3    H226423   0.056   1.705  12.597 -0.9127 -0.7007 -0.5996
 1670TIP3   OH226424   6.102   3.198  15.561  0.0482  0.1456 -0.0074
 1670TIP3    H126425   6.159   3.133  15.603  0.7002 -1.0391 -2.6130
 1670TIP3    H226426   6.061   3.150  15.489 -1.6384  1.9065 -0.2457
 1671TIP3   OH226427   6.170   2.514   2.914  0.2087 -0.0746  0.6440
 1671TIP3    H126428   6.263   2.493   2.921  0.2045 -0.3039  0.0265
 1671TIP3    H226429   6.163   2.601   2.953  0.9758  0.6825 -0.8479
 1672TIP3   OH226430   6.584   0.733  14.608 -0.0898  0.3572  0.0201
 1672TIP3    H126431   6.612   0.816  14.568 -0.6236  0.7929  0.5300
 1672TIP3    H226432   6.588   0.751  14.702 -1.9981  0.4058  0.1120
 1673TIP3   OH226433   0.042   5.709  14.717  0.5566 -1.0876 -0.4685
 1673TIP3    H126434   0.006   5.627  14.750  0.5910 -2.1011 -2.8854
 1673TIP3    H226435   0.002   5.720  14.631  1.5235  0.7837 -0.7013
 1674TIP3   OH226436   4.766   1.134   4.892  0.5205  0.1873 -0.1155
 1674TIP3    H126437   4.856   1.156   4.915  0.4542 -0.1145  0.4549
 1674TIP3    H226438   4.715   1.154   4.971  0.3224 -1.0508  0.0829
 1675TIP3   OH226439   2.166   4.581   4.481  0.5182 -0.0253  0.2821
 1675TIP3    H126440   2.157   4.488   4.501 -0.1100  0.0956  0.5782
 1675TIP3    H226441   2.237   4.612   4.537  2.7715 -0.9647 -1.9437
 1676TIP3   OH226442   3.477   2.353  13.565 -0.9818  0.2848 -0.5152
 1676TIP3    H126443   3.491   2.363  13.659 -1.5880 -0.3020 -0.3629
 1676TIP3    H226444   3.490   2.441  13.530  0.8509  0.2086 -0.0888
 1677TIP3   OH226445   3.801   6.098  11.163 -0.0304 -0.7531 -0.8394
 1677TIP3    H126446   3.887   6.073  11.198  0.2163  0.1314 -0.8071
 1677TIP3    H226447   3.821   6.150  11.085 -0.5287 -0.3054 -0.6698
 1678TIP3   OH226448   5.447   4.325   3.717 -0.3942 -0.1072 -0.0495
 1678TIP3    H126449   5.435   4.418   3.736 -1.3149 -0.0533 -0.8529
 1678TIP3    H226450   5.526   4.322   3.662  0.6493  0.0122  1.4195
 1679TIP3   OH226451   4.517   6.783  13.612 -0.2873  0.1662 -0.3123
 1679TIP3    H126452   4.468   6.858  13.579  0.7371  1.2518  0.5701
 1679TIP3    H226453   4.459   6.743  13.677 -1.2134 -0.3712 -1.4550
 1680TIP3   OH226454   3.757   1.794   3.988  0.7812  0.0596 -0.0671
 1680TIP3    H126455   3.661   1.795   3.994  0.7445 -0.1562 -0.6039
 1680TIP3    H226456   3.786   1.843   4.065  0.2301  0.4239 -0.0862
 1681TIP3   OH226457   2.732   1.593   5.114 -0.1911  0.4878 -0.5950
 1681TIP3    H126458   2.770   1.513   5.079 -2.0268 -1.9044  2.5894
 1681TIP3    H226459   2.765   1.599   5.204 -1.1631  2.5453 -0.3259
 1682TIP3   OH226460   4.806   1.439  12.978  0.5935  0.2779  0.7157
 1682TIP3    H126461   4.811   1.344  12.988  1.3009  0.3373  0.9487
 1682TIP3    H226462   4.828   1.455  12.887  0.8675  0.2501  0.7775
 1683TIP3   OH226463   3.379   0.930   5.750  0.1479  0.0138  0.1611
 1683TIP3    H126464   3.392   0.993   5.821 -1.3776  0.8413 -0.2863
 1683TIP3    H226465   3.468   0.910   5.719  0.9034 -0.9368  2.7803
 1684TIP3   OH226466   4.246   1.119   0.685  0.0454  0.0985 -0.1096
 1684TIP3    H126467   4.278   1.047   0.740  1.2718  1.2446  0.7093
 1684TIP3    H226468   4.165   1.085   0.646 -0.1228 -1.2229  1.3300
 1685TIP3   OH226469   0.335   1.223   4.292 -0.7386  0.3871  0.6619
 1685TIP3    H126470   0.427   1.246   4.308  0.4173 -1.3961 -2.8435
 1685TIP3    H226471   0.295   1.304   4.263  0.0370  0.8922  0.9704
 1686TIP3   OH226472   4.529   4.140   2.426  0.3325  0.5467 -0.0809
 1686TIP3    H126473   4.616   4.157   2.464 -0.7727 -1.2185  3.4580
 1686TIP3    H226474   4.478   4.217   2.450  0.3893  0.6960 -0.4403
 1687TIP3   OH226475   4.640   1.839  12.900  0.3859 -0.0789  0.6119
 1687TIP3    H126476   4.574   1.781  12.939 -1.3388  1.8009  0.5848
 1687TIP3    H226477   4.674   1.890  12.974 -0.9167  1.5663  0.1107
 1688TIP3   OH226478   3.125   0.585  14.916 -0.2876 -0.1775 -0.7275
 1688TIP3    H126479   3.138   0.494  14.944 -2.1081 -0.4594 -0.7070
 1688TIP3    H226480   3.042   0.611  14.957  0.2852  1.5408 -0.6252
 1689TIP3   OH226481   0.628   5.639   6.187  0.3087  0.0361  0.6046
 1689TIP3    H126482   0.600   5.650   6.096 -0.2014  0.5301  0.8133
 1689TIP3    H226483   0.701   5.578   6.182  0.2392 -0.0023 -0.1310
 1690TIP3   OH226484   4.774   4.821   1.529 -0.3424 -0.1414 -0.5793
 1690TIP3    H126485   4.791   4.810   1.623 -0.9340 -1.8099 -0.6630
 1690TIP3    H226486   4.710   4.753   1.508  0.7233 -0.5964 -2.4444
 1691TIP3   OH226487   4.547   0.799  11.340  0.1935  1.1765  0.1214
 1691TIP3    H126488   4.580   0.787  11.429  1.8922 -0.8893 -0.7533
 1691TIP3    H226489   4.613   0.852  11.296 -0.4716  1.8981 -0.0200
 1692TIP3   OH226490   3.823   3.960  15.786  0.1777  0.3547  0.6433
 1692TIP3    H126491   3.818   3.902  15.861  2.2530 -0.1571  0.4196
 1692TIP3    H226492   3.844   4.046  15.822  2.9834 -0.2454  0.5705
 1693TIP3   OH226493   4.503   5.009   2.382 -0.2432 -0.4886 -0.6429
 1693TIP3    H126494   4.469   5.098   2.373 -1.0070 -0.8898 -1.8368
 1693TIP3    H226495   4.446   4.967   2.447 -0.1070 -0.2243 -0.3524
 1694TIP3   OH226496   1.404   6.787  11.656 -0.1603 -0.0841 -0.5282
 1694TIP3    H126497   1.354   6.716  11.696  0.2402 -0.2848 -0.3737
 1694TIP3    H226498   1.474   6.742  11.607 -0.0855  0.1914 -0.6753
 1695TIP3   OH226499   1.098   4.013   2.883 -0.6420 -0.4918  0.3355
 1695TIP3    H126500   1.048   4.004   2.802  0.4801  0.5535 -0.5110
 1695TIP3    H226501   1.121   3.924   2.908  0.2541 -0.7578 -1.3290
 1696TIP3   OH226502   2.278   3.843   0.017 -0.2160 -0.0955 -0.3109
 1696TIP3    H126503   2.325   3.775   0.065  1.6335 -0.5189 -2.5900
 1696TIP3    H226504   2.343   3.912   0.004 -1.3707  1.0433 -0.1548
 1697TIP3   OH226505   3.600   3.439   5.252 -0.0804 -0.0368 -0.3208
 1697TIP3    H126506   3.513   3.435   5.291 -0.4920  1.5309 -1.0395
 1697TIP3    H226507   3.587   3.409   5.162 -0.1481  1.4030 -0.8141
 1698TIP3   OH226508   4.628   0.411  13.848 -0.1803  0.0609  0.5837
 1698TIP3    H126509   4.535   0.422  13.867  0.2375  1.5362  1.8939
 1698TIP3    H226510   4.656   0.497  13.815  1.4600  0.7464  3.5743
 1699TIP3   OH226511   3.203   3.620  13.513 -0.1386 -0.2645  0.7913
 1699TIP3    H126512   3.268   3.596  13.447 -0.6059 -1.8370  0.8672
 1699TIP3    H226513   3.215   3.555  13.582 -1.7738 -0.5632  0.8068
 1700TIP3   OH226514   0.800   1.484   6.361  0.5697 -0.1053 -0.0296
 1700TIP3    H126515   0.871   1.548   6.354 -0.0100  0.3803 -1.6572
 1700TIP3    H226516   0.842   1.401   6.339  1.1375 -0.1681  1.2603
 1701TIP3   OH226517   3.289   4.674   4.649  0.0216  0.5096 -0.2387
 1701TIP3    H126518   3.256   4.621   4.576 -2.1610  0.1781  0.9217
 1701TIP3    H226519   3.285   4.614   4.724  2.1595  0.8679  0.1869
 1702TIP3   OH226520   2.263   6.485  17.202 -0.2594 -0.3051 -0.5201
 1702TIP3    H126521   2.184   6.513  17.249  0.5173  0.3543  0.4135
 1702TIP3    H226522   2.293   6.407  17.249  0.9044  0.7521  0.5255
 1703TIP3   OH226523   6.328   1.033   1.359 -0.0283  0.8541  0.0948
 1703TIP3    H126524   6.294   0.983   1.285  1.8419 -0.2117 -0.0959
 1703TIP3    H226525   6.303   1.123   1.342  0.0925  0.5658 -1.6619
 1704TIP3   OH226526   0.524   3.450  14.782 -0.2848  0.0452  0.5462
 1704TIP3    H126527   0.549   3.537  14.812 -0.0089  0.5224 -1.0317
 1704TIP3    H226528   0.583   3.390  14.828  0.9394  0.8499  0.0384
 1705TIP3   OH226529   2.850   3.270   6.001  0.0963 -0.1975  0.8331
 1705TIP3    H126530   2.859   3.321   6.081 -0.6635  0.1918  0.6719
 1705TIP3    H226531   2.877   3.330   5.931  2.3200 -1.0457  0.9338
 1706TIP3   OH226532   4.500   5.336  10.577 -0.2573 -0.7568  0.4118
 1706TIP3    H126533   4.504   5.275  10.650 -2.7841 -0.7736  0.5850
 1706TIP3    H226534   4.567   5.401  10.596  2.5602 -3.4833  0.1656
 1707TIP3   OH226535   2.669   2.261  10.847  0.1654 -0.5089  0.3948
 1707TIP3    H126536   2.758   2.294  10.862  0.5578 -1.8509  1.1476
 1707TIP3    H226537   2.651   2.208  10.925 -1.7354  0.6651  0.7779
 1708TIP3   OH226538   6.069   2.762   2.117 -0.1291  0.1597 -0.4642
 1708TIP3    H126539   6.113   2.842   2.148  0.8838 -0.4376 -0.3429
 1708TIP3    H226540   6.064   2.773   2.022  1.9195 -0.5472 -0.6975
 1709TIP3   OH226541   2.201   3.908  16.547 -0.4745  0.0058 -0.0304
 1709TIP3    H126542   2.296   3.901  16.547 -0.4999 -0.4471  1.2630
 1709TIP3    H226543   2.171   3.827  16.590 -1.4722 -0.2232 -1.1215
 1710TIP3   OH226544   0.500   5.874  14.570  0.7172  0.4081  0.3584
 1710TIP3    H126545   0.430   5.901  14.630  3.3125  2.7263  2.4706
 1710TIP3    H226546   0.507   5.946  14.508 -0.8086 -1.2312 -1.7851
 1711TIP3   OH226547   3.105   6.318  11.509  0.7711  0.5685  0.2246
 1711TIP3    H126548   3.088   6.248  11.573 -2.5321  1.4735  0.4445
 1711TIP3    H226549   3.142   6.273  11.433 -1.8212 -1.5818  0.1540
 1712TIP3   OH226550   6.087   4.443   1.513  0.4282  0.7689  0.2801
 1712TIP3    H126551   6.000   4.421   1.545 -0.4976  0.8756 -2.0884
 1712TIP3    H226552   6.126   4.495   1.583 -1.7093  1.4070  1.0312
 1713TIP3   OH226553   0.459   6.119   5.842  0.0255  0.4330  0.0484
 1713TIP3    H126554   0.408   6.174   5.902 -0.1405 -0.3801  0.6597
 1713TIP3    H226555   0.538   6.171   5.825 -0.3568  1.0813  0.2151
 1714TIP3   OH226556   6.619   1.851  13.247 -0.5001 -0.5904 -0.0717
 1714TIP3    H126557   6.704   1.807  13.247 -0.3572 -0.3409  0.9932
 1714TIP3    H226558   6.566   1.802  13.184 -0.2080 -2.0033  0.7548
 1715TIP3   OH226559   2.477   1.560   1.923 -0.9513  0.2422 -0.8380
 1715TIP3    H126560   2.506   1.629   1.862 -1.0809  1.0892  0.0435
 1715TIP3    H226561   2.464   1.606   2.006 -2.2323 -0.6211 -0.5465
 1716TIP3   OH226562   2.914   6.314   5.954  0.1818 -0.6316 -0.2029
 1716TIP3    H126563   2.933   6.231   5.909  0.3187 -1.4659  1.3524
 1716TIP3    H226564   3.000   6.345   5.982  0.1155 -0.0117 -0.6740
 1717TIP3   OH226565   4.866   2.656   3.496  0.5981  0.0032  0.2134
 1717TIP3    H126566   4.876   2.666   3.401  1.3135 -0.4552  0.2288
 1717TIP3    H226567   4.953   2.628   3.525  0.3921  0.1973  1.0115
 1718TIP3   OH226568   5.772   5.742  12.313  0.0688 -0.3369  0.5236
 1718TIP3    H126569   5.757   5.672  12.377  1.2571  0.0580  1.2472
 1718TIP3    H226570   5.866   5.760  12.319  0.6085 -1.6637 -2.7468
 1719TIP3   OH226571   4.330   2.269   1.462  0.3918  0.2861 -0.6919
 1719TIP3    H126572   4.274   2.329   1.413  1.6615  1.1889 -1.0424
 1719TIP3    H226573   4.275   2.240   1.535 -0.3551  1.6061 -0.7075
 1720TIP3   OH226574   5.811   2.366   1.261 -0.3636  0.7501  0.2145
 1720TIP3    H126575   5.864   2.424   1.316  1.3198 -1.1592  0.6665
 1720TIP3    H226576   5.773   2.424   1.195  3.1145  2.0596 -0.7571
 1721TIP3   OH226577   1.447   1.462   3.767 -0.2922  0.3171  0.0637
 1721TIP3    H126578   1.449   1.475   3.672 -0.6869  2.9328  0.3790
 1721TIP3    H226579   1.405   1.377   3.778 -0.1463 -0.0762 -2.1045
 1722TIP3   OH226580   5.276   6.591  14.162 -0.3180  0.3208  0.2504
 1722TIP3    H126581   5.218   6.667  14.160  1.2125  1.5475  1.0188
 1722TIP3    H226582   5.266   6.556  14.251 -0.6032 -0.0403  0.0750
 1723TIP3   OH226583   1.653   3.504  16.205 -0.1663 -0.3390 -0.5381
 1723TIP3    H126584   1.703   3.565  16.152  0.4337 -0.2712  0.0978
 1723TIP3    H226585   1.614   3.443  16.143 -1.0816  0.9083 -1.2252
 1724TIP3   OH226586   2.858   0.945   4.611  0.1907  0.1211  0.2332
 1724TIP3    H126587   2.808   0.873   4.572 -0.7584  0.4846  0.7434
 1724TIP3    H226588   2.805   1.023   4.593  1.6352  0.8328 -1.0791
 1725TIP3   OH226589   1.763   6.042  14.730  0.1173 -0.2263  0.1792
 1725TIP3    H126590   1.844   6.028  14.682 -1.8526 -2.1833 -2.6872
 1725TIP3    H226591   1.779   6.001  14.816  2.3653  0.0334 -0.0849
 1726TIP3   OH226592   4.791   0.174   4.805 -0.2959 -0.4696  0.1775
 1726TIP3    H126593   4.857   0.185   4.873 -0.4926 -2.0259  0.6530
 1726TIP3    H226594   4.762   0.262   4.784  1.0195  0.1321  0.8744
 1727TIP3   OH226595   1.064   6.351  16.163  0.2377  0.6016 -0.3630
 1727TIP3    H126596   1.130   6.307  16.216 -0.2010  0.7922  0.3510
 1727TIP3    H226597   1.070   6.443  16.188 -1.5490  0.3572  1.0746
 1728TIP3   OH226598   1.230   2.118   5.129 -0.0715  0.6995 -0.1490
 1728TIP3    H126599   1.290   2.191   5.144 -1.0089  1.4396 -0.0247
 1728TIP3    H226600   1.221   2.076   5.214 -0.6101  1.2553  0.0648
 1729TIP3   OH226601   1.305   1.069  14.820  0.1987  0.1579  0.4479
 1729TIP3    H126602   1.283   1.141  14.761  1.3208 -0.9139 -1.3235
 1729TIP3    H226603   1.387   1.095  14.860  1.0652 -0.4823 -0.8571
 1730TIP3   OH226604   5.548   1.722   3.939  0.1727  0.2257  1.1328
 1730TIP3    H126605   5.523   1.687   3.854 -1.4764  3.2733  0.3073
 1730TIP3    H226606   5.468   1.717   3.992  0.1577  1.8460  1.2815
 1731TIP3   OH226607   4.322   4.106  11.689  0.6489 -0.0259  0.2702
 1731TIP3    H126608   4.274   4.031  11.723  0.1383 -0.5301 -1.5228
 1731TIP3    H226609   4.380   4.068  11.623  0.0617  1.2154 -0.9665
 1732TIP3   OH226610   1.533   0.683  11.690 -0.3545  0.2286 -0.0200
 1732TIP3    H126611   1.590   0.610  11.662  1.4812  2.0647 -1.2024
 1732TIP3    H226612   1.574   0.717  11.769 -0.8101  0.4391  0.1255
 1733TIP3   OH226613   4.721   5.322  14.883 -0.2613 -0.1751  0.2158
 1733TIP3    H126614   4.739   5.332  14.976 -1.3365  2.3659  0.2072
 1733TIP3    H226615   4.802   5.348  14.840  0.3367 -1.6438  0.4264
 1734TIP3   OH226616   3.114   6.531  10.990 -0.0860 -0.4529  0.7331
 1734TIP3    H126617   3.042   6.591  10.971  2.0420  1.7807 -0.5275
 1734TIP3    H226618   3.121   6.476  10.912  0.7838  0.6014  0.0578
 1735TIP3   OH226619   4.723   5.075  12.181 -0.3170  0.2994 -0.4568
 1735TIP3    H126620   4.692   5.164  12.200  0.8339  0.5196  0.4232
 1735TIP3    H226621   4.659   5.018  12.225 -0.5919  0.7101 -0.3191
 1736TIP3   OH226622   0.612   1.212   2.743 -0.1931 -0.0013  0.1844
 1736TIP3    H126623   0.604   1.123   2.778  1.1650  0.5680  2.0017
 1736TIP3    H226624   0.627   1.267   2.820  2.1055  1.4029 -1.2078
 1737TIP3   OH226625   3.149   2.348   5.891 -0.2865  0.1591 -0.0094
 1737TIP3    H126626   3.184   2.321   5.976 -0.5244 -2.2733 -0.6225
 1737TIP3    H226627   3.220   2.397   5.850 -0.1918  1.3954  1.6126
 1738TIP3   OH226628   3.234   0.586  12.796  0.6117 -0.3233  0.4608
 1738TIP3    H126629   3.188   0.503  12.813  0.0569 -0.0416  0.3602
 1738TIP3    H226630   3.314   0.560  12.751  1.5807 -0.9895  2.5181
 1739TIP3   OH226631   3.347   0.048   4.645  0.0612  0.7589  0.2572
 1739TIP3    H126632   3.400   0.073   4.720 -0.9800 -1.4524  1.8068
 1739TIP3    H226633   3.258   0.041   4.681 -0.9166  2.2650 -1.7961
 1740TIP3   OH226634   6.715   4.110  11.313  0.7299 -0.1502  0.5584
 1740TIP3    H126635   6.798   4.118  11.265  0.8806  0.9454  0.9802
 1740TIP3    H226636   6.690   4.200  11.332 -0.7987 -0.4534  0.0493
 1741TIP3   OH226637   4.993   6.083  11.289 -0.2337 -0.0619  0.6261
 1741TIP3    H126638   5.014   6.052  11.377 -0.9614 -0.1394  0.7688
 1741TIP3    H226639   5.010   6.177  11.293 -2.7174  0.3674  1.5809
 1742TIP3   OH226640   4.494   1.898   4.103 -0.1185  0.1803  0.2533
 1742TIP3    H126641   4.431   1.859   4.164  0.2823  0.7208  1.0141
 1742TIP3    H226642   4.571   1.841   4.108  0.2794  0.7730  0.9886
 1743TIP3   OH226643   0.522   4.558  16.950  0.0578  0.0986 -0.5953
 1743TIP3    H126644   0.565   4.641  16.973 -0.0017  0.1220 -0.5678
 1743TIP3    H226645   0.441   4.559  17.001  0.3127 -0.2255 -0.1792
 1744TIP3   OH226646   0.440   2.469  14.956  0.4729 -0.8903 -0.2144
 1744TIP3    H126647   0.433   2.406  14.884  0.9205 -3.0112  1.5321
 1744TIP3    H226648   0.350   2.491  14.978  0.3346 -0.3057 -1.3505
 1745TIP3   OH226649   5.880   0.659  15.909  0.1781  0.5613 -0.3489
 1745TIP3    H126650   5.812   0.655  15.977  1.4366  2.2630  1.0512
 1745TIP3    H226651   5.960   0.632  15.954  0.7577  0.2710 -1.5528
 1746TIP3   OH226652   5.658   0.863   0.213  0.2204  0.6716  0.4107
 1746TIP3    H126653   5.582   0.915   0.240 -1.0670 -0.3612 -1.1228
 1746TIP3    H226654   5.705   0.846   0.295 -1.4897  0.9024  1.4774
 1747TIP3   OH226655   5.876   5.403  16.274  0.1418 -0.0821  0.0290
 1747TIP3    H126656   5.931   5.385  16.197 -1.6133 -0.1285 -1.2545
 1747TIP3    H226657   5.834   5.487  16.254 -1.2793 -0.6962  0.3705
 1748TIP3   OH226658   2.811   4.330   2.749 -0.4522 -0.0837 -0.0835
 1748TIP3    H126659   2.727   4.341   2.794 -0.4002 -1.8052  0.4777
 1748TIP3    H226660   2.858   4.266   2.802  1.0298  0.5037 -0.6636
 1749TIP3   OH226661   3.495   5.212   5.834  0.1933 -0.4526  0.2101
 1749TIP3    H126662   3.577   5.162   5.838 -0.3636 -1.3741  0.2904
 1749TIP3    H226663   3.428   5.150   5.864 -0.5664  0.2277 -0.0692
 1750TIP3   OH226664   1.690   2.380  14.513 -0.3599  0.1690 -0.1404
 1750TIP3    H126665   1.743   2.306  14.482  0.1151  0.5775 -0.3001
 1750TIP3    H226666   1.751   2.433  14.565 -1.4187 -1.1450  2.5433
 1751TIP3   OH226667   6.630   0.900  16.045 -0.1276  0.4469 -0.0230
 1751TIP3    H126668   6.674   0.984  16.032 -0.4530  0.9443  1.9138
 1751TIP3    H226669   6.702   0.836  16.049  0.3210  1.0043  1.2027
 1752TIP3   OH226670   3.713   1.828  14.766  0.7176 -0.3333  0.3396
 1752TIP3    H126671   3.678   1.844  14.678 -0.2995  0.4403  0.8846
 1752TIP3    H226672   3.649   1.770  14.807  2.9498 -3.6066 -0.6267
 1753TIP3   OH226673   5.273   3.626   5.032 -0.8181  0.2409  0.0510
 1753TIP3    H126674   5.365   3.610   5.010 -0.4501  2.2106  0.0756
 1753TIP3    H226675   5.224   3.571   4.971  0.3831 -1.7516  0.8527
 1754TIP3   OH226676   3.755   0.538   3.973 -0.0828 -0.5089 -0.4396
 1754TIP3    H126677   3.735   0.571   3.886  0.7330 -2.4015 -1.3882
 1754TIP3    H226678   3.693   0.582   4.031 -1.1733  0.1686 -2.0932
 1755TIP3   OH226679   1.138   2.740  14.268 -0.7299 -0.2243 -0.4269
 1755TIP3    H126680   1.228   2.723  14.241 -0.0256  1.0103  1.1159
 1755TIP3    H226681   1.108   2.656  14.303 -0.0217 -0.5046 -0.4712
 1756TIP3   OH226682   1.438   3.752   2.545 -0.1369 -0.6831  0.6159
 1756TIP3    H126683   1.532   3.759   2.563 -0.0977 -0.1757  0.2433
 1756TIP3    H226684   1.398   3.817   2.602 -0.0818  0.3894 -0.5305
 1757TIP3   OH226685   2.115   4.074  14.265  0.1633 -0.2908  0.5842
 1757TIP3    H126686   2.084   4.076  14.175 -0.0046 -0.2832  0.6420
 1757TIP3    H226687   2.043   4.110  14.317 -0.0899 -1.1387  0.8255
 1758TIP3   OH226688   0.478   4.357   0.375  0.5749 -0.1555 -0.1749
 1758TIP3    H126689   0.445   4.422   0.314  1.7831 -0.6447 -1.3735
 1758TIP3    H226690   0.407   4.293   0.383  0.3729 -0.0358 -0.9874
 1759TIP3   OH226691   2.985   3.244   2.704  0.2134  0.0659  0.1538
 1759TIP3    H126692   2.928   3.167   2.698  0.4986 -0.0977 -0.3965
 1759TIP3    H226693   3.073   3.211   2.684  0.3782  0.4787  0.1961
 1760TIP3   OH226694   1.603   4.908   6.667 -0.1448  0.1358  1.4635
 1760TIP3    H126695   1.694   4.879   6.660 -0.3245 -0.1985  0.5282
 1760TIP3    H226696   1.554   4.829   6.691 -0.6280 -0.3641 -1.0478
 1761TIP3   OH226697   6.185   0.410   0.754  0.3619  0.1837  0.6608
 1761TIP3    H126698   6.215   0.393   0.844  1.5274  0.1696  0.2803
 1761TIP3    H226699   6.266   0.427   0.705  0.0092 -2.5122 -0.9760
 1762TIP3   OH226700   2.615   0.422  13.881 -0.0633 -0.5487 -0.8903
 1762TIP3    H126701   2.629   0.335  13.917  0.6986 -0.1362 -0.1746
 1762TIP3    H226702   2.542   0.458  13.931 -2.2442 -1.7930 -3.0303
 1763TIP3   OH226703   4.690   1.369   3.348  0.1167 -0.4486  0.5513
 1763TIP3    H126704   4.616   1.320   3.383 -1.0124  0.8611  0.0544
 1763TIP3    H226705   4.709   1.328   3.263  1.0504 -1.8277  1.3933
 1764TIP3   OH226706   5.296   3.563  13.246 -0.8023 -0.2547 -0.1313
 1764TIP3    H126707   5.364   3.544  13.181 -0.7840  0.2013 -0.2504
 1764TIP3    H226708   5.264   3.477  13.274  0.0233 -0.4760  0.1374
 1765TIP3   OH226709   4.813   1.362   0.937  0.2286 -0.6868  0.1547
 1765TIP3    H126710   4.718   1.374   0.935  0.3593  0.2681 -3.1499
 1765TIP3    H226711   4.848   1.450   0.948  0.7505 -1.1185  2.1037
 1766TIP3   OH226712   4.141   1.165   4.747  0.2118 -0.0955 -0.1618
 1766TIP3    H126713   4.183   1.246   4.718  0.4769 -0.4030 -0.6422
 1766TIP3    H226714   4.205   1.096   4.727  0.6135 -0.2629  1.6070
 1767TIP3   OH226715   3.154   6.249  14.473 -0.2469 -0.4480  0.6148
 1767TIP3    H126716   3.119   6.297  14.398  1.7613 -0.1123 -0.1435
 1767TIP3    H226717   3.140   6.157  14.451 -1.3871 -0.3109  0.7161
 1768TIP3   OH226718   6.509   5.886   5.639  0.0529  0.5466  0.0758
 1768TIP3    H126719   6.544   5.894   5.728  0.5587 -0.7497  0.0123
 1768TIP3    H226720   6.414   5.894   5.650  0.2060  1.8039  0.5495
 1769TIP3   OH226721   0.148   3.739  14.245 -0.1465 -0.4028  0.3064
 1769TIP3    H126722   0.058   3.747  14.215  0.2781 -1.0619 -1.2109
 1769TIP3    H226723   0.146   3.671  14.312 -1.0008  0.6081  1.3307
 1770TIP3   OH226724   4.757   0.502   2.681 -0.1935  0.8718 -0.2119
 1770TIP3    H126725   4.830   0.489   2.742 -0.6223 -4.4624 -0.6401
 1770TIP3    H226726   4.681   0.469   2.727 -1.0193 -0.5531 -2.4873
 1771TIP3   OH226727   5.131   3.050  12.793 -0.7341 -0.0559 -0.1999
 1771TIP3    H126728   5.114   3.083  12.881 -1.1358 -0.8134  0.0121
 1771TIP3    H226729   5.212   3.094  12.766  0.9039 -1.8380  1.6195
 1772TIP3   OH226730   0.157   0.631  11.680 -0.3018  0.2941 -0.1460
 1772TIP3    H126731   0.166   0.668  11.592 -0.5489  1.1001  0.1712
 1772TIP3    H226732   0.234   0.574  11.689  0.2354  0.9510 -0.5146
 1773TIP3   OH226733   2.460   4.671  11.487 -0.1340 -0.2960 -0.3745
 1773TIP3    H126734   2.386   4.618  11.456 -1.5498  1.7958 -0.6792
 1773TIP3    H226735   2.499   4.705  11.406 -0.7542  1.1029 -0.0961
 1774TIP3   OH226736   4.476   5.718   5.227  0.0341  0.2922 -0.1496
 1774TIP3    H126737   4.437   5.785   5.170  0.9494 -0.1038 -1.2613
 1774TIP3    H226738   4.570   5.728   5.215  0.2097 -0.2856  0.7419
 1775TIP3   OH226739   3.130   3.516  15.011  0.2308 -0.0487  0.1182
 1775TIP3    H126740   3.102   3.428  14.988 -1.5918  0.9055 -1.5292
 1775TIP3    H226741   3.185   3.505  15.088 -1.8843 -2.3990  1.3619
 1776TIP3   OH226742   1.476   0.209  11.501  0.5286 -0.2537 -0.3396
 1776TIP3    H126743   1.398   0.236  11.453  1.3465 -1.2666 -2.2716
 1776TIP3    H226744   1.448   0.133  11.552  0.2113 -0.5260 -0.9155
 1777TIP3   OH226745   3.265   2.938  12.144  0.5183  0.5697 -0.0324
 1777TIP3    H126746   3.247   2.918  12.052  4.2346 -0.7222 -0.5382
 1777TIP3    H226747   3.263   2.853  12.188  0.2075  1.0157  0.8272
 1778TIP3   OH226748   3.791   5.828  12.960  0.2516 -0.2372 -0.3240
 1778TIP3    H126749   3.726   5.856  13.024  2.4265 -0.4096  2.0072
 1778TIP3    H226750   3.763   5.741  12.934 -1.0186  0.1040 -0.1305
 1779TIP3   OH226751   1.634   4.512   1.509  0.1958 -0.1293 -0.7823
 1779TIP3    H126752   1.727   4.505   1.531  0.1599  0.6349 -0.3761
 1779TIP3    H226753   1.588   4.493   1.590 -0.0124 -0.8237 -1.0606
 1780TIP3   OH226754   6.012   2.211   2.092  0.3316 -0.2790 -0.2192
 1780TIP3    H126755   6.076   2.140   2.098 -0.9212 -1.3583  0.6457
 1780TIP3    H226756   6.030   2.252   2.008  0.5470 -2.1443 -1.1130
 1781TIP3   OH226757   1.065   1.310  14.753  0.0225 -0.0349  0.1322
 1781TIP3    H126758   1.097   1.399  14.767 -0.8699  0.3566 -0.3330
 1781TIP3    H226759   1.056   1.274  14.842  1.0671  0.0854  0.2960
 1782TIP3   OH226760   5.673   0.863  14.856 -0.7174 -0.2248  0.2331
 1782TIP3    H126761   5.749   0.848  14.800 -2.6234 -0.6233 -2.3413
 1782TIP3    H226762   5.675   0.791  14.918  0.1814 -1.0570 -0.7419
 1783TIP3   OH226763   3.527   5.134   0.651  0.2961 -0.4521  0.4000
 1783TIP3    H126764   3.446   5.140   0.602 -0.0766 -0.7928  0.9630
 1783TIP3    H226765   3.594   5.113   0.586  0.0157  0.3299 -0.1325
 1784TIP3   OH226766   0.432   0.053  12.460 -0.0528 -0.2222  0.7622
 1784TIP3    H126767   0.417  -0.039  12.441  0.5737 -0.2494  0.3947
 1784TIP3    H226768   0.514   0.055  12.508  0.0723  0.1726  0.5349
 1785TIP3   OH226769   4.912   1.260  16.826  0.0223 -0.2766 -0.6801
 1785TIP3    H126770   4.912   1.201  16.902 -0.7399 -0.3281 -0.7165
 1785TIP3    H226771   4.834   1.236  16.777 -0.7467  1.3179 -0.2686
 1786TIP3   OH226772   3.865   4.746  15.328 -0.4752  0.1686 -0.2623
 1786TIP3    H126773   3.955   4.748  15.296 -0.7346 -0.4337 -1.0112
 1786TIP3    H226774   3.813   4.788  15.259 -0.9247 -0.4621 -0.3084
 1787TIP3   OH226775   0.173   6.119   3.693  0.0400  0.4037 -0.4876
 1787TIP3    H126776   0.208   6.138   3.781 -0.8720  1.0679 -0.2654
 1787TIP3    H226777   0.218   6.038   3.667  0.0648  0.0094  0.7308
 1788TIP3   OH226778   0.631   0.116  16.804  0.5137 -0.0155  0.4794
 1788TIP3    H126779   0.647   0.174  16.879  0.4600  1.0731 -0.3404
 1788TIP3    H226780   0.709   0.061  16.799  0.1087 -0.7639  1.9121
 1789TIP3   OH226781   0.820   1.295  15.382 -0.3548 -0.3697 -0.1590
 1789TIP3    H126782   0.828   1.376  15.433  0.8867 -1.1862  0.9816
 1789TIP3    H226783   0.891   1.239  15.414 -1.5525 -2.1418 -0.5110
 1790TIP3   OH226784   5.383   0.343   4.268  0.0323  0.4770  0.1590
 1790TIP3    H126785   5.479   0.341   4.265 -0.0235 -2.1242 -0.8789
 1790TIP3    H226786   5.358   0.396   4.193  0.6176 -0.3083 -0.5926
 1791TIP3   OH226787   4.453   5.936  15.097 -0.0761 -0.2051  0.0865
 1791TIP3    H126788   4.435   5.955  15.005  1.4795 -1.4634 -0.4938
 1791TIP3    H226789   4.486   5.846  15.097 -0.3229 -0.3186  1.9159
 1792TIP3   OH226790   5.467   4.105   2.468 -0.1133  0.1800  0.5146
 1792TIP3    H126791   5.478   4.062   2.553 -2.6413  0.4123  0.9995
 1792TIP3    H226792   5.411   4.180   2.487 -0.4723  0.3903 -1.3171
 1793TIP3   OH226793   5.227   5.581  16.287  0.2361 -0.3570 -0.3458
 1793TIP3    H126794   5.187   5.573  16.201  1.6271  1.2697 -1.1878
 1793TIP3    H226795   5.154   5.589  16.348 -0.7647  1.5508 -1.7261
 1794TIP3   OH226796   2.222   6.757   1.493 -0.2374  0.1728  0.8213
 1794TIP3    H126797   2.134   6.751   1.454  0.1419 -3.5814  0.4057
 1794TIP3    H226798   2.209   6.734   1.585  0.4758 -1.5788  0.4924
 1795TIP3   OH226799   0.140   3.182  13.637 -0.6648 -0.2340  0.6798
 1795TIP3    H126800   0.178   3.180  13.549  0.6271  0.1185  1.2181
 1795TIP3    H226801   0.084   3.105  13.641  0.7899 -1.3332  0.2206
 1796TIP3   OH226802   5.104   1.201   1.714 -0.0586  0.5182 -0.0094
 1796TIP3    H126803   5.015   1.168   1.726 -0.1762  1.5171  2.1910
 1796TIP3    H226804   5.160   1.126   1.735 -0.3641 -0.0950 -1.3396
 1797TIP3   OH226805   4.658   1.305   1.249 -0.0912  0.2192 -0.0882
 1797TIP3    H126806   4.723   1.243   1.216 -1.4306 -1.4494  0.3025
 1797TIP3    H226807   4.709   1.375   1.290  1.4559 -0.5779 -0.6192
 1798TIP3   OH226808   1.129   2.249   4.132 -0.2682  0.2980  0.1333
 1798TIP3    H126809   1.130   2.297   4.049  1.4602 -1.3051 -0.8315
 1798TIP3    H226810   1.130   2.157   4.106  1.5336 -0.2250  1.9284
 1799TIP3   OH226811   0.559   1.926   3.662 -0.2231 -0.1156  0.4538
 1799TIP3    H126812   0.495   1.978   3.710  0.7654  0.0106  1.6519
 1799TIP3    H226813   0.590   1.862   3.726 -0.5369 -1.4158 -0.6566
 1800TIP3   OH226814   2.464   0.340   1.928  0.4494  0.0815 -0.5607
 1800TIP3    H126815   2.515   0.351   1.848  0.4859  0.3474 -0.5005
 1800TIP3    H226816   2.408   0.417   1.932 -0.9466 -0.8715 -1.3507
 1801TIP3   OH226817   5.392   4.552  14.088 -0.0764 -1.0995 -0.1283
 1801TIP3    H126818   5.431   4.496  14.020  0.2758 -0.5790 -0.3537
 1801TIP3    H226819   5.327   4.495  14.130  0.3265 -1.7055 -0.3125
 1802TIP3   OH226820   4.532   3.732  14.222 -0.3883 -0.4872  0.4677
 1802TIP3    H126821   4.511   3.774  14.305  0.5543 -0.0899  0.5176
 1802TIP3    H226822   4.574   3.801  14.170 -1.5508 -0.5441 -0.5928
 1803TIP3   OH226823   1.294   4.173  14.361  0.4838  0.5686  0.3346
 1803TIP3    H126824   1.315   4.235  14.291 -1.3384  2.4069  1.3553
 1803TIP3    H226825   1.312   4.087  14.323  1.6891  1.6438 -1.6053
 1804TIP3   OH226826   0.070   2.881   6.203 -0.6574  1.0688 -0.2759
 1804TIP3    H126827   0.023   2.910   6.125  0.4442  0.9455 -0.9813
 1804TIP3    H226828   0.041   2.791   6.216  1.3156  0.1347 -2.1969
 1805TIP3   OH226829   2.716   6.189   0.030 -0.0037  0.2382  0.1882
 1805TIP3    H126830   2.646   6.124   0.033 -0.0156  0.1267 -1.8275
 1805TIP3    H226831   2.713   6.232   0.116 -1.0984 -1.2500  0.9140
 1806TIP3   OH226832   1.414   1.262  15.898 -0.2893  0.1645  0.1358
 1806TIP3    H126833   1.476   1.305  15.840  2.7771  0.2309  3.2790
 1806TIP3    H226834   1.361   1.334  15.933  0.0596  0.5136 -0.0459
 1807TIP3   OH226835   2.330   3.537  15.555  0.2626 -0.2308  0.1745
 1807TIP3    H126836   2.401   3.486  15.515  0.7318  1.0445 -0.6619
 1807TIP3    H226837   2.305   3.600  15.487  0.3210  1.2395  1.4817
 1808TIP3   OH226838   1.236   5.585   4.014  0.2976 -0.3011 -0.3176
 1808TIP3    H126839   1.292   5.663   4.017 -0.3551  0.1371  0.8425
 1808TIP3    H226840   1.212   5.578   3.921  0.3229  0.9160 -0.4360
 1809TIP3   OH226841   6.743   4.472   4.715  0.6435 -0.1694 -0.1806
 1809TIP3    H126842   6.779   4.522   4.642 -0.7799  0.4946 -0.4447
 1809TIP3    H226843   6.705   4.394   4.673 -2.1667  1.2715 -0.4750
 1810TIP3   OH226844   4.902   1.147   4.007 -0.5418  0.7616 -0.1212
 1810TIP3    H126845   4.952   1.165   3.927 -1.1604  1.2805 -0.3967
 1810TIP3    H226846   4.878   1.233   4.040  0.8000  0.6038  1.3416
 1811TIP3   OH226847   3.710   3.890   5.590 -0.1115 -0.0939  0.0043
 1811TIP3    H126848   3.728   3.983   5.599 -0.6052 -0.0379  0.4147
 1811TIP3    H226849   3.620   3.885   5.558 -0.7314 -0.4544  1.6986
 1812TIP3   OH226850   4.760   3.476   4.252  0.1531  0.4882  0.2049
 1812TIP3    H126851   4.704   3.493   4.328 -0.3531  2.6009 -0.6058
 1812TIP3    H226852   4.699   3.459   4.180  0.6262 -1.3335  0.2022
 1813TIP3   OH226853   1.911   3.359   1.447  0.0417  0.1723 -0.4422
 1813TIP3    H126854   1.899   3.271   1.482 -0.9865  0.1590 -0.8170
 1813TIP3    H226855   1.993   3.355   1.399  0.3070 -0.4155  0.0544
 1814TIP3   OH226856   2.256   1.243   0.629  0.0427  0.2410  0.0223
 1814TIP3    H126857   2.252   1.165   0.574  2.3984 -0.4911  0.8023
 1814TIP3    H226858   2.334   1.290   0.599 -1.9867  2.9421 -1.2132
 1815TIP3   OH226859   6.667   1.967  12.669 -0.0948  0.1097 -0.2376
 1815TIP3    H126860   6.679   2.047  12.617  1.1835  0.6104  0.7906
 1815TIP3    H226861   6.679   1.896  12.607 -0.3593  0.7041 -0.9850
 1816TIP3   OH226862   4.845   4.906  15.425  0.3446  0.7530 -0.0194
 1816TIP3    H126863   4.793   4.954  15.360 -0.0260  0.5871  0.1542
 1816TIP3    H226864   4.782   4.881  15.492  0.5366  0.0341 -0.1004
 1817TIP3   OH226865   5.875   3.364   0.559  0.0873 -0.1062  0.1171
 1817TIP3    H126866   5.915   3.315   0.632  0.3770 -0.5201 -0.3171
 1817TIP3    H226867   5.885   3.307   0.483  0.8547  0.8265 -0.4996
 1818TIP3   OH226868   4.960   3.931  12.119 -0.0892 -0.0944 -0.2996
 1818TIP3    H126869   5.015   3.941  12.196  2.2587 -1.4403 -1.7177
 1818TIP3    H226870   4.985   4.004  12.062 -1.9641  1.0196  0.2568
 1819TIP3   OH226871   6.076   5.721  14.294  0.3818 -0.3185  0.2835
 1819TIP3    H126872   6.122   5.801  14.267  0.8537 -0.5945  0.2628
 1819TIP3    H226873   6.035   5.689  14.214  0.3103 -0.1732  0.2616
 1820TIP3   OH226874   2.064   4.068  16.378  0.0175 -0.3007  0.4139
 1820TIP3    H126875   1.982   4.021  16.360  0.4374 -0.7434 -0.3943
 1820TIP3    H226876   2.119   4.003  16.422  1.6230 -1.5174 -3.1463
 1821TIP3   OH226877   1.555   3.667  15.011 -0.0176  0.3736  0.1272
 1821TIP3    H126878   1.519   3.752  14.987  0.0657  0.3071 -0.2458
 1821TIP3    H226879   1.648   3.684  15.028 -0.0310  0.3830  0.1904
 1822TIP3   OH226880   2.168   2.474   0.903  0.1256  0.0525 -0.1552
 1822TIP3    H126881   2.241   2.444   0.848 -0.0112  0.1500 -0.3922
 1822TIP3    H226882   2.148   2.562   0.870 -0.3521 -0.1263 -0.3407
 1823TIP3   OH226883   3.608   1.239   1.952 -0.1097 -0.0936  0.2056
 1823TIP3    H126884   3.551   1.241   2.029  1.6339 -0.0363  1.5271
 1823TIP3    H226885   3.633   1.147   1.943  0.0729 -0.0244 -0.0032
 1824TIP3   OH226886   4.187   5.976  16.722  0.1544  0.0205 -0.7518
 1824TIP3    H126887   4.233   5.893  16.720 -0.5184 -0.4140  1.0171
 1824TIP3    H226888   4.220   6.024  16.646 -0.2948 -2.2991 -2.4507
 1825TIP3   OH226889   1.348   2.294   5.458 -0.1702  0.2339  0.2747
 1825TIP3    H126890   1.289   2.219   5.460  0.8015 -0.5276  1.1092
 1825TIP3    H226891   1.422   2.266   5.404 -0.6696  1.2701 -0.9724
 1826TIP3   OH226892   0.879   3.381  12.484 -0.0659  0.5638  0.6120
 1826TIP3    H126893   0.937   3.422  12.548 -1.4242  0.1091  2.1693
 1826TIP3    H226894   0.894   3.287  12.494  0.7551  0.5403 -0.7523
 1827TIP3   OH226895   5.381   6.208  15.135 -0.7687  0.4866  0.5421
 1827TIP3    H126896   5.469   6.186  15.166 -0.8629  0.5676  0.8653
 1827TIP3    H226897   5.395   6.282  15.075 -0.5374  0.0410  0.0332
 1828TIP3   OH226898   5.129   3.318  13.236  0.2045  0.6318  0.6549
 1828TIP3    H126899   5.194   3.287  13.173  1.5584  2.6225  1.0592
 1828TIP3    H226900   5.107   3.240  13.287  0.0989 -0.7054 -1.3437
 1829TIP3   OH226901   1.740   4.305   6.185  0.5890  0.8037 -0.4378
 1829TIP3    H126902   1.732   4.213   6.161  0.4357  0.5998  0.3635
 1829TIP3    H226903   1.664   4.348   6.147 -0.0511  0.3508  0.3205
 1830TIP3   OH226904   6.017   1.787  13.146  0.3507  0.5295  0.1482
 1830TIP3    H126905   6.106   1.820  13.137  0.8670  0.4048  3.7247
 1830TIP3    H226906   6.006   1.726  13.074  3.3433  0.1758 -0.0830
 1831TIP3   OH226907   4.212   4.967  12.237 -0.3795  0.0185 -0.0864
 1831TIP3    H126908   4.141   4.974  12.300 -0.4968  0.0288 -0.2175
 1831TIP3    H226909   4.206   5.048  12.185 -1.1833 -0.6429 -1.0363
 1832TIP3   OH226910   6.065   1.967  16.898  0.8195 -0.1336  0.1915
 1832TIP3    H126911   5.979   1.992  16.932  0.4762 -1.2616  0.1650
 1832TIP3    H226912   6.093   2.042  16.846  0.1546  0.5176  0.7610
 1833TIP3   OH226913   4.013   2.403   1.113 -0.3632 -0.6821  0.3875
 1833TIP3    H126914   3.944   2.469   1.110  1.1886  0.8981 -1.3297
 1833TIP3    H226915   3.977   2.333   1.168 -2.4006  1.1409  1.4241
 1834TIP3   OH226916   1.643   1.490   5.218  0.2826 -0.0457  0.2897
 1834TIP3    H126917   1.691   1.428   5.272  1.1450  1.0350  0.7895
 1834TIP3    H226918   1.566   1.513   5.270 -0.1091 -0.7835  0.0463
 1835TIP3   OH226919   3.368   1.772   5.642  0.1083 -0.0786 -0.2504
 1835TIP3    H126920   3.309   1.700   5.621 -0.8231  0.4946  0.3164
 1835TIP3    H226921   3.399   1.753   5.730 -0.1587  0.2165 -0.0903
 1836TIP3   OH226922   5.975   6.443  11.366 -0.3261  0.0037  0.1146
 1836TIP3    H126923   6.008   6.500  11.296 -2.1870  2.7233  1.3397
 1836TIP3    H226924   5.970   6.356  11.326  3.1949  0.5163 -1.6339
 1837TIP3   OH226925   0.311   2.298  16.727 -0.0176 -0.1939  0.2706
 1837TIP3    H126926   0.377   2.342  16.781 -2.3571  0.2473  2.8903
 1837TIP3    H226927   0.323   2.205  16.747  0.9772 -0.2626 -0.6339
 1838TIP3   OH226928   6.439   4.305  16.576 -0.2070 -0.3104  0.4478
 1838TIP3    H126929   6.483   4.375  16.528 -0.2214 -0.3004  0.4512
 1838TIP3    H226930   6.435   4.336  16.667 -0.5841 -0.1315  0.3736
 1839TIP3   OH226931   3.137   0.789   2.670  0.2589  0.1744  0.1823
 1839TIP3    H126932   3.201   0.734   2.715 -0.1874  0.8982  1.7378
 1839TIP3    H226933   3.056   0.776   2.720  0.0563  1.9425  0.3422
 1840TIP3   OH226934   0.340   3.733   1.239  0.2612 -0.5039 -0.4130
 1840TIP3    H126935   0.354   3.751   1.146  2.1907 -1.1180 -0.2588
 1840TIP3    H226936   0.309   3.816   1.274  1.1858  0.2393 -1.2877
 1841TIP3   OH226937   2.872   5.602   4.219 -0.0402  0.3395  0.7514
 1841TIP3    H126938   2.863   5.696   4.202  1.4640  0.5978  1.3001
 1841TIP3    H226939   2.941   5.596   4.285 -1.0420 -1.0746  1.6831
 1842TIP3   OH226940   1.530   3.394  14.953 -0.1127  0.2564  0.0549
 1842TIP3    H126941   1.510   3.476  14.999  0.5973  1.3217 -1.5041
 1842TIP3    H226942   1.484   3.401  14.870 -0.1715 -1.0089 -0.0282
 1843TIP3   OH226943   6.279   0.307   3.284  0.0348  0.5028 -0.8775
 1843TIP3    H126944   6.360   0.299   3.335 -0.3306  1.1125 -0.1851
 1843TIP3    H226945   6.295   0.257   3.204  0.7422 -0.2021 -0.3027
 1844TIP3   OH226946   6.561   5.737   3.614  0.6557  0.1231  0.0823
 1844TIP3    H126947   6.593   5.711   3.528  0.1126 -0.5915  0.0829
 1844TIP3    H226948   6.470   5.707   3.615  0.3039  1.1798  0.4663
 1845TIP3   OH226949   5.818   4.444  14.489 -0.3911 -0.3659  0.6030
 1845TIP3    H126950   5.884   4.466  14.423 -0.2884 -0.4190  0.6873
 1845TIP3    H226951   5.773   4.527  14.506 -2.3427 -0.9089 -1.6444
 1846TIP3   OH226952   4.543   4.016   1.291 -0.5891 -0.0649  0.1969
 1846TIP3    H126953   4.519   3.960   1.365 -1.4159  0.8088  0.6040
 1846TIP3    H226954   4.526   3.962   1.214 -0.6986 -0.6236  0.6057
 1847TIP3   OH226955   2.441   4.205  13.035 -0.4254 -0.0465 -0.2117
 1847TIP3    H126956   2.532   4.233  13.043 -0.1398 -0.6687 -1.2670
 1847TIP3    H226957   2.446   4.111  13.018 -1.3158 -0.3462  1.0799
 1848TIP3   OH226958   0.735   3.941   2.909 -0.7332  0.1881  0.1337
 1848TIP3    H126959   0.700   3.884   2.977 -0.9919  0.8085  0.5290
 1848TIP3    H226960   0.658   3.976   2.865 -0.5653 -0.2650 -0.5280
 1849TIP3   OH226961   0.901   1.402   4.086 -0.0851 -0.5374  0.1310
 1849TIP3    H126962   0.913   1.321   4.036  0.9538 -0.2654 -0.0726
 1849TIP3    H226963   0.990   1.431   4.107 -0.3777  1.4963 -1.3105
 1850TIP3   OH226964   5.194   0.553   3.154 -0.2021 -0.1118 -0.3856
 1850TIP3    H126965   5.159   0.582   3.238 -2.4334 -0.4948 -1.1393
 1850TIP3    H226966   5.178   0.458   3.153 -1.0835  0.0378 -1.6290
 1851TIP3   OH226967   0.614   3.063  12.542 -0.0705  0.3902 -0.1544
 1851TIP3    H126968   0.695   3.022  12.572 -1.0256 -2.3821 -1.1628
 1851TIP3    H226969   0.569   3.089  12.623  0.7785 -0.1628  0.5028
 1852TIP3   OH226970   1.139   5.587  16.284 -0.0332 -0.5336 -0.1250
 1852TIP3    H126971   1.150   5.675  16.251  0.5349 -0.5268  0.0860
 1852TIP3    H226972   1.173   5.530  16.215 -0.5403 -0.6001 -0.3278
 1853TIP3   OH226973   4.639   0.376   0.264  0.2583 -0.0624 -0.8480
 1853TIP3    H126974   4.638   0.299   0.207  2.1782 -0.1277 -0.8125
 1853TIP3    H226975   4.660   0.449   0.205  0.2705  0.1649 -0.5633
 1854TIP3   OH226976   4.874   5.772  11.738 -0.2136  0.1415  0.1328
 1854TIP3    H126977   4.956   5.806  11.773  0.1632  0.8053 -1.3530
 1854TIP3    H226978   4.897   5.734  11.654 -1.3991  0.2113 -0.2377
 1855TIP3   OH226979   2.882   3.476   2.140  0.0453  0.0184 -0.1384
 1855TIP3    H126980   2.877   3.463   2.235  1.4075  1.0135  0.0849
 1855TIP3    H226981   2.851   3.566   2.127 -0.6236 -0.2931 -0.6902
 1856TIP3   OH226982   1.565   6.572  15.827  0.3380 -0.2041 -0.1363
 1856TIP3    H126983   1.554   6.621  15.746  0.2754  1.2428  0.7284
 1856TIP3    H226984   1.488   6.514  15.830 -0.1308  0.3810 -0.6720
 1857TIP3   OH226985   1.418   0.589   1.479  0.0769 -0.1136 -0.2448
 1857TIP3    H126986   1.439   0.597   1.572 -1.3126 -2.1011  0.2769
 1857TIP3    H226987   1.327   0.617   1.472 -0.2960 -1.3996 -0.7357
 1858TIP3   OH226988   6.262   6.389   1.358 -0.0352 -0.2601 -0.1074
 1858TIP3    H126989   6.241   6.312   1.305 -1.7886  1.0756 -1.4164
 1858TIP3    H226990   6.216   6.461   1.315  1.4947  1.5102  1.1573
 1859TIP3   OH226991   1.828   0.182  15.657 -0.4706  0.9803 -0.6343
 1859TIP3    H126992   1.752   0.230  15.689 -1.2079  0.2675 -1.2888
 1859TIP3    H226993   1.879   0.162  15.735 -2.2667 -0.7770  0.0991
 1860TIP3   OH226994   3.056   0.885  14.613 -0.4149  0.2573  0.0320
 1860TIP3    H126995   3.084   0.883  14.705 -0.3570  1.8436  0.0621
 1860TIP3    H226996   3.132   0.854  14.565 -0.3465 -0.3148  0.5064
 1861TIP3   OH226997   6.282   5.477  15.855 -0.4046 -0.0618 -0.2403
 1861TIP3    H126998   6.280   5.572  15.845  2.2549  0.1869  1.3740
 1861TIP3    H226999   6.334   5.446  15.781 -0.8146 -0.2411 -0.4585
 1862TIP3   OH227000   5.964   0.210  14.406 -0.2102  0.0910 -0.3366
 1862TIP3    H127001   5.932   0.125  14.374  1.6112 -0.4861 -0.7131
 1862TIP3    H227002   5.916   0.275  14.355 -0.6654 -0.7487 -0.9929
 1863TIP3   OH227003   5.756   1.060  15.349  0.1476 -0.2381  0.0225
 1863TIP3    H127004   5.705   1.123  15.299  1.6615  0.8709 -0.1653
 1863TIP3    H227005   5.723   0.974  15.321 -0.2568  0.4145 -1.5554
 1864TIP3   OH227006   4.252   5.369  14.103 -0.1803 -0.4287  0.0394
 1864TIP3    H127007   4.343   5.398  14.115  0.0400 -2.2457  3.4505
 1864TIP3    H227008   4.200   5.433  14.152 -0.7266  0.3873 -1.5858
 1865TIP3   OH227009   0.713   4.124  14.754  0.1011 -0.2688 -0.0190
 1865TIP3    H127010   0.658   4.056  14.715 -1.3857 -0.0340  1.6186
 1865TIP3    H227011   0.665   4.206  14.737  0.3851  0.0367  0.6519
 1866TIP3   OH227012   4.324   4.690  11.800 -0.5577  0.5758  0.5523
 1866TIP3    H127013   4.298   4.604  11.833 -0.0057  0.1951  0.0204
 1866TIP3    H227014   4.328   4.746  11.877 -1.4817  0.2638  0.8251
 1867TIP3   OH227015   0.434   5.561   5.786 -0.1394 -0.6550  0.3415
 1867TIP3    H127016   0.373   5.505   5.833 -2.3718  0.4955 -1.0762
 1867TIP3    H227017   0.428   5.646   5.831 -0.8123 -0.0968 -0.7791
 1868TIP3   OH227018   4.104   3.460  13.727 -0.2853 -0.3417 -0.5514
 1868TIP3    H127019   4.063   3.453  13.641 -0.0994 -0.9101 -0.5954
 1868TIP3    H227020   4.144   3.375  13.742 -0.7857 -0.4287  0.3414
 1869TIP3   OH227021   6.140   1.754   6.436 -0.6924  0.1582  0.0152
 1869TIP3    H127022   6.062   1.802   6.407 -1.5068 -1.0707  0.1677
 1869TIP3    H227023   6.204   1.823   6.454 -1.8658  1.2057  0.2837
 1870TIP3   OH227024   2.665   6.423   3.516 -0.4372  0.1038 -0.0373
 1870TIP3    H127025   2.667   6.331   3.542  1.8804  0.6445  1.8528
 1870TIP3    H227026   2.698   6.423   3.426 -0.3849 -0.8799 -0.0227
 1871TIP3   OH227027   1.356   4.516   0.321 -0.3016  0.0495  0.1844
 1871TIP3    H127028   1.421   4.448   0.338  1.5864  1.1858 -2.2366
 1871TIP3    H227029   1.338   4.553   0.408  2.5825 -0.0322  0.8795
 1872TIP3   OH227030   3.259   4.845  12.847 -0.4309  0.0950  0.1363
 1872TIP3    H127031   3.175   4.817  12.812 -0.8654  1.2869  0.1931
 1872TIP3    H227032   3.238   4.921  12.901  0.3617 -1.0551  2.1213
 1873TIP3   OH227033   6.168   6.489   4.075  0.2486  0.3955 -0.2208
 1873TIP3    H127034   6.164   6.530   4.161  1.1020  0.8063 -0.3685
 1873TIP3    H227035   6.254   6.446   4.073  0.6257  1.1656 -1.2088
 1874TIP3   OH227036   0.038   3.678  12.244  0.0045  0.5218  0.6480
 1874TIP3    H127037   0.072   3.638  12.324 -0.4462 -0.4877  0.3533
 1874TIP3    H227038   0.049   3.609  12.178 -1.8458  0.4777  0.3700
 1875TIP3   OH227039   4.893   2.054   1.478  0.2222 -0.2435  0.5519
 1875TIP3    H127040   4.929   2.075   1.564  1.4677 -2.3445  0.5659
 1875TIP3    H227041   4.901   2.136   1.429  0.1348  0.7850  2.2165
 1876TIP3   OH227042   2.542   2.663   5.404 -0.5207 -0.1730 -0.0941
 1876TIP3    H127043   2.607   2.645   5.335 -1.3270 -1.2260 -0.5813
 1876TIP3    H227044   2.505   2.748   5.380 -0.6692 -0.4521 -0.8485
 1877TIP3   OH227045   5.608   6.424  14.671  0.6594 -0.6384 -0.7107
 1877TIP3    H127046   5.696   6.462  14.665  0.4732 -0.1109 -0.1179
 1877TIP3    H227047   5.597   6.401  14.763 -0.2893  0.4468 -0.5304
 1878TIP3   OH227048   1.781   2.132  12.602 -0.7757 -0.0897 -0.2963
 1878TIP3    H127049   1.705   2.186  12.621 -0.8230 -0.2422 -0.0495
 1878TIP3    H227050   1.819   2.112  12.688 -1.2883 -1.2107 -0.3227
 1879TIP3   OH227051   5.373   1.235   2.900  0.2901  0.4064 -0.4364
 1879TIP3    H127052   5.387   1.206   2.990  1.5207  0.6688 -0.5355
 1879TIP3    H227053   5.429   1.312   2.890 -2.8229  2.7632 -0.2311
 1880TIP3   OH227054   4.801   0.715   4.685  0.0695  0.4556 -0.1590
 1880TIP3    H127055   4.856   0.664   4.626  1.0557  0.5654  0.6633
 1880TIP3    H227056   4.748   0.770   4.626  0.7087  0.2321 -0.9569
 1881TIP3   OH227057   5.265   5.994  13.861 -0.4674  0.2264 -0.1307
 1881TIP3    H127058   5.318   6.008  13.939 -1.8416 -0.8174  1.0171
 1881TIP3    H227059   5.325   6.012  13.788  1.9741 -2.4773  1.0784
 1882TIP3   OH227060   4.720   4.484   1.553 -0.2705  0.2214  0.1124
 1882TIP3    H127061   4.695   4.393   1.535  0.0592 -0.0300  0.8728
 1882TIP3    H227062   4.643   4.522   1.595 -0.6679  0.5062 -0.8734
 1883TIP3   OH227063   3.848   5.749  16.692 -0.6919 -0.2106  0.6800
 1883TIP3    H127064   3.930   5.748  16.642 -1.2250 -1.7017 -0.1870
 1883TIP3    H227065   3.779   5.748  16.625 -1.4169 -0.3514  1.4289
 1884TIP3   OH227066   0.111   4.326   3.406  0.4295  0.3516  0.0040
 1884TIP3    H127067   0.171   4.326   3.332 -2.3847  2.2298 -2.3896
 1884TIP3    H227068   0.107   4.418   3.433  0.8669 -0.2034  2.0786
 1885TIP3   OH227069   3.856   6.370   5.256  0.1778  0.2861  0.1460
 1885TIP3    H127070   3.834   6.356   5.348 -0.4548  0.5116  0.0278
 1885TIP3    H227071   3.931   6.312   5.240  0.7629  0.8061  0.9970
 1886TIP3   OH227072   6.232   2.672  15.327 -0.1274 -0.4383 -0.2870
 1886TIP3    H127073   6.264   2.587  15.356 -1.2600 -0.3764  1.2056
 1886TIP3    H227074   6.253   2.675  15.234  2.5180 -1.1423  0.2372
 1887TIP3   OH227075   0.435   3.850   5.523 -0.1128 -0.6321  0.3651
 1887TIP3    H127076   0.399   3.846   5.435  2.6869 -0.3935 -0.8377
 1887TIP3    H227077   0.495   3.925   5.521  1.0911 -1.5056  2.0204
 1888TIP3   OH227078   6.030   2.677   5.038  0.7216 -0.2610  0.1829
 1888TIP3    H127079   6.071   2.716   5.115 -0.0141 -0.4259  0.6644
 1888TIP3    H227080   6.085   2.704   4.965  1.0970  0.3764  0.6979
 1889TIP3   OH227081   1.614   0.667   5.183 -0.1265 -0.8288  0.0995
 1889TIP3    H127082   1.613   0.712   5.268 -0.6763  0.9529 -0.8254
 1889TIP3    H227083   1.523   0.666   5.156  0.0535 -1.3637 -0.4794
 1890TIP3   OH227084   4.510   0.452  16.751 -0.2276  0.0544  0.1675
 1890TIP3    H127085   4.497   0.525  16.812  2.2597 -0.2007  1.0359
 1890TIP3    H227086   4.535   0.494  16.669 -0.4438  0.2368  0.1911
 1891TIP3   OH227087   2.964   1.431  16.433  0.1623  0.3211  0.3765
 1891TIP3    H127088   2.936   1.352  16.389  0.9611 -0.4446  1.2099
 1891TIP3    H227089   2.885   1.465  16.475 -0.3455  0.4097 -0.6613
 1892TIP3   OH227090   0.016   3.443  13.081 -0.4567  0.3483  0.4321
 1892TIP3    H127091   0.093   3.427  13.135  0.0919  0.3504 -0.3403
 1892TIP3    H227092   0.040   3.410  12.995 -1.7998 -0.8638  0.5036
 1893TIP3   OH227093   4.628   5.104   3.056  0.0314 -0.3163  0.0963
 1893TIP3    H127094   4.595   5.194   3.053 -0.0263 -0.3046  0.9545
 1893TIP3    H227095   4.600   5.071   3.141 -2.8200 -2.2665 -1.5109
 1894TIP3   OH227096   0.932   6.185   5.157  0.6291  0.7944 -0.3661
 1894TIP3    H127097   0.859   6.242   5.132 -1.2899 -1.1273  0.6443
 1894TIP3    H227098   0.928   6.112   5.094  3.0165  1.6815 -1.6212
 1895TIP3   OH227099   2.735   1.194   5.334 -0.3823  0.2009  0.3295
 1895TIP3    H127100   2.704   1.111   5.371  0.9998 -0.9896 -1.0847
 1895TIP3    H227101   2.819   1.172   5.294  0.7247  2.6274  1.2159
 1896TIP3   OH227102   6.597   3.357   6.382  0.2284  0.0044 -0.3566
 1896TIP3    H127103   6.520   3.300   6.375  0.1655  0.0627 -0.1517
 1896TIP3    H227104   6.561   3.445   6.390  0.2986 -0.0404  0.4865
 1897TIP3   OH227105   6.637   1.891  12.254  0.0547 -0.2632  0.0646
 1897TIP3    H127106   6.678   1.973  12.283  0.2573 -0.4986  0.4548
 1897TIP3    H227107   6.677   1.873  12.169  0.8488 -0.5513  0.4924
 1898TIP3   OH227108   4.770   2.443  13.375 -0.0434 -0.6394 -0.3824
 1898TIP3    H127109   4.759   2.355  13.411 -1.6278 -0.4346 -0.3233
 1898TIP3    H227110   4.828   2.431  13.300 -0.0234 -1.6861 -0.2096
 1899TIP3   OH227111   2.185   1.898   2.536 -0.2898  0.0169  0.5764
 1899TIP3    H127112   2.176   1.993   2.530 -1.7186 -0.0485  1.5532
 1899TIP3    H227113   2.256   1.877   2.476 -1.0468  1.5155 -0.8740
 1900TIP3   OH227114   5.365   1.151  16.833  0.3748 -0.0128  0.3462
 1900TIP3    H127115   5.357   1.247  16.829  0.2668 -0.0534 -0.8298
 1900TIP3    H227116   5.282   1.119  16.798  0.1586 -0.5453  1.3421
 1901TIP3   OH227117   2.015   3.689  11.951 -0.1388 -0.3132  0.5360
 1901TIP3    H127118   2.018   3.776  11.992 -1.3389 -0.4236  0.8733
 1901TIP3    H227119   2.102   3.678  11.912  0.0271  1.0260  0.5139
 1902TIP3   OH227120   2.927   1.969   4.610  0.5193 -0.4838 -0.2240
 1902TIP3    H127121   2.862   1.972   4.680 -0.6392 -0.0522 -1.2956
 1902TIP3    H227122   3.009   1.947   4.654  0.2253  1.8412  1.5521
 1903TIP3   OH227123   6.030   2.052  12.463  0.4009  0.4188  0.0410
 1903TIP3    H127124   6.080   1.981  12.504  0.1174  0.1644 -0.0510
 1903TIP3    H227125   6.015   2.021  12.374 -1.0570 -0.0799  0.4565
 1904TIP3   OH227126   0.153   4.265   1.025  0.1141 -0.2669  0.3330
 1904TIP3    H127127   0.204   4.190   1.055  0.7562  0.2866  0.6580
 1904TIP3    H227128   0.184   4.282   0.936  0.2797 -0.1165  0.4196
 1905TIP3   OH227129   2.586   4.542   1.120  0.4068 -0.1602  0.3617
 1905TIP3    H127130   2.637   4.586   1.188 -1.6014 -0.6889  2.2647
 1905TIP3    H227131   2.515   4.499   1.167 -1.9949  0.8001 -2.2346
 1906TIP3   OH227132   1.583   5.314  12.304 -0.1829  0.8470  0.7364
 1906TIP3    H127133   1.660   5.353  12.344 -0.0486  1.4824 -0.1370
 1906TIP3    H227134   1.556   5.376  12.236  0.1570 -0.6425 -0.8025
 1907TIP3   OH227135   1.129   2.832  15.672 -0.3353 -0.6264 -0.3096
 1907TIP3    H127136   1.194   2.869  15.612  0.1284  0.5345  0.8760
 1907TIP3    H227137   1.181   2.787  15.738 -0.7527 -0.1669  0.3332
 1908TIP3   OH227138   3.220   6.609   0.006  0.1654 -0.3743  0.2450
 1908TIP3    H127139   3.261   6.540   0.058 -0.5393  0.5184  2.0722
 1908TIP3    H227140   3.266   6.689   0.032 -1.6938  0.4231  1.2647
 1909TIP3   OH227141   1.587   5.550  16.106 -0.3693  0.8078  0.0671
 1909TIP3    H127142   1.570   5.644  16.115  1.7907  1.1435  1.1323
 1909TIP3    H227143   1.562   5.513  16.190  1.8670  0.9642  0.8299
 1910TIP3   OH227144   2.637   3.680   3.583 -0.4232  0.0384  0.3056
 1910TIP3    H127145   2.710   3.716   3.533 -1.8466  1.7810 -0.5618
 1910TIP3    H227146   2.644   3.720   3.670  1.5562 -2.3475  1.3122
 1911TIP3   OH227147   4.485   6.194   3.819 -0.1492  0.7678  0.3392
 1911TIP3    H127148   4.444   6.198   3.906 -0.9243 -0.1465  0.0184
 1911TIP3    H227149   4.527   6.280   3.810 -0.8495  1.2301  1.2355
 1912TIP3   OH227150   0.209   3.855  17.153  0.0489 -0.0013  0.3102
 1912TIP3    H127151   0.161   3.792  17.099  1.7441 -1.7166  0.7713
 1912TIP3    H227152   0.270   3.802  17.203  0.2994  1.8486  2.0124
 1913TIP3   OH227153   1.356   0.413  10.831  0.3174 -0.5429  0.0009
 1913TIP3    H127154   1.282   0.439  10.776  0.4527 -2.1813 -1.0099
 1913TIP3    H227155   1.332   0.325  10.862  1.4971 -0.7650  0.2918
 1914TIP3   OH227156   3.630   1.960   5.775  0.0850  0.2500 -0.5416
 1914TIP3    H127157   3.600   2.049   5.793 -2.1365 -0.6896  0.5448
 1914TIP3    H227158   3.710   1.951   5.827 -1.5939  0.4673  2.1619
 1915TIP3   OH227159   3.162   3.013   3.885  0.2273 -0.6971 -0.9058
 1915TIP3    H127160   3.206   2.929   3.897 -3.1291 -2.4110  0.1079
 1915TIP3    H227161   3.153   3.048   3.973  0.7400  0.2779 -1.2365
 1916TIP3   OH227162   1.728   2.793   2.519  0.0019  0.0290  0.2305
 1916TIP3    H127163   1.762   2.762   2.603 -0.3408 -0.1872  0.2901
 1916TIP3    H227164   1.762   2.730   2.455 -0.4010 -0.2669  0.3074
 1917TIP3   OH227165   3.634   4.231  13.315  0.2624  0.2593  0.1328
 1917TIP3    H127166   3.645   4.319  13.352 -0.2724  0.3721  0.0261
 1917TIP3    H227167   3.573   4.187  13.375  0.0047  0.1836 -0.1830
 1918TIP3   OH227168   4.097   4.591   4.105  0.1876 -0.1316 -0.3151
 1918TIP3    H127169   4.026   4.625   4.159  0.1844 -0.7556  0.0725
 1918TIP3    H227170   4.054   4.534   4.041  0.3012 -0.1869 -0.3418
 1919TIP3   OH227171   6.732   3.477  11.534  0.0796 -0.3649  0.1537
 1919TIP3    H127172   6.719   3.419  11.460 -1.0717 -0.0966  0.1369
 1919TIP3    H227173   6.807   3.532  11.509 -1.2022  0.7050 -1.4346
 1920TIP3   OH227174   6.243   6.200  13.833  0.2039  0.3247 -0.3640
 1920TIP3    H127175   6.282   6.263  13.894 -0.8184 -0.1797  0.8229
 1920TIP3    H227176   6.149   6.218  13.836 -0.2244 -1.8209  0.6899
 1921TIP3   OH227177   3.235   3.092  15.331  0.3654  0.2773 -0.1432
 1921TIP3    H127178   3.295   3.080  15.405 -1.3383  2.1187  1.5878
 1921TIP3    H227179   3.163   3.031  15.348  0.4353  0.0088 -0.7950
 1922TIP3   OH227180   2.882   5.359  15.844 -0.3111  0.4973 -0.5236
 1922TIP3    H127181   2.915   5.377  15.932 -1.0990  1.1580 -0.3501
 1922TIP3    H227182   2.956   5.374  15.786  0.2801 -0.1795  0.0516
 1923TIP3   OH227183   6.740   1.391   4.565  0.2371 -0.0192  0.0275
 1923TIP3    H127184   6.776   1.408   4.653  1.3675  1.0548 -0.6189
 1923TIP3    H227185   6.786   1.312   4.536  1.9387  1.1880 -0.6809
 1924TIP3   OH227186   3.220   0.652   3.601  0.6771  0.0470 -0.1264
 1924TIP3    H127187   3.149   0.588   3.590 -1.2984  1.6977  2.4603
 1924TIP3    H227188   3.199   0.722   3.539  0.2259  0.3567  0.3690
 1925TIP3   OH227189   5.410   4.314  13.003  0.0994  0.4897  0.2005
 1925TIP3    H127190   5.445   4.268  13.079 -0.9471 -0.8905 -0.1201
 1925TIP3    H227191   5.477   4.303  12.935  0.5290  0.7435  0.5845
 1926TIP3   OH227192   1.910   0.275   2.907 -0.3156 -0.3555 -0.2749
 1926TIP3    H127193   1.959   0.337   2.960  1.4188 -0.5082 -1.6486
 1926TIP3    H227194   1.975   0.209   2.880 -1.9023 -2.2180  0.3304
 1927TIP3   OH227195   5.073   1.181  12.679 -0.1820  0.4815  0.3600
 1927TIP3    H127196   4.996   1.127  12.696 -0.3716  0.7674  0.4295
 1927TIP3    H227197   5.127   1.173  12.757  0.9754 -1.5607 -0.6102
 1928TIP3   OH227198   5.351   0.755  14.250  0.3435  0.3832 -0.1395
 1928TIP3    H127199   5.392   0.789  14.329  0.0828 -0.4382  0.3675
 1928TIP3    H227200   5.396   0.672  14.233 -1.2319 -0.6636  0.5803
 1929TIP3   OH227201   0.505   0.357  16.034  0.3471  0.1141  0.1336
 1929TIP3    H127202   0.478   0.267  16.017 -0.4228 -0.0503  2.1975
 1929TIP3    H227203   0.569   0.350  16.105 -0.1900  1.2614  0.7323
 1930TIP3   OH227204   4.278   6.424  10.837  0.3871  0.5531 -0.4394
 1930TIP3    H127205   4.294   6.426  10.743 -0.7412  0.9845 -0.6250
 1930TIP3    H227206   4.201   6.369  10.848  2.7225 -2.6499  0.5771
 1931TIP3   OH227207   0.054   6.621  11.572  0.0801 -0.7355 -0.3333
 1931TIP3    H127208   0.066   6.656  11.661  0.4093 -0.1596 -0.6003
 1931TIP3    H227209   0.141   6.626  11.532 -0.2968  0.1150 -1.0805
 1932TIP3   OH227210   2.057   6.369  11.413 -0.0301  0.8097  0.4498
 1932TIP3    H127211   1.981   6.417  11.378  0.5693  1.8947  0.6066
 1932TIP3    H227212   2.063   6.398  11.504 -2.4303 -3.0431  1.9811
 1933TIP3   OH227213   3.207   2.673   5.496  0.4072 -0.2901  0.1774
 1933TIP3    H127214   3.184   2.625   5.417  1.9482  0.4033 -0.7057
 1933TIP3    H227215   3.132   2.731   5.511 -0.9869 -2.1812  0.6599
 1934TIP3   OH227216   2.802   5.050   2.088  0.3346 -0.4246 -0.5250
 1934TIP3    H127217   2.732   5.093   2.138  0.3337  0.2520 -1.1010
 1934TIP3    H227218   2.821   5.111   2.017  0.6313 -1.1954 -1.1043
 1935TIP3   OH227219   0.719   4.724  10.668  0.0865  0.0319  0.5797
 1935TIP3    H127220   0.708   4.650  10.608  3.1282 -0.1821  0.2139
 1935TIP3    H227221   0.775   4.691  10.738 -1.1497  1.0909  2.1076
 1936TIP3   OH227222   5.640   1.699  14.601  0.3008 -0.2115 -0.7422
 1936TIP3    H127223   5.673   1.733  14.518 -0.4859 -0.1801 -1.0491
 1936TIP3    H227224   5.556   1.744  14.614  0.9054  0.5593  0.5858
 1937TIP3   OH227225   0.382   6.770   1.184  0.1873  0.0756  0.1813
 1937TIP3    H127226   0.347   6.695   1.136  0.1876 -0.1024  0.4570
 1937TIP3    H227227   0.355   6.755   1.275  2.8751 -1.2037  0.8168
 1938TIP3   OH227228   2.864   3.532  14.849  0.1087 -0.0800  0.2510
 1938TIP3    H127229   2.774   3.555  14.870 -0.1266  0.0974 -0.9210
 1938TIP3    H227230   2.886   3.461  14.910 -0.3642  0.7893  1.4474
 1939TIP3   OH227231   1.487   1.654  13.161 -0.0666  0.0095  0.2997
 1939TIP3    H127232   1.543   1.693  13.229  0.4619 -0.2787  0.0277
 1939TIP3    H227233   1.399   1.687  13.181  0.3824  1.3708  0.0470
 1940TIP3   OH227234   3.838   1.253  16.098 -0.6748  0.1456  0.0413
 1940TIP3    H127235   3.894   1.205  16.159 -0.7184  0.6991  0.5139
 1940TIP3    H227236   3.900   1.299  16.041 -0.6199 -0.9993 -0.8491
 1941TIP3   OH227237   6.486   3.320   4.657  0.0342  0.3968  0.4167
 1941TIP3    H127238   6.511   3.295   4.746 -0.2986  0.8124  0.6260
 1941TIP3    H227239   6.439   3.403   4.668  0.8096  0.9238 -0.2350
 1942TIP3   OH227240   1.494   0.006  14.996  0.0168  0.0154  0.1465
 1942TIP3    H127241   1.411  -0.040  15.009 -0.3489  0.7866  0.5961
 1942TIP3    H227242   1.480   0.059  14.917 -0.1653  0.6756  0.6149
 1943TIP3   OH227243   5.530   5.519  15.229  0.2423 -0.1954  0.0279
 1943TIP3    H127244   5.609   5.510  15.283 -0.3438 -0.8836  0.7824
 1943TIP3    H227245   5.551   5.471  15.149  0.0645 -1.6169  0.8165
 1944TIP3   OH227246   0.327   6.678   4.822  0.4346  0.4326  0.1466
 1944TIP3    H127247   0.366   6.718   4.900 -0.3702 -0.0353  0.7909
 1944TIP3    H227248   0.401   6.636   4.778  1.0276  1.3462  0.2545
 1945TIP3   OH227249   2.888   3.916   3.968  0.3130 -0.3701 -0.7774
 1945TIP3    H127250   2.911   4.009   3.964 -1.9167  0.2089 -1.0278
 1945TIP3    H227251   2.870   3.900   4.061 -0.4033 -0.2465 -0.8883
 1946TIP3   OH227252   3.022   2.850   0.728 -0.5051 -0.6642 -0.0213
 1946TIP3    H127253   3.100   2.804   0.758 -1.6675 -2.1529  0.8174
 1946TIP3    H227254   3.041   2.943   0.742  1.2037 -1.0083 -0.0758
 1947TIP3   OH227255   0.266   0.284   0.187 -0.3806 -0.3129 -0.0533
 1947TIP3    H127256   0.331   0.294   0.256 -0.4669  1.0890 -0.1714
 1947TIP3    H227257   0.311   0.311   0.107 -0.6529 -0.7834 -0.3738
 1948TIP3   OH227258   5.549   2.695  11.465 -0.4095 -0.2820  0.2276
 1948TIP3    H127259   5.623   2.747  11.434 -1.7139  0.6971 -1.2946
 1948TIP3    H227260   5.576   2.604  11.453  0.3384  0.0769 -0.8209
 1949TIP3   OH227261   4.422   0.904   2.328 -0.0045 -0.0713  0.3090
 1949TIP3    H127262   4.337   0.891   2.286  0.6923 -1.0221 -0.8554
 1949TIP3    H227263   4.474   0.828   2.301  1.3548  0.7054  0.6651
 1950TIP3   OH227264   2.801   4.825  11.893  0.0942  0.4998  0.4300
 1950TIP3    H127265   2.889   4.835  11.856  0.2320 -0.1822  0.5655
 1950TIP3    H227266   2.759   4.760  11.838 -1.0543  2.3387 -0.9086
 1951TIP3   OH227267   1.801   4.535  15.130  0.1642  0.3702 -0.5329
 1951TIP3    H127268   1.841   4.473  15.070  1.6560 -1.1588  1.9846
 1951TIP3    H227269   1.873   4.566  15.186 -1.0338  2.3299 -0.0044
 1952TIP3   OH227270   0.936   6.607  11.155 -0.1265 -0.5942  0.2412
 1952TIP3    H127271   0.955   6.515  11.135 -1.1358 -0.7657  0.0401
 1952TIP3    H227272   0.887   6.639  11.078  2.7176  0.9300 -0.9967
 1953TIP3   OH227273   1.691   5.225   3.269 -0.7191  0.2023  0.1950
 1953TIP3    H127274   1.780   5.248   3.295 -1.2877  2.1093  0.5872
 1953TIP3    H227275   1.698   5.138   3.231  1.4843  0.7656 -0.7683
 1954TIP3   OH227276   1.664   4.398  16.573  0.1909 -0.1635 -0.1517
 1954TIP3    H127277   1.722   4.380  16.499 -1.4155  2.4741 -2.1451
 1954TIP3    H227278   1.701   4.476  16.614  0.4879 -1.0179  1.2312
 1955TIP3   OH227279   1.658   1.812  11.303 -0.9647 -0.0068  0.4099
 1955TIP3    H127280   1.660   1.759  11.383  0.8543 -0.3203  0.1843
 1955TIP3    H227281   1.686   1.899  11.331  1.0323 -0.4573 -0.0953
 1956TIP3   OH227282   2.623   5.335  12.233  0.2080 -0.1417  0.3090
 1956TIP3    H127283   2.688   5.264  12.243 -0.0231 -0.1846  1.5809
 1956TIP3    H227284   2.597   5.330  12.141  1.1027 -0.9204  0.0800
 1957TIP3   OH227285   5.403   2.394   6.193 -0.1213  0.4032  0.3439
 1957TIP3    H127286   5.482   2.446   6.208 -0.2239  0.3018  1.2816
 1957TIP3    H227287   5.339   2.456   6.159  0.6176  0.3150 -1.2912
 1958TIP3   OH227288   4.272   0.835  11.408  0.9609  0.4293 -0.6467
 1958TIP3    H127289   4.347   0.877  11.451  1.2233 -0.1926 -0.5018
 1958TIP3    H227290   4.266   0.749  11.449  1.3616 -0.2597 -2.0291
 1959TIP3   OH227291   0.020   2.711  12.160  0.1664 -0.3131 -0.6881
 1959TIP3    H127292   0.046   2.749  12.076  3.7974  1.5013  1.1214
 1959TIP3    H227293  -0.066   2.749  12.178  0.7265  1.7105 -2.1436
 1960TIP3   OH227294   4.072   1.064   4.451 -0.0978 -0.0466  0.1026
 1960TIP3    H127295   4.027   1.124   4.392  1.3453  0.2213 -0.7748
 1960TIP3    H227296   4.048   1.092   4.539 -0.4905  0.9698 -0.3266
 1961TIP3   OH227297   4.245   6.313  15.893  0.1395  0.7220  0.7390
 1961TIP3    H127298   4.249   6.406  15.869 -0.8158  0.1167 -1.9664
 1961TIP3    H227299   4.159   6.284  15.862  0.8127 -1.2824  0.6777
 1962TIP3   OH227300   1.405   1.718  15.542 -0.6127  0.5022  0.1650
 1962TIP3    H127301   1.492   1.683  15.521 -0.6153  1.0767 -0.8270
 1962TIP3    H227302   1.345   1.668  15.486 -0.9866 -0.2545  1.2271
 1963TIP3   OH227303   6.428   4.590   4.403  0.3064  0.1227 -0.1334
 1963TIP3    H127304   6.427   4.683   4.424 -0.5074 -0.2169  1.3570
 1963TIP3    H227305   6.405   4.546   4.484  2.2266 -1.4815 -0.4114
 1964TIP3   OH227306   2.125   6.711  12.372 -0.0185 -0.2832 -0.3551
 1964TIP3    H127307   2.066   6.760  12.314 -0.1078 -0.0455 -0.0639
 1964TIP3    H227308   2.199   6.688  12.315  0.2143  0.5479 -0.4020
 1965TIP3   OH227309   4.858   1.538  12.716  0.7844 -0.2470  0.0983
 1965TIP3    H127310   4.870   1.630  12.737 -1.9910 -0.1741  1.6527
 1965TIP3    H227311   4.923   1.520  12.648  0.3647  3.2344 -1.3343
 1966TIP3   OH227312   2.007   6.589  14.687  0.1778 -0.1801 -0.3004
 1966TIP3    H127313   1.995   6.515  14.627  0.4905 -1.6813  1.4316
 1966TIP3    H227314   1.995   6.551  14.774  1.0960  1.6635  0.6553
 1967TIP3   OH227315   1.816   2.889   4.415  0.3596  0.0009 -0.4198
 1967TIP3    H127316   1.821   2.959   4.350 -0.1713  0.6635  0.2436
 1967TIP3    H227317   1.886   2.909   4.478 -0.8824  0.8840  0.6895
 1968TIP3   OH227318   3.006   4.272   5.244 -0.1974  0.3114 -0.7109
 1968TIP3    H127319   3.042   4.272   5.156 -1.0695 -0.3757 -1.0727
 1968TIP3    H227320   2.945   4.347   5.245  1.5894  1.8037  0.0640
 1969TIP3   OH227321   3.724   6.242   2.458  0.0219  0.4585  0.3683
 1969TIP3    H127322   3.639   6.272   2.489 -0.1220  1.4590 -0.9353
 1969TIP3    H227323   3.726   6.267   2.365  1.2104 -0.7096  0.0567
 1970TIP3   OH227324   6.727   5.290  13.990 -0.1660 -0.1660  0.6944
 1970TIP3    H127325   6.820   5.301  14.010 -0.2321 -1.0341  1.4975
 1970TIP3    H227326   6.718   5.198  13.965 -0.5217  0.3138 -1.0035
 1971TIP3   OH227327   2.965   0.313  13.983  0.3765 -0.2200  0.6284
 1971TIP3    H127328   2.879   0.270  13.979 -0.5131  1.3739  1.8820
 1971TIP3    H227329   2.976   0.352  13.896 -0.2474 -0.3039  0.5081
 1972TIP3   OH227330   5.893   0.485  15.322  0.5928 -0.3433  0.1339
 1972TIP3    H127331   5.912   0.496  15.229 -0.9726  0.1970 -0.1372
 1972TIP3    H227332   5.973   0.514  15.367  0.9783  0.3602 -1.0037
 1973TIP3   OH227333   3.610   2.702   5.562 -0.2711 -0.1447 -0.3357
 1973TIP3    H127334   3.565   2.625   5.597 -3.0857  2.1040  1.2330
 1973TIP3    H227335   3.630   2.755   5.640  2.9027  0.1152 -1.2577
 1974TIP3   OH227336   5.050   3.487  15.510 -0.3976  0.2340  0.8545
 1974TIP3    H127337   5.093   3.410  15.473 -1.5483  0.4545 -1.0226
 1974TIP3    H227338   5.119   3.554  15.513 -0.1374  0.0540 -0.4524
 1975TIP3   OH227339   6.523   5.665  15.072 -0.9391  0.3187 -0.3498
 1975TIP3    H127340   6.550   5.618  15.151  1.8094  0.7179 -1.0088
 1975TIP3    H227341   6.454   5.725  15.101  0.5078  0.9307  1.8667
 1976TIP3   OH227342   5.563   4.439  12.662  0.8489 -0.2184 -0.0967
 1976TIP3    H127343   5.541   4.527  12.691  0.6518 -0.1412 -0.4769
 1976TIP3    H227344   5.627   4.408  12.725  0.8250  0.1522  0.1086
 1977TIP3   OH227345   0.456   4.032   4.698  0.2360  0.0024 -0.1857
 1977TIP3    H127346   0.472   3.948   4.742 -1.1286  0.8991  2.1239
 1977TIP3    H227347   0.437   4.093   4.769  0.8589  2.2065 -1.8602
 1978TIP3   OH227348   0.257   6.431  15.639 -0.6221 -0.7141 -0.2299
 1978TIP3    H127349   0.171   6.468  15.659 -1.4982 -0.3276 -4.1499
 1978TIP3    H227350   0.241   6.338  15.624  0.2565 -1.2878  2.2839
 1979TIP3   OH227351   6.155   4.780  13.209  0.1965  0.2158  0.3594
 1979TIP3    H127352   6.123   4.870  13.203  1.5275  0.5994 -1.1738
 1979TIP3    H227353   6.130   4.740  13.126  1.8801 -0.0807 -0.0101
 1980TIP3   OH227354   1.071   0.908  13.671 -0.3087  0.1485  0.4244
 1980TIP3    H127355   1.050   0.956  13.591  0.4746 -0.2628 -0.0339
 1980TIP3    H227356   1.029   0.823  13.660  0.6883 -0.2996 -0.0382
 1981TIP3   OH227357   0.213   1.823   4.395 -0.5736  0.4082  0.3034
 1981TIP3    H127358   0.132   1.774   4.378  1.1026 -2.2344 -0.3385
 1981TIP3    H227359   0.258   1.772   4.461  1.5052  0.7526 -0.8081
 1982TIP3   OH227360   0.601   1.752   2.133 -0.4204  0.4124  0.2114
 1982TIP3    H127361   0.657   1.692   2.084 -0.4739  0.1980  0.4131
 1982TIP3    H227362   0.517   1.707   2.140  0.0861 -0.2960  1.9653
 1983TIP3   OH227363   2.876   0.848  11.479  0.5609  0.3701  0.0458
 1983TIP3    H127364   2.827   0.767  11.465  2.9596 -1.3247  1.0822
 1983TIP3    H227365   2.913   0.869  11.393  0.9655 -0.3632  0.0326
 1984TIP3   OH227366   4.272   0.979  15.485 -0.2997 -0.1323  0.0732
 1984TIP3    H127367   4.181   0.967  15.458 -0.1983 -0.2475 -0.2287
 1984TIP3    H227368   4.317   0.901  15.452  0.1190  0.4510 -0.7649
 1985TIP3   OH227369   3.591   1.285   3.311 -0.5482 -0.4810  0.2613
 1985TIP3    H127370   3.618   1.362   3.262 -1.2973  0.8539  1.8979
 1985TIP3    H227371   3.531   1.238   3.253 -2.6560  1.8988  0.4412
 1986TIP3   OH227372   1.331   3.991  13.623  0.7204  0.0062 -0.0241
 1986TIP3    H127373   1.301   3.975  13.533  1.3098 -1.7488  0.0773
 1986TIP3    H227374   1.412   3.942  13.630 -1.9744 -4.3574  3.0565
 1987TIP3   OH227375   1.151   4.627  16.068 -0.1411  0.0183  0.0158
 1987TIP3    H127376   1.196   4.633  16.152 -2.4794 -1.7907  1.4521
 1987TIP3    H227377   1.124   4.536  16.061  1.4482 -0.2340 -3.5001
 1988TIP3   OH227378   6.037   4.102  11.458  0.2702  0.6517  0.2994
 1988TIP3    H127379   5.952   4.081  11.497 -1.0296  2.7485 -1.2625
 1988TIP3    H227380   6.079   4.161  11.522 -1.0378  2.5397 -0.5331
 1989TIP3   OH227381   0.719   5.134   3.251  0.0238 -0.4889 -0.2136
 1989TIP3    H127382   0.714   5.088   3.167 -1.4008  0.1616 -0.4991
 1989TIP3    H227383   0.726   5.064   3.316 -0.8318 -1.0697 -0.7323
 1990TIP3   OH227384   4.676   1.546  13.896 -0.4094 -0.2645 -0.0852
 1990TIP3    H127385   4.602   1.572  13.841 -0.0885  1.8937  0.4842
 1990TIP3    H227386   4.690   1.454  13.874 -0.9071  0.2907 -2.9353
 1991TIP3   OH227387   5.315   5.758   0.248  0.4870 -0.5214  0.3137
 1991TIP3    H127388   5.386   5.786   0.190 -1.9189  2.4462 -1.4061
 1991TIP3    H227389   5.317   5.821   0.320 -0.7232 -0.0323 -0.0606
 1992TIP3   OH227390   1.946   4.327  10.462  0.0326 -0.5653 -0.3102
 1992TIP3    H127391   1.995   4.305  10.542  2.5234 -0.0875 -1.6488
 1992TIP3    H227392   1.965   4.419  10.447  0.1867 -0.8274 -1.8268
 1993TIP3   OH227393   0.948   5.767  15.023 -0.5006  0.2214 -0.0960
 1993TIP3    H127394   0.963   5.687  14.972  3.4762  1.9254 -1.7968
 1993TIP3    H227395   0.935   5.835  14.957 -0.6091  1.5747  1.2941
 1994TIP3   OH227396   5.165   4.382   0.520 -0.1841  0.1163 -0.5449
 1994TIP3    H127397   5.104   4.393   0.593 -0.4688  1.1576 -0.9209
 1994TIP3    H227398   5.232   4.448   0.536  0.4514 -0.5316 -0.5291
 1995TIP3   OH227399   1.559   3.661   3.165 -0.0515  0.2634 -0.5287
 1995TIP3    H127400   1.535   3.589   3.107  0.2676 -0.6128  0.4070
 1995TIP3    H227401   1.633   3.628   3.216 -1.1536  0.5306  1.2989
 1996TIP3   OH227402   3.175   2.712  11.415  0.2343  0.3686 -0.5641
 1996TIP3    H127403   3.140   2.802  11.410  0.0217  0.3064 -0.2447
 1996TIP3    H227404   3.212   2.696  11.328  0.3527  0.7982 -0.5939
 1997TIP3   OH227405   1.071   4.598   1.059 -0.0805  0.6719  0.0689
 1997TIP3    H127406   1.004   4.625   1.122 -0.5467 -0.8811  0.2465
 1997TIP3    H227407   1.099   4.512   1.089  2.8850  1.7991  0.7002
 1998TIP3   OH227408   3.273   1.083  15.372 -0.2519  0.0727 -0.1070
 1998TIP3    H127409   3.354   1.108  15.418  0.7012 -1.2060 -1.0562
 1998TIP3    H227410   3.269   1.143  15.298  0.3136 -0.4393 -0.5599
 1999TIP3   OH227411   2.960   3.256   0.400 -0.1625 -0.3817 -0.1933
 1999TIP3    H127412   2.982   3.346   0.378 -0.9733 -0.5441 -1.7077
 1999TIP3    H227413   2.931   3.260   0.491 -0.5732  0.9516 -0.3753
 2000TIP3   OH227414   4.791   3.387  17.239  0.4060 -0.1960  0.9807
 2000TIP3    H127415   4.768   3.465  17.290  1.3210  2.5269 -2.5480
 2000TIP3    H227416   4.848   3.420  17.169 -1.2120 -3.6184 -2.1366
 2001TIP3   OH227417   2.387   5.697  17.139 -0.3034  0.1068  0.6006
 2001TIP3    H127418   2.360   5.635  17.207  0.3011 -0.7443  0.0843
 2001TIP3    H227419   2.379   5.647  17.057 -2.0127  1.4310 -0.0792
 2002TIP3   OH227420   2.012   1.691  10.619  0.3375 -0.0213 -0.0804
 2002TIP3    H127421   1.922   1.675  10.648  0.9736  2.3157  3.4682
 2002TIP3    H227422   2.041   1.606  10.584 -2.6216 -1.2888  0.3402
 2003TIP3   OH227423   6.595   1.439  12.691  0.2270  0.1707 -0.1421
 2003TIP3    H127424   6.687   1.457  12.708  0.3645  0.5870 -1.3234
 2003TIP3    H227425   6.551   1.523  12.705  0.0583  0.0335  0.1673
 2004TIP3   OH227426   1.080   1.297   0.257  0.0871 -0.1798  0.1138
 2004TIP3    H127427   1.054   1.221   0.205  0.8540 -0.7553  0.5681
 2004TIP3    H227428   1.059   1.272   0.347 -0.5826  0.5371  0.1627
 2005TIP3   OH227429   1.543   5.600  10.726 -0.0249 -0.0730  0.2049
 2005TIP3    H127430   1.554   5.550  10.645 -0.7523 -0.7069  0.4898
 2005TIP3    H227431   1.588   5.683  10.709  0.2166 -0.3731 -0.6811
 2006TIP3   OH227432   4.411   5.602  15.279 -0.3444  0.4088  0.5241
 2006TIP3    H127433   4.442   5.674  15.333 -1.5820  1.7390 -0.5123
 2006TIP3    H227434   4.316   5.612  15.277 -0.3617  0.0866 -1.4733
 2007TIP3   OH227435   4.420   3.356  11.034 -0.1490 -0.0290 -0.0108
 2007TIP3    H127436   4.465   3.349  11.118 -0.6436 -0.6331  0.2040
 2007TIP3    H227437   4.336   3.313  11.048 -0.6174  0.7136 -0.5416
 2008TIP3   OH227438   1.722   5.363  14.498  0.0296  0.2918  0.1518
 2008TIP3    H127439   1.706   5.357  14.592  2.0209 -0.6016  0.4582
 2008TIP3    H227440   1.637   5.345  14.458 -0.5398 -0.6503  1.7500
 2009TIP3   OH227441   0.019   0.630   6.141 -0.5055 -0.1592 -0.0483
 2009TIP3    H127442  -0.030   0.678   6.208  1.8036  1.5797  0.4513
 2009TIP3    H227443   0.040   0.547   6.182  0.6454  0.7796  1.3149
 2010TIP3   OH227444   3.839   4.874  15.690 -0.2107 -0.5395 -0.2967
 2010TIP3    H127445   3.744   4.869  15.701 -0.3126  3.3837  1.3139
 2010TIP3    H227446   3.874   4.870  15.779  1.0312 -0.1818 -0.7626
 2011TIP3   OH227447   5.266   3.554  15.817 -0.2248 -0.6210  0.0922
 2011TIP3    H127448   5.260   3.506  15.900 -1.6571 -0.4315  0.1134
 2011TIP3    H227449   5.177   3.589  15.804  0.0854 -0.3791 -1.3596
 2012TIP3   OH227450   0.509   0.980  12.464 -0.6414  0.1062 -0.4199
 2012TIP3    H127451   0.588   1.028  12.439 -1.1989  1.7297  0.8609
 2012TIP3    H227452   0.437   1.040  12.445 -1.4792 -0.8125 -0.2072
 2013TIP3   OH227453   4.011   2.821  14.554 -0.0526  0.1992  0.3666
 2013TIP3    H127454   4.031   2.763  14.627  1.0520  0.3381  0.1832
 2013TIP3    H227455   4.015   2.909  14.590  0.0572  0.2476  0.2367
 2014TIP3   OH227456   1.874   3.347   2.211 -0.5048  0.6462 -0.4673
 2014TIP3    H127457   1.838   3.326   2.297  2.1773  1.7807  0.9889
 2014TIP3    H227458   1.858   3.441   2.201  1.4793  1.0438 -0.0491
 2015TIP3   OH227459   6.568   1.162  14.780  0.0601 -0.0867 -0.4265
 2015TIP3    H127460   6.618   1.097  14.731 -1.4925 -0.7546 -1.1474
 2015TIP3    H227461   6.532   1.114  14.854  0.7589  0.4792  0.2979
 2016TIP3   OH227462   1.016   2.812  15.306 -0.6036  0.1025 -0.6544
 2016TIP3    H127463   1.089   2.751  15.319 -0.9606 -0.5633 -1.7650
 2016TIP3    H227464   0.988   2.797  15.216 -2.8497 -0.4370  0.1136
 2017TIP3   OH227465   1.263   1.968   0.955  0.0622  0.1751  0.9103
 2017TIP3    H127466   1.185   2.004   0.997  0.1451  0.3940  0.8738
 2017TIP3    H227467   1.235   1.950   0.865  0.3783  1.2998  0.5893
 2018TIP3   OH227468   3.841   2.408  12.928  1.2420 -0.3374  0.2940
 2018TIP3    H127469   3.782   2.399  13.003  2.1219 -1.2129  0.8897
 2018TIP3    H227470   3.928   2.419  12.966  1.7571 -1.2198 -0.5827
 2019TIP3   OH227471   0.999   4.096  11.581  0.3052 -0.1275  0.1242
 2019TIP3    H127472   0.909   4.062  11.581 -0.1596  1.0969 -0.7803
 2019TIP3    H227473   1.050   4.026  11.541 -0.3674 -0.5063 -0.0884
 2020TIP3   OH227474   5.694   5.764   3.865 -0.0740 -0.4691 -0.2409
 2020TIP3    H127475   5.728   5.846   3.829 -0.6219 -0.4765 -0.7931
 2020TIP3    H227476   5.753   5.742   3.936  1.1499 -0.5356 -1.2559
 2021TIP3   OH227477   1.902   6.227  15.440  0.0127 -0.0521  0.8205
 2021TIP3    H127478   1.962   6.153  15.432 -0.6046 -0.6399  1.6511
 2021TIP3    H227479   1.957   6.298  15.475  0.0705 -0.7701  2.1722
 2022TIP3   OH227480   6.753   4.496  16.251 -0.1323  0.4627 -0.1978
 2022TIP3    H127481   6.691   4.565  16.276 -1.5752 -0.9424  0.2805
 2022TIP3    H227482   6.761   4.503  16.156 -1.1455  0.6112 -0.2853
 2023TIP3   OH227483   2.381   2.401   6.180  0.5133 -0.3012  0.1458
 2023TIP3    H127484   2.392   2.435   6.269  0.3821 -1.1310  0.4871
 2023TIP3    H227485   2.364   2.479   6.126 -0.7088  0.0870  1.0553
 2024TIP3   OH227486   0.938   3.783  12.616 -0.4312 -0.1629 -0.6126
 2024TIP3    H127487   0.966   3.691  12.609 -0.5592 -0.2230 -0.3479
 2024TIP3    H227488   0.890   3.787  12.699 -1.3960 -0.1108 -1.1742
 2025TIP3   OH227489   1.721   2.687   5.027 -0.5650 -0.2353 -0.6589
 2025TIP3    H127490   1.710   2.762   5.086 -1.4999 -0.4372 -0.5634
 2025TIP3    H227491   1.714   2.724   4.939  2.4533  0.3270 -0.7224
 2026TIP3   OH227492   5.733   2.546   1.049 -0.1809 -0.0867 -0.2981
 2026TIP3    H127493   5.730   2.641   1.061 -0.9647 -0.2471  0.8380
 2026TIP3    H227494   5.812   2.531   0.997  1.1933  1.0070  1.4164
 2027TIP3   OH227495   1.611   5.234  13.253 -0.1134  0.2537 -0.7615
 2027TIP3    H127496   1.692   5.236  13.303 -0.8339  1.8388  0.3816
 2027TIP3    H227497   1.611   5.316  13.204 -0.1686 -0.5740 -2.1792
 2028TIP3   OH227498   3.168   0.949  15.712 -0.1372  0.1192  0.4699
 2028TIP3    H127499   3.165   0.934  15.807  2.0279 -3.9616  0.0293
 2028TIP3    H227500   3.261   0.965  15.694 -0.3468 -0.3126 -1.0678
 2029TIP3   OH227501   2.865   3.105   1.298  0.4485 -0.0889  1.0340
 2029TIP3    H127502   2.918   3.036   1.258 -0.8392 -0.3209 -0.2884
 2029TIP3    H227503   2.809   3.059   1.360  1.4378  0.1054  2.1022
 2030TIP3   OH227504   5.044   6.614   2.648  0.2331 -0.0615 -0.2265
 2030TIP3    H127505   5.029   6.519   2.641 -0.5185  0.1838 -2.2921
 2030TIP3    H227506   5.031   6.633   2.741 -2.5324 -1.5238 -0.2618
 2031TIP3   OH227507   1.533   3.313  12.649  0.3184  0.1822  0.0922
 2031TIP3    H127508   1.596   3.346  12.713 -0.7350 -1.0270  1.7946
 2031TIP3    H227509   1.479   3.389  12.628  2.0803  1.1363 -1.1015
 2032TIP3   OH227510   2.208   4.690  14.627 -0.0061 -0.3550  0.4942
 2032TIP3    H127511   2.259   4.654  14.555 -0.6049 -0.6513  0.2119
 2032TIP3    H227512   2.130   4.727  14.585 -0.9993 -1.7147  1.1143
 2033TIP3   OH227513   0.260   4.448   4.870 -0.2657 -0.2683 -0.2365
 2033TIP3    H127514   0.290   4.532   4.836  0.4666 -0.4959 -0.1724
 2033TIP3    H227515   0.171   4.439   4.837 -0.3098  0.4808 -0.3348
 2034TIP3   OH227516   4.354   4.160   4.062  0.3395  0.0347 -0.5164
 2034TIP3    H127517   4.319   4.245   4.034 -0.5533  0.7575  2.5146
 2034TIP3    H227518   4.444   4.178   4.087  0.0112  0.2444  0.5779
 2035TIP3   OH227519   2.374   3.137  12.765  0.2036  0.3814  0.8455
 2035TIP3    H127520   2.290   3.106  12.732 -0.7184  2.6886  0.9352
 2035TIP3    H227521   2.436   3.068  12.742 -1.0119  0.3901 -2.7462
 2036TIP3   OH227522   5.251   0.073  11.079  0.1051  0.4607 -0.1151
 2036TIP3    H127523   5.165   0.031  11.071 -0.3024  1.5771 -1.9820
 2036TIP3    H227524   5.241   0.156  11.032  2.8926 -0.4584 -2.4788
 2037TIP3   OH227525   3.419   2.204   0.465  0.3450  0.3157 -0.2381
 2037TIP3    H127526   3.496   2.196   0.409 -0.5399  0.2219 -1.4700
 2037TIP3    H227527   3.424   2.292   0.501  0.0355  1.0085 -1.8303
 2038TIP3   OH227528   0.829   5.431   5.375  0.1465  0.4316 -0.4932
 2038TIP3    H127529   0.874   5.515   5.383 -0.6642  0.8463 -0.2048
 2038TIP3    H227530   0.772   5.426   5.452  1.4335 -1.1601  0.3945
 2039TIP3   OH227531   5.872   4.590  12.107 -0.2573  0.2446  0.8292
 2039TIP3    H127532   5.824   4.608  12.187  1.3077  2.6094  1.2844
 2039TIP3    H227533   5.834   4.649  12.042 -1.8334 -1.9782 -0.3453
 2040TIP3   OH227534   2.452   2.116   0.596  0.8104  0.3305  0.0029
 2040TIP3    H127535   2.541   2.117   0.632  1.0227  0.5484 -0.5367
 2040TIP3    H227536   2.449   2.035   0.544  0.7865  0.4784 -0.2234
 2041TIP3   OH227537   5.838   5.557  12.542  0.1103 -0.4212 -0.2563
 2041TIP3    H127538   5.884   5.488  12.495  1.0838 -0.5261  0.8053
 2041TIP3    H227539   5.859   5.541  12.634  0.0778  1.0963  0.0313
 2042TIP3   OH227540   2.624   6.201   1.049  0.3869  0.0461  0.2274
 2042TIP3    H127541   2.603   6.150   1.128 -0.7951 -1.4959 -1.0449
 2042TIP3    H227542   2.588   6.288   1.067  0.1798 -0.2701  1.4203
 2043TIP3   OH227543   4.060   1.154  16.249 -0.5451 -0.2673 -0.2797
 2043TIP3    H127544   4.090   1.088  16.311 -1.4590 -0.0944  0.3495
 2043TIP3    H227545   4.108   1.233  16.272 -2.4264  0.3735  1.5917
 2044TIP3   OH227546   3.199   1.562   5.606 -0.1438 -0.2565 -0.1590
 2044TIP3    H127547   3.159   1.501   5.544  1.6839 -1.7480  0.0633
 2044TIP3    H227548   3.184   1.522   5.691 -2.5429  1.7258  0.3920
 2045TIP3   OH227549   1.653   2.791  11.172  0.1268  0.2707 -0.1731
 2045TIP3    H127550   1.728   2.747  11.132  0.6869  2.2312 -1.3293
 2045TIP3    H227551   1.644   2.873  11.123 -0.5258  1.7342  2.3283
 2046TIP3   OH227552   3.190   5.181  15.914  0.3509  0.0091 -0.3936
 2046TIP3    H127553   3.250   5.106  15.912  1.4719  0.8816 -0.1698
 2046TIP3    H227554   3.245   5.256  15.890 -0.1862  1.1347  1.7422
 2047TIP3   OH227555   0.713   0.552  17.196  0.7702  0.2879 -0.4647
 2047TIP3    H127556   0.784   0.536  17.134  0.8975 -0.5331 -0.1155
 2047TIP3    H227557   0.755   0.545  17.282 -0.0259 -1.6665 -0.2148
 2048TIP3   OH227558   2.613   0.093   5.900 -0.1281  0.3664 -0.0773
 2048TIP3    H127559   2.530   0.096   5.947 -0.4560 -0.4485 -0.5980
 2048TIP3    H227560   2.589   0.069   5.810  0.6403  0.4174 -0.3010
 2049TIP3   OH227561   4.030   3.029  11.562  0.3054  0.6623 -0.0922
 2049TIP3    H127562   4.011   3.028  11.468  2.7566 -0.6062 -0.6066
 2049TIP3    H227563   3.987   3.109  11.594 -0.6247  1.0577 -2.2587
 2050TIP3   OH227564   1.571   3.407   6.147  0.5362  0.3592 -0.0792
 2050TIP3    H127565   1.645   3.465   6.130  1.1545 -0.2148  0.6339
 2050TIP3    H227566   1.494   3.465   6.147  0.8318  0.7804 -2.0388
 2051TIP3   OH227567   2.773   5.190   3.642 -0.0654 -0.2820 -0.0156
 2051TIP3    H127568   2.851   5.138   3.621  0.9331  1.0255  0.3229
 2051TIP3    H227569   2.791   5.225   3.730 -0.0132  1.8296 -0.8261
 2052TIP3   OH227570   3.275   0.511   1.448  0.1781 -0.8234 -0.1574
 2052TIP3    H127571   3.271   0.514   1.544  1.5441 -0.9513 -0.0856
 2052TIP3    H227572   3.186   0.532   1.420 -0.3694 -1.3103  1.1485
 2053TIP3   OH227573   3.067   3.198  12.064  0.0601 -0.1566  0.1789
 2053TIP3    H127574   3.064   3.158  11.977 -0.1970  0.3757 -0.0610
 2053TIP3    H227575   3.146   3.252  12.063 -0.4228  0.5467 -0.0349
 2054TIP3   OH227576   3.983   1.610   1.722  0.3091  0.1866 -0.0326
 2054TIP3    H127577   4.035   1.632   1.645 -0.6506  0.5786 -0.5786
 2054TIP3    H227578   3.894   1.639   1.701 -0.0313  0.0170  1.0954
 2055TIP3   OH227579   1.435   4.151   3.968  0.3357 -0.2106 -0.4074
 2055TIP3    H127580   1.521   4.158   4.009 -0.0693  0.8225  0.2895
 2055TIP3    H227581   1.401   4.241   3.968 -0.8159 -0.6320 -0.5228
 2056TIP3   OH227582   4.158   2.406   0.175  0.0921  0.3959  0.0443
 2056TIP3    H127583   4.238   2.383   0.222 -0.0680  1.6993  0.9648
 2056TIP3    H227584   4.088   2.365   0.225 -0.0229  1.2622  0.5981
 2057TIP3   OH227585   0.171   2.057   6.365  0.2733  0.1461 -0.5084
 2057TIP3    H127586   0.162   2.007   6.283 -2.7603 -3.2108  1.7010
 2057TIP3    H227587   0.098   2.118   6.364  0.8327  0.8257 -0.7147
 2058TIP3   OH227588   2.113   5.913  14.992  0.0394  0.3525 -0.7158
 2058TIP3    H127589   2.151   5.841  14.942 -0.3826 -0.7939  0.5790
 2058TIP3    H227590   2.188   5.959  15.030  0.2805  0.1997 -1.0084
 2059TIP3   OH227591   6.664   2.398  13.505  0.7366 -0.2782  0.0776
 2059TIP3    H127592   6.610   2.470  13.470  1.3222  0.2669  0.2836
 2059TIP3    H227593   6.693   2.430  13.591 -2.3313 -2.4012  1.9857
 2060TIP3   OH227594   1.610   0.524   2.927  0.2552 -0.6483  0.1101
 2060TIP3    H127595   1.619   0.429   2.939  0.8727 -0.6829 -0.6347
 2060TIP3    H227596   1.604   0.536   2.833 -0.9737 -0.0369  0.2579
 2061TIP3   OH227597   4.182   4.820  16.527  0.5699  0.4617 -0.0666
 2061TIP3    H127598   4.195   4.891  16.590 -1.6442  0.2429  0.6477
 2061TIP3    H227599   4.118   4.855  16.465  3.1882  0.9261 -2.6197
 2062TIP3   OH227600   4.834   1.020   1.637 -0.3104  0.4472  0.0670
 2062TIP3    H127601   4.878   0.947   1.682 -0.0540 -0.2009 -1.2070
 2062TIP3    H227602   4.741   0.997   1.641 -0.1590 -0.4131 -1.1185
 2063TIP3   OH227603   4.774   3.490   1.229 -0.0175 -0.2278 -0.6416
 2063TIP3    H127604   4.827   3.522   1.156 -1.6036 -0.6638 -1.9951
 2063TIP3    H227605   4.821   3.521   1.307 -0.2320  3.3282 -1.8531
 2064TIP3   OH227606   1.976   2.704   1.520 -0.0525 -0.4930 -0.3710
 2064TIP3    H127607   2.026   2.782   1.496 -1.1221 -0.3751 -2.3892
 2064TIP3    H227608   2.018   2.633   1.471  0.3838 -1.0311  0.7787
 2065TIP3   OH227609   6.068   1.414   4.621 -0.2792 -0.5309 -0.0530
 2065TIP3    H127610   6.086   1.483   4.557 -2.8497  1.0776  0.8842
 2065TIP3    H227611   6.048   1.337   4.568 -0.3200  0.2188 -1.1526
 2066TIP3   OH227612   5.600   5.005   0.053  0.1701 -0.7549  0.2059
 2066TIP3    H127613   5.523   5.043   0.009  1.5774  0.3116 -1.3767
 2066TIP3    H227614   5.582   5.018   0.146 -0.4968  1.6806 -0.2148
 2067TIP3   OH227615   2.412   0.706  13.068  0.4723  0.5202 -0.5396
 2067TIP3    H127616   2.388   0.711  12.976  2.4156 -2.1596 -1.2629
 2067TIP3    H227617   2.501   0.742  13.072  0.5146  0.3476  0.2072
 2068TIP3   OH227618   2.996   1.129  16.274 -0.0044 -0.0598  0.0773
 2068TIP3    H127619   2.958   1.042  16.281 -0.2636  0.1287  1.0092
 2068TIP3    H227620   3.090   1.116  16.283 -0.2014  0.0090  2.5663
 2069TIP3   OH227621   0.314   5.770   1.445  0.4608 -0.6553 -0.1873
 2069TIP3    H127622   0.374   5.841   1.420 -0.1832 -0.3259 -0.8156
 2069TIP3    H227623   0.328   5.759   1.539 -1.0401  1.8642  0.3749
 2070TIP3   OH227624   0.942   1.099   3.002 -0.2261  0.0015  0.7270
 2070TIP3    H127625   1.008   1.066   3.062 -1.0312 -0.9765  1.0961
 2070TIP3    H227626   0.918   1.022   2.949 -0.5407  0.5183  0.1174
 2071TIP3   OH227627   0.005   3.187  16.665 -0.7389 -0.1587 -0.0115
 2071TIP3    H127628   0.039   3.164  16.752 -0.1502  0.5245 -0.0585
 2071TIP3    H227629   0.063   3.257  16.634 -0.4488 -0.9560 -1.3008
 2072TIP3   OH227630   1.289   2.855   3.605 -0.9016 -0.5360  0.1300
 2072TIP3    H127631   1.310   2.909   3.529 -0.6477  0.7576  1.1116
 2072TIP3    H227632   1.299   2.765   3.573 -0.5666 -0.0098 -1.2980
 2073TIP3   OH227633   3.590   6.323   4.849 -0.9951 -0.5218 -0.0865
 2073TIP3    H127634   3.503   6.339   4.814  0.6917  2.6106 -3.0888
 2073TIP3    H227635   3.598   6.381   4.924 -1.2000 -0.2522 -0.2761
 2074TIP3   OH227636   1.315   5.691   3.258 -0.5187  0.1762 -0.3225
 2074TIP3    H127637   1.262   5.770   3.268  1.0774  1.3914 -1.2476
 2074TIP3    H227638   1.283   5.651   3.178 -0.4438  0.5871 -0.5587
 2075TIP3   OH227639   5.553   6.577   5.623 -0.5864  0.2108 -0.1417
 2075TIP3    H127640   5.598   6.515   5.681 -1.6344 -0.2308  0.2062
 2075TIP3    H227641   5.621   6.606   5.562 -0.3409 -2.2173 -1.1003
 2076TIP3   OH227642   0.453   3.063   0.024 -0.4568  0.3367  0.2916
 2076TIP3    H127643   0.497   3.037   0.106 -0.1755  0.9334  0.3351
 2076TIP3    H227644   0.458   2.985  -0.031 -0.7352 -0.1055  0.8770
 2077TIP3   OH227645   4.241   3.925  10.329 -0.4322  0.3343  0.2442
 2077TIP3    H127646   4.160   3.974  10.315 -0.9977 -0.2949  1.2392
 2077TIP3    H227647   4.310   3.991  10.323 -0.9394  0.7317 -1.4501
 2078TIP3   OH227648   2.839   4.921  14.860 -0.1457 -0.0681 -0.7378
 2078TIP3    H127649   2.880   4.972  14.930 -2.0355  1.1761 -0.5318
 2078TIP3    H227650   2.883   4.836  14.865  0.9727  0.5674  0.8135
 2079TIP3   OH227651   3.205   5.477   0.883  0.1493  0.3139 -0.7370
 2079TIP3    H127652   3.270   5.455   0.950 -1.5818  0.7851  1.1608
 2079TIP3    H227653   3.215   5.572   0.871 -1.4547  0.7073  0.9539
 2080TIP3   OH227654   0.129   5.467   0.726 -0.1618  0.1971  0.5295
 2080TIP3    H127655   0.164   5.385   0.693 -3.7296  0.6861 -5.1039
 2080TIP3    H227656   0.058   5.440   0.785 -0.0610 -0.7836  0.2144
 2081TIP3   OH227657   2.568   6.548   5.296 -0.0794 -0.5242 -0.1193
 2081TIP3    H127658   2.604   6.460   5.284 -0.7480 -0.7255 -0.7286
 2081TIP3    H227659   2.492   6.535   5.352  0.2641 -0.2268  0.4177
 2082TIP3   OH227660   0.358   3.536   6.438 -0.1141 -0.5550  0.3792
 2082TIP3    H127661   0.446   3.538   6.400 -1.1809  2.5217 -2.1674
 2082TIP3    H227662   0.371   3.505   6.527  4.0777  3.1859  1.2326
 2083TIP3   OH227663   1.745   3.161   0.990  0.4259 -0.2166 -0.5678
 2083TIP3    H127664   1.703   3.145   0.906 -0.1306  0.4937 -0.4386
 2083TIP3    H227665   1.671   3.174   1.051  0.7959  2.6800 -0.6531
 2084TIP3   OH227666   5.898   2.705   2.346 -0.4405 -0.6721  0.3565
 2084TIP3    H127667   5.964   2.742   2.287 -0.7846 -2.4063 -1.1932
 2084TIP3    H227668   5.945   2.637   2.395 -0.8274 -1.2274 -0.0333
 2085TIP3   OH227669   3.491   3.148  16.655 -0.1860 -0.3455 -0.1497
 2085TIP3    H127670   3.567   3.204  16.670 -0.0019  0.4386 -3.7080
 2085TIP3    H227671   3.416   3.204  16.675  0.1015 -0.3570  0.9776
 2086TIP3   OH227672   5.008   3.914  12.409 -0.1009  0.2846 -0.2161
 2086TIP3    H127673   5.030   3.823  12.429 -1.9100  0.1159  1.1117
 2086TIP3    H227674   5.054   3.966  12.475 -0.9364  0.1660  0.4648
 2087TIP3   OH227675   4.883   1.895  11.213 -0.1377 -0.5238  0.0463
 2087TIP3    H127676   4.864   1.987  11.230 -0.3238 -0.5959  0.2387
 2087TIP3    H227677   4.852   1.879  11.124  0.5539 -0.2211 -0.2554
 2088TIP3   OH227678   2.171   3.997   2.851  0.0914  0.4735 -0.6465
 2088TIP3    H127679   2.223   3.965   2.777  2.1385  1.4515  0.3216
 2088TIP3    H227680   2.180   3.928   2.917 -0.1139  0.5051 -0.5858
 2089TIP3   OH227681   2.666   3.988  12.460 -0.2456 -0.1538  0.3039
 2089TIP3    H127682   2.691   3.896  12.471 -1.7681 -0.7918 -1.3362
 2089TIP3    H227683   2.571   3.989  12.474 -0.3264  1.0646 -0.3088
 2090TIP3   OH227684   6.186   4.036  12.964  0.5931  0.0182 -0.2240
 2090TIP3    H127685   6.112   4.096  12.951  0.6454 -0.1047 -1.0738
 2090TIP3    H227686   6.257   4.073  12.912  1.1072  0.0877  0.5260
 2091TIP3   OH227687   3.465   5.632   2.099 -0.2434 -0.2069 -0.5152
 2091TIP3    H127688   3.527   5.680   2.045  0.7039 -0.2674  0.4969
 2091TIP3    H227689   3.382   5.679   2.089  0.1743  0.3927 -1.1690
 2092TIP3   OH227690   3.335   3.047   0.545  0.2222 -0.6121  0.2807
 2092TIP3    H127691   3.405   3.000   0.590  0.2190 -1.3286 -0.4581
 2092TIP3    H227692   3.290   2.980   0.493  0.2345  0.2034 -0.8059
 2093TIP3   OH227693   3.954   0.329  14.283 -0.1575 -0.0815  0.4479
 2093TIP3    H127694   3.871   0.351  14.326  0.4095 -0.0195  1.5283
 2093TIP3    H227695   3.984   0.250  14.328 -0.0814 -0.6452 -0.5651
 2094TIP3   OH227696   2.756   6.499  13.309 -0.1016 -0.1711  0.1061
 2094TIP3    H127697   2.815   6.551  13.363 -0.5338 -0.3975  0.8157
 2094TIP3    H227698   2.706   6.447  13.373 -0.9897 -0.0446 -0.4816
 2095TIP3   OH227699   4.532   1.276   5.471 -0.0969  0.7070 -0.6211
 2095TIP3    H127700   4.613   1.295   5.518 -0.1470  1.1862 -0.7227
 2095TIP3    H227701   4.535   1.182   5.454  0.3666  0.6981 -0.4905
 2096TIP3   OH227702   6.011   1.201  10.494 -0.4094 -0.2134  0.0662
 2096TIP3    H127703   6.028   1.126  10.436  0.3231  1.3465 -1.8046
 2096TIP3    H227704   6.095   1.216  10.538 -0.9421 -1.3435  1.4812
 2097TIP3   OH227705   1.217   0.861  16.191  0.0815 -0.2440 -0.2238
 2097TIP3    H127706   1.293   0.914  16.215 -1.0479  0.9976  0.6420
 2097TIP3    H227707   1.254   0.776  16.168  1.6841  0.1813  0.7096
 2098TIP3   OH227708   1.691   6.213   4.410  1.1000  0.6227  0.1109
 2098TIP3    H127709   1.708   6.120   4.398  0.6150  0.4695  0.5703
 2098TIP3    H227710   1.713   6.230   4.502  1.4210  1.0143 -0.0376
 2099TIP3   OH227711   1.579   1.027   3.541 -0.7710 -0.3624 -0.3599
 2099TIP3    H127712   1.616   1.110   3.570  0.7517 -0.5675 -1.6235
 2099TIP3    H227713   1.505   1.052   3.485 -1.6881  0.0856  1.0472
 2100TIP3   OH227714   4.570   4.249  14.857 -0.1329 -0.0536 -0.4475
 2100TIP3    H127715   4.554   4.228  14.949 -2.1246  1.8771 -0.3086
 2100TIP3    H227716   4.607   4.337  14.859  0.3085 -0.2079 -1.4712
 2101TIP3   OH227717   1.551   2.951  14.442  0.4660  0.8439  0.5185
 2101TIP3    H127718   1.617   3.012  14.475  2.8243 -1.2834 -0.0684
 2101TIP3    H227719   1.559   2.957  14.346  1.8250 -1.4621  0.4506
 2102TIP3   OH227720   4.236   4.756  15.840  0.0976  0.0389  0.0290
 2102TIP3    H127721   4.179   4.734  15.767 -0.0996 -1.2804  0.5667
 2102TIP3    H227722   4.186   4.729  15.918  0.1631  1.7123  0.6749
 2103TIP3   OH227723   0.661   3.713   1.758 -0.8690  0.3719 -0.0740
 2103TIP3    H127724   0.717   3.731   1.683 -0.6859  0.1068 -0.0022
 2103TIP3    H227725   0.582   3.675   1.720 -0.2568 -0.9508 -0.0356
 2104TIP3   OH227726   2.609   0.146   5.362  0.4911 -0.1047 -0.0007
 2104TIP3    H127727   2.525   0.123   5.400  0.8929 -1.3211  0.1830
 2104TIP3    H227728   2.610   0.241   5.360 -0.5320 -0.0765  0.7824
 2105TIP3   OH227729   2.519   1.035  12.848 -0.0188  0.0390  0.9816
 2105TIP3    H127730   2.557   0.968  12.906  0.1193  0.4908  1.4209
 2105TIP3    H227731   2.450   1.075  12.900  1.6181  2.0245  1.6977
 2106TIP3   OH227732   4.127   3.502  13.042  0.2753  0.0613 -0.4517
 2106TIP3    H127733   4.174   3.432  13.087  0.7310  0.9874  0.4960
 2106TIP3    H227734   4.149   3.489  12.949  0.4769 -0.9484 -0.2737
 2107TIP3   OH227735   5.180   5.749  13.754 -0.6495  0.2804 -0.0948
 2107TIP3    H127736   5.101   5.793  13.724  0.4816  1.5991 -1.2233
 2107TIP3    H227737   5.231   5.818  13.797  0.1058 -0.4429  0.1936
 2108TIP3   OH227738   1.645   3.092   1.317  0.5633  0.2500 -0.5037
 2108TIP3    H127739   1.738   3.069   1.319  0.1888 -1.2918  0.2018
 2108TIP3    H227740   1.609   3.040   1.245 -0.0267 -0.3447  0.2036
 2109TIP3   OH227741   4.293   2.711   0.842  0.2928  0.3175 -0.0739
 2109TIP3    H127742   4.228   2.770   0.881 -0.6226 -1.3496  1.0028
 2109TIP3    H227743   4.314   2.650   0.913  1.0763 -0.7693 -1.2328
 2110TIP3   OH227744   6.738   5.607  13.103  0.3945  0.0355 -0.5217
 2110TIP3    H127745   6.749   5.590  13.009  1.2197 -1.3389 -0.2037
 2110TIP3    H227746   6.715   5.521  13.140  0.4103  0.4926  0.5771
 2111TIP3   OH227747   3.453   2.737  12.712  0.1751  0.2877  0.0477
 2111TIP3    H127748   3.513   2.665  12.694  0.4225  0.5779 -0.3092
 2111TIP3    H227749   3.369   2.694  12.729  0.8380 -0.2122  2.2212
 2112TIP3   OH227750   0.623   2.324  14.319 -0.2878 -0.4998  0.0001
 2112TIP3    H127751   0.708   2.357  14.291  0.1943 -1.6510  0.1241
 2112TIP3    H227752   0.631   2.229  14.319 -0.5870 -0.5794  3.0136
 2113TIP3   OH227753   1.811   0.701  16.577 -1.0215 -0.0729  0.3381
 2113TIP3    H127754   1.786   0.793  16.569 -1.6531  0.0226  2.9006
 2113TIP3    H227755   1.898   0.697  16.538 -0.7173  1.7620  0.7696
 2114TIP3   OH227756   2.630   2.772  12.598  0.0087  0.8564 -0.4428
 2114TIP3    H127757   2.694   2.729  12.655 -2.8686 -1.9684  0.8569
 2114TIP3    H227758   2.616   2.858  12.638  0.7911  0.3517  0.9478
 2115TIP3   OH227759   4.664   0.622  15.555  0.4064 -0.0248 -0.3677
 2115TIP3    H127760   4.753   0.590  15.541  0.3038 -0.7119  0.4650
 2115TIP3    H227761   4.668   0.715  15.536  1.1590 -0.1799 -0.9578
 2116TIP3   OH227762   5.577   5.554  15.900 -0.3959 -0.0023 -0.0496
 2116TIP3    H127763   5.523   5.623  15.937  0.2005 -0.1691  1.1529
 2116TIP3    H227764   5.590   5.493  15.973  1.7470  0.2478 -0.2069
 2117TIP3   OH227765   3.992   1.564   3.144  0.3687 -0.2814  0.2306
 2117TIP3    H127766   3.929   1.634   3.124  0.8738 -0.4000 -1.8836
 2117TIP3    H227767   3.950   1.485   3.111  1.3056 -0.4614 -0.5329
 2118TIP3   OH227768   3.128   2.037   6.275  0.0230  0.1111  0.4152
 2118TIP3    H127769   3.150   2.054   6.367 -4.4172 -0.8376  1.7337
 2118TIP3    H227770   3.204   1.989   6.242  2.0708  1.1784  3.3257
 2119TIP3   OH227771   2.121   1.145   2.401 -0.6515 -0.1626 -0.7003
 2119TIP3    H127772   2.055   1.213   2.411  0.0797  0.3804  0.5432
 2119TIP3    H227773   2.172   1.148   2.483 -0.2576 -1.8086 -0.8624
 2120TIP3   OH227774   4.678   0.370   3.559  0.1172  0.1652  0.1538
 2120TIP3    H127775   4.712   0.369   3.648  0.2170 -0.6007  0.1037
 2120TIP3    H227776   4.713   0.292   3.518 -2.4020 -1.1381  0.3688
 2121TIP3   OH227777   3.081   0.193   2.197  0.4167 -0.1574  0.0682
 2121TIP3    H127778   3.030   0.257   2.246 -1.2181  0.2517 -2.0799
 2121TIP3    H227779   3.017   0.127   2.170  1.4602 -0.8866 -0.6519
 2122TIP3   OH227780   0.098   1.157   5.091  0.2491  0.0285 -0.4205
 2122TIP3    H127781   0.046   1.127   5.165  0.9237 -3.7230 -1.3762
 2122TIP3    H227782   0.188   1.154   5.123  0.3312  1.0850 -0.5403
 2123TIP3   OH227783   0.838   1.250  13.093 -0.3500 -0.4407 -0.4979
 2123TIP3    H127784   0.842   1.317  13.161 -0.9358 -1.6921  0.7972
 2123TIP3    H227785   0.746   1.241  13.072 -0.3019 -0.9768 -0.5075
 2124TIP3   OH227786   2.714   5.759   0.125 -0.6853  0.2505  0.4946
 2124TIP3    H127787   2.620   5.756   0.144 -0.7039  1.4960  0.6013
 2124TIP3    H227788   2.726   5.836   0.070 -0.1497 -1.5275 -1.9858
 2125TIP3   OH227789   5.711   2.085  10.971  0.1326 -0.7361 -0.4122
 2125TIP3    H127790   5.799   2.048  10.968  0.6156  0.2017  1.4595
 2125TIP3    H227791   5.725   2.179  10.985 -1.1878 -0.7010  0.7494
 2126TIP3   OH227792   0.580   5.659  14.308  0.3589 -0.2228  0.5528
 2126TIP3    H127793   0.510   5.677  14.370 -0.0191 -1.4518  0.4844
 2126TIP3    H227794   0.568   5.725  14.239  0.0689  0.3883  1.1782
 2127TIP3   OH227795   2.223   0.065   5.119  0.4133 -0.4449  0.0134
 2127TIP3    H127796   2.293   0.059   5.184  0.8519 -0.0332 -0.4171
 2127TIP3    H227797   2.172   0.142   5.145 -0.0666 -0.9319  0.5102
 2128TIP3   OH227798   1.194   0.395  14.211  0.3390  0.0219  0.2726
 2128TIP3    H127799   1.221   0.443  14.132  0.7301 -0.2023  0.2669
 2128TIP3    H227800   1.098   0.393  14.207  0.4068 -1.4791 -1.0949
 2129TIP3   OH227801   0.732   3.006   1.535  0.7216 -0.3248  0.1771
 2129TIP3    H127802   0.694   3.078   1.485  0.0288 -0.4980  0.4560
 2129TIP3    H227803   0.667   2.936   1.530  0.9529 -0.5808  0.7512
 2130TIP3   OH227804   0.619   1.551  13.810 -0.2290  0.6378  0.6306
 2130TIP3    H127805   0.548   1.507  13.764  2.5055 -2.5252 -0.7825
 2130TIP3    H227806   0.619   1.511  13.898  0.8159 -0.6480  0.0744
 2131TIP3   OH227807   5.479   1.696  15.067  0.1761  0.6544 -0.5150
 2131TIP3    H127808   5.384   1.696  15.069  0.1763  1.6087  0.7274
 2131TIP3    H227809   5.503   1.789  15.075  1.2120  0.2606  1.4289
 2132TIP3   OH227810   4.063   4.467   2.109  0.0856  0.2749 -0.8098
 2132TIP3    H127811   4.063   4.479   2.204 -0.1889 -0.4852 -0.7076
 2132TIP3    H227812   4.156   4.457   2.086  0.1863  0.9523 -0.6843
 2133TIP3   OH227813   2.683   4.215   1.353 -0.4632  0.6301  0.0069
 2133TIP3    H127814   2.760   4.269   1.368  1.0658 -0.6770 -2.7587
 2133TIP3    H227815   2.709   4.127   1.381 -0.8755  0.1405 -1.1358
 2134TIP3   OH227816   3.934   0.338   6.833  0.0972 -0.2924  0.7042
 2134TIP3    H127817   3.987   0.393   6.891 -0.7946 -0.7021  1.9280
 2134TIP3    H227818   3.886   0.281   6.892 -2.7259  0.9655 -0.2927
 2135TIP3   OH227819   6.219   2.383  16.363  0.0607 -0.2503 -0.1520
 2135TIP3    H127820   6.262   2.376  16.278 -0.1075 -1.6026 -0.1369
 2135TIP3    H227821   6.154   2.452  16.352 -0.1809 -0.6460 -1.2153
 2136TIP3   OH227822   1.560   4.804   5.350  0.0924  0.5713  0.2905
 2136TIP3    H127823   1.516   4.721   5.337 -1.3870  1.3839  0.0090
 2136TIP3    H227824   1.653   4.783   5.344 -0.1559 -1.4403  2.4133
 2137TIP3   OH227825   4.735   2.932  10.597 -0.1492 -0.0022 -0.3240
 2137TIP3    H127826   4.682   2.860  10.560 -0.0569 -0.1017 -0.2637
 2137TIP3    H227827   4.789   2.961  10.524 -0.2743  0.0852 -0.3805
 2138TIP3   OH227828   5.722   3.213  10.781  0.2687  0.0194  0.3680
 2138TIP3    H127829   5.640   3.187  10.822 -0.0893  1.5169  0.6549
 2138TIP3    H227830   5.727   3.162  10.701 -0.7100 -0.4284  0.5952
 2139TIP3   OH227831   6.256   4.689  15.129  0.9550 -0.0279 -0.2826
 2139TIP3    H127832   6.311   4.729  15.196  1.2022  1.6222 -1.4328
 2139TIP3    H227833   6.232   4.762  15.072 -0.6649 -1.1145 -1.0048
 2140TIP3   OH227834   4.585   5.832  14.643  0.0139  0.2444  0.2534
 2140TIP3    H127835   4.639   5.853  14.567  2.8668 -1.6190  1.6693
 2140TIP3    H227836   4.642   5.846  14.718 -2.4074  0.9959  2.0494
 2141TIP3   OH227837   3.670   1.707  15.339  0.0227 -0.2630  0.3811
 2141TIP3    H127838   3.646   1.790  15.380 -2.3640 -0.3278 -0.8363
 2141TIP3    H227839   3.609   1.643  15.376  0.3088 -1.0198 -0.4342
 2142TIP3   OH227840   2.495   5.190  12.767 -0.7094  0.4011 -0.3314
 2142TIP3    H127841   2.509   5.194  12.862 -1.5674 -1.2052 -0.1137
 2142TIP3    H227842   2.440   5.112  12.754  0.1432  0.0890 -2.2460
 2143TIP3   OH227843   5.147   6.512  14.703 -0.3955 -0.3388 -0.0706
 2143TIP3    H127844   5.176   6.429  14.742  0.4885 -1.2131 -2.5372
 2143TIP3    H227845   5.085   6.487  14.635 -1.9752  1.1887  0.7527
 2144TIP3   OH227846   5.370   3.859  15.892 -0.5326 -0.3848 -0.1786
 2144TIP3    H127847   5.277   3.854  15.915 -0.6716  0.6886 -0.5040
 2144TIP3    H227848   5.375   3.923  15.821  0.6007  0.5116  0.6709
 2145TIP3   OH227849   1.302   2.654   2.798  0.8110 -0.3044 -0.0857
 2145TIP3    H127850   1.356   2.581   2.769  1.6229  0.8258 -1.4862
 2145TIP3    H227851   1.224   2.613   2.836  0.8202 -1.8657 -1.7169
 2146TIP3   OH227852   3.655   6.227   0.309 -0.3047 -0.1548  0.1760
 2146TIP3    H127853   3.676   6.293   0.375 -0.8322 -0.1486  0.3403
 2146TIP3    H227854   3.740   6.187   0.287 -0.0247  0.3645  0.2954
 2147TIP3   OH227855   0.399   2.102   4.815  0.6014 -0.2079  0.2410
 2147TIP3    H127856   0.394   2.109   4.720 -2.0966  1.6106  0.4732
 2147TIP3    H227857   0.480   2.149   4.838 -0.5848  2.4522 -0.9003
 2148TIP3   OH227858   0.376   3.355  12.352 -0.6599  0.6181  0.2976
 2148TIP3    H127859   0.389   3.265  12.323 -0.1696  1.5571 -2.5531
 2148TIP3    H227860   0.462   3.384  12.381 -0.6363  0.4392  0.4036
 2149TIP3   OH227861   4.339   5.564   5.830 -0.3543  0.3523  0.2409
 2149TIP3    H127862   4.424   5.524   5.811 -1.7178 -1.7241 -1.7593
 2149TIP3    H227863   4.299   5.505   5.894 -1.3798 -0.1859 -0.8753
 2150TIP3   OH227864   5.905   4.072   6.211 -0.7325  0.1841 -0.2736
 2150TIP3    H127865   5.993   4.052   6.243 -0.5317 -0.7282 -1.3661
 2150TIP3    H227866   5.919   4.132   6.138 -1.0094 -0.0009 -0.4791
 2151TIP3   OH227867   5.281   5.969   5.944  0.2826 -0.1564 -0.8483
 2151TIP3    H127868   5.197   6.011   5.959  0.6717 -0.3226  2.1024
 2151TIP3    H227869   5.268   5.878   5.971  1.5492 -0.0445  0.1820
 2152TIP3   OH227870   4.559   2.676   0.593 -0.2816 -0.1573 -0.3709
 2152TIP3    H127871   4.551   2.717   0.507 -0.1707 -1.5834 -1.0785
 2152TIP3    H227872   4.633   2.721   0.635  1.7139 -1.5645 -2.2740
 2153TIP3   OH227873   2.996   5.832   0.173 -0.2947  0.4668  0.1118
 2153TIP3    H127874   2.918   5.791   0.138  1.7644 -3.2919 -0.3105
 2153TIP3    H227875   2.987   5.826   0.268 -1.2291  1.5788  0.1129
 2154TIP3   OH227876   0.724   1.313  17.077 -0.1850 -0.2317 -0.0147
 2154TIP3    H127877   0.744   1.366  17.154  0.7322 -1.4641  0.6112
 2154TIP3    H227878   0.806   1.307  17.029  0.0799 -2.2414  0.6439
 2155TIP3   OH227879   6.242   1.018   3.758  0.2878  0.5361 -0.0619
 2155TIP3    H127880   6.293   0.942   3.786  0.8023  1.0124  0.3055
 2155TIP3    H227881   6.153   0.985   3.747  0.8133 -0.4595 -1.4115
 2156TIP3   OH227882   5.467   2.107   5.620  0.0239 -0.1130  0.2549
 2156TIP3    H127883   5.514   2.025   5.636 -0.0142  0.1801  1.8834
 2156TIP3    H227884   5.425   2.093   5.535  2.9572 -0.4077 -1.2040
 2157TIP3   OH227885   3.937   0.776   0.650 -0.4386  0.2192  0.4416
 2157TIP3    H127886   3.873   0.705   0.641 -0.1428  0.1450 -1.1087
 2157TIP3    H227887   4.020   0.731   0.661 -0.3629  0.3285  0.3029
 2158TIP3   OH227888   6.403   2.800   4.209 -0.2215 -0.1248  0.2028
 2158TIP3    H127889   6.431   2.744   4.282  0.2236  0.6068  0.6026
 2158TIP3    H227890   6.450   2.766   4.133 -0.6265 -0.8447  0.2758
 2159TIP3   OH227891   0.846   2.164  15.200 -0.8536  0.8501 -0.0871
 2159TIP3    H127892   0.763   2.172  15.154 -0.3695  0.5350 -1.0277
 2159TIP3    H227893   0.832   2.209  15.283 -2.4020 -0.4316  0.3640
 2160TIP3   OH227894   1.221   1.173   1.893  0.5218  0.2595  0.4141
 2160TIP3    H127895   1.147   1.111   1.894  1.7861 -1.2628  1.3211
 2160TIP3    H227896   1.181   1.257   1.913 -1.2718 -0.1906 -1.0466
 2161TIP3   OH227897   0.766   4.765  11.271  0.5798 -0.3068 -0.4882
 2161TIP3    H127898   0.789   4.772  11.178 -0.1842 -0.1634 -0.6642
 2161TIP3    H227899   0.721   4.846  11.292 -1.1395 -1.2247 -0.5341
 2162TIP3   OH227900   0.838   6.706  10.915  0.1359  0.1943  0.0142
 2162TIP3    H127901   0.796   6.779  10.869 -0.8481 -0.3187  0.0870
 2162TIP3    H227902   0.806   6.628  10.869  0.9339 -0.2055  0.1387
 2163TIP3   OH227903   5.696   1.111   6.516 -0.0803  0.0856  0.6291
 2163TIP3    H127904   5.781   1.100   6.559  0.3082  1.4068  0.2214
 2163TIP3    H227905   5.644   1.038   6.548  0.8061 -0.0163  1.8869
 2164TIP3   OH227906   0.926   1.722   1.774  0.2562  0.5103  0.2056
 2164TIP3    H127907   0.939   1.815   1.756  0.5216  0.5636  0.6575
 2164TIP3    H227908   1.009   1.681   1.747  0.5482  0.5525  1.0264
 2165TIP3   OH227909   2.330   5.727   4.988  0.1431 -0.6162 -0.4782
 2165TIP3    H127910   2.241   5.694   4.978 -0.0005 -0.5948  0.7529
 2165TIP3    H227911   2.330   5.810   4.940 -0.7814 -0.1065  0.3871
 2166TIP3   OH227912   2.740   4.355  16.546  0.5990 -0.4748  0.8534
 2166TIP3    H127913   2.709   4.277  16.501  1.3252  0.1583 -0.8161
 2166TIP3    H227914   2.671   4.378  16.607 -1.6603  0.1601 -1.8282
 2167TIP3   OH227915   5.916   0.380   3.105 -0.4472  0.0482 -0.3975
 2167TIP3    H127916   5.878   0.466   3.128 -0.5453  0.6531 -2.7346
 2167TIP3    H227917   5.985   0.401   3.042  1.2511 -1.3949  0.9585
 2168TIP3   OH227918   3.436   0.462   6.085  0.3168 -0.2284  0.0920
 2168TIP3    H127919   3.396   0.470   6.171  1.2842 -1.4727  0.6639
 2168TIP3    H227920   3.393   0.387   6.045 -0.1676  0.3772 -0.5546
 2169TIP3   OH227921   5.885   2.774  12.477 -0.1155  0.4025 -0.2009
 2169TIP3    H127922   5.800   2.768  12.433 -0.9429 -0.4148  1.4726
 2169TIP3    H227923   5.865   2.814  12.561  1.2096  0.4066  0.1195
 2170TIP3   OH227924   2.270   6.177   4.417  0.5668  0.0334 -0.0452
 2170TIP3    H127925   2.228   6.261   4.400 -1.0113 -0.9262 -0.9568
 2170TIP3    H227926   2.243   6.154   4.506  0.0659 -0.0681 -0.2252
 2171TIP3   OH227927   5.461   5.670  11.416 -0.5607  0.2010 -0.3138
 2171TIP3    H127928   5.538   5.723  11.394 -1.3123  0.7958 -1.6032
 2171TIP3    H227929   5.486   5.581  11.393  0.2252  0.1937  0.5540
 2172TIP3   OH227930   1.659   0.143  11.035  0.0828 -0.4996 -0.0724
 2172TIP3    H127931   1.742   0.186  11.055  1.8619 -3.0416 -1.6819
 2172TIP3    H227932   1.684   0.063  10.988 -3.2973 -1.0999 -0.9913
 2173TIP3   OH227933   1.677   5.182   6.518 -0.2977 -0.2439  0.6324
 2173TIP3    H127934   1.741   5.219   6.578  0.1687 -1.2194  0.7403
 2173TIP3    H227935   1.655   5.254   6.458  3.5703 -0.8846 -1.6702
 2174TIP3   OH227936   6.612   1.886  13.819 -0.1482 -0.3859 -0.1864
 2174TIP3    H127937   6.529   1.848  13.790 -1.3496  0.6351  1.8364
 2174TIP3    H227938   6.677   1.820  13.796 -1.7334 -2.0234 -0.1233
 2175TIP3   OH227939   3.641   4.651   2.292  0.2592  0.2763 -0.2287
 2175TIP3    H127940   3.557   4.687   2.320 -0.2616  1.4461 -3.1275
 2175TIP3    H227941   3.693   4.647   2.372 -2.5973 -0.6997  1.6781
 2176TIP3   OH227942   3.528   4.837   4.652 -0.4831  0.1634 -0.6627
 2176TIP3    H127943   3.603   4.781   4.670  0.9735  2.7922  1.8009
 2176TIP3    H227944   3.454   4.777   4.646  1.0584 -2.0665  1.6258
 2177TIP3   OH227945   1.544   4.836  16.297 -0.6236  0.6596 -0.1920
 2177TIP3    H127946   1.532   4.926  16.267 -0.4958  0.7751  0.0953
 2177TIP3    H227947   1.617   4.840  16.358 -0.3307  0.2797 -0.5115
 2178TIP3   OH227948   5.797   6.036  15.487 -0.9570 -0.3401  0.3434
 2178TIP3    H127949   5.867   6.092  15.455  0.1840 -0.2598  2.8734
 2178TIP3    H227950   5.781   5.974  15.416  0.1695  0.9834 -1.1017
 2179TIP3   OH227951   5.799   1.107  14.108 -0.3399 -0.0379 -0.1094
 2179TIP3    H127952   5.856   1.031  14.103  1.7104  1.5284 -1.7929
 2179TIP3    H227953   5.718   1.080  14.065  0.2926 -1.3443 -0.4950
 2180TIP3   OH227954   2.642   6.680  16.395  0.4345 -0.4276 -0.3178
 2180TIP3    H127955   2.655   6.722  16.310  0.2333  0.7296  0.2267
 2180TIP3    H227956   2.709   6.718  16.451 -0.7817  0.3675  0.6150
 2181TIP3   OH227957   5.896   6.169  16.604 -0.1873 -0.8052  0.1632
 2181TIP3    H127958   5.858   6.135  16.524 -0.6420 -0.7261  0.3442
 2181TIP3    H227959   5.911   6.262  16.587 -0.0858 -0.8338  0.0976
 2182TIP3   OH227960   1.632   1.708  13.784  0.9703 -0.3144 -0.4661
 2182TIP3    H127961   1.554   1.740  13.738  0.7791  1.2564  0.8854
 2182TIP3    H227962   1.611   1.720  13.877  2.3282 -1.0902 -0.0416
 2183TIP3   OH227963   4.295   3.481   1.985 -0.1857 -0.0705 -0.0368
 2183TIP3    H127964   4.201   3.466   1.998 -0.1250 -0.8478 -0.4512
 2183TIP3    H227965   4.315   3.556   2.040 -0.6078 -1.2422  1.7635
 2184TIP3   OH227966   4.036   3.346  15.348 -0.3900  0.4530  0.0132
 2184TIP3    H127967   4.098   3.419  15.355  0.0400  0.0180  0.8381
 2184TIP3    H227968   3.970   3.365  15.414  0.5302 -0.6717  1.2708
 2185TIP3   OH227969   2.514   1.131   2.539 -0.1541 -0.1859 -0.0855
 2185TIP3    H127970   2.501   1.211   2.488 -0.5660  0.6785  1.3201
 2185TIP3    H227971   2.537   1.064   2.475 -1.4986  0.6670 -1.4837
 2186TIP3   OH227972   5.497   5.538   0.583 -0.2092 -0.2147 -0.1008
 2186TIP3    H127973   5.404   5.561   0.589 -0.8671 -2.2718 -1.9087
 2186TIP3    H227974   5.527   5.537   0.674 -2.0026  0.2089  0.5243
 2187TIP3   OH227975   3.112   5.499  14.905  0.2391 -0.3180  0.4495
 2187TIP3    H127976   3.146   5.580  14.944  0.5249 -0.7279  1.0502
 2187TIP3    H227977   3.068   5.528  14.825 -0.3527  0.5289  1.0715
 2188TIP3   OH227978   1.709   3.182   5.213  0.2052 -0.0507 -0.1649
 2188TIP3    H127979   1.743   3.094   5.227  0.8663  0.3221  0.6126
 2188TIP3    H227980   1.614   3.173   5.221  0.1401 -1.0157 -1.9190
 2189TIP3   OH227981   4.729   2.745   6.006  0.4257 -0.2640  0.3464
 2189TIP3    H127982   4.745   2.824   5.953  0.2020 -0.6377 -0.2829
 2189TIP3    H227983   4.815   2.704   6.014  0.3203 -0.6570 -0.4550
 2190TIP3   OH227984   1.049   2.929  11.200  0.3964 -0.6368 -0.1418
 2190TIP3    H127985   0.967   2.942  11.151  0.0743 -0.0928  0.5372
 2190TIP3    H227986   1.115   2.977  11.150  0.6693 -2.5302 -1.6671
 2191TIP3   OH227987   6.201   2.069  12.842  0.3855  0.0524  0.1557
 2191TIP3    H127988   6.296   2.060  12.831  0.2859 -0.2886 -0.4370
 2191TIP3    H227989   6.169   1.979  12.851 -0.0183  0.1017 -0.8024
 2192TIP3   OH227990   6.310   0.419  13.206 -0.3847  0.1856  0.4673
 2192TIP3    H127991   6.365   0.487  13.245  0.4025 -0.7729  1.0667
 2192TIP3    H227992   6.223   0.458  13.200 -0.3653  0.5890  2.5603
 2193TIP3   OH227993   0.251   5.349  14.066 -0.0007 -0.2901 -0.7165
 2193TIP3    H127994   0.276   5.274  14.013  2.1797  1.1876 -1.8408
 2193TIP3    H227995   0.333   5.395  14.083 -1.2660  1.7049  0.1415
 2194TIP3   OH227996   5.573   4.361  15.576 -0.4069 -0.2642 -0.7072
 2194TIP3    H127997   5.631   4.318  15.514 -0.6199 -0.6421 -0.6422
 2194TIP3    H227998   5.492   4.376  15.528 -0.6067 -0.6477 -0.4883
 2195TIP3   OH227999   3.599   2.465   4.393 -0.0715 -0.3858  0.2246
 2195TIP3    H128000   3.580   2.525   4.464  0.8065 -0.2945  0.3913
 2195TIP3    H228001   3.514   2.445   4.354 -0.5377 -0.3334  1.2107
 2196TIP3   OH228002   1.431   3.263   3.743 -0.4198  0.0758 -0.2950
 2196TIP3    H128003   1.430   3.176   3.783 -1.1164  1.0666  1.9163
 2196TIP3    H228004   1.366   3.258   3.673 -0.3185 -1.2390 -0.3084
 2197TIP3   OH228005   5.392   5.608  12.862  0.0507 -0.2133  0.5378
 2197TIP3    H128006   5.381   5.572  12.950  0.3116 -0.2273  0.5661
 2197TIP3    H228007   5.381   5.533  12.804  1.5914 -0.5440  0.6456
 2198TIP3   OH228008   3.954   5.496  14.709  0.3763 -0.0734 -0.1454
 2198TIP3    H128009   4.011   5.560  14.666  0.8659 -0.6307 -0.3416
 2198TIP3    H228010   3.986   5.411  14.677  0.7250 -0.4930  1.2937
 2199TIP3   OH228011   1.148   2.782  14.761 -0.3189 -0.2239 -0.2633
 2199TIP3    H128012   1.184   2.712  14.816  0.9677 -0.4700 -1.4104
 2199TIP3    H228013   1.057   2.756  14.747 -0.8146  0.0656  2.1049
 2200TIP3   OH228014   1.318   3.738   2.849 -0.5084  0.1132 -0.5479
 2200TIP3    H128015   1.262   3.768   2.920 -1.5021  1.0418 -1.7028
 2200TIP3    H228016   1.327   3.644   2.863 -0.0065  0.4227  1.2696
 2201TIP3   OH228017   2.363   0.520  13.269  0.5225  0.0970 -0.4223
 2201TIP3    H128018   2.314   0.470  13.204  2.4876  0.3251 -2.1519
 2201TIP3    H228019   2.397   0.595  13.221  1.8543  0.3792  0.9049
 2202TIP3   OH228020   3.103   6.452   3.872 -0.3989 -0.3891  0.0387
 2202TIP3    H128021   3.088   6.406   3.790 -2.1547 -2.2524  1.3489
 2202TIP3    H228022   3.181   6.411   3.909  1.2861  1.4596 -1.3440
 2203TIP3   OH228023   0.626   6.223  13.266 -0.4808  0.2875 -0.0645
 2203TIP3    H128024   0.556   6.288  13.262 -1.4128 -0.7684 -1.2035
 2203TIP3    H228025   0.596   6.158  13.330 -0.7684 -0.4307 -0.9273
 2204TIP3   OH228026   5.222   4.088  15.041 -0.2223  0.4311  0.5903
 2204TIP3    H128027   5.163   4.113  15.111 -0.5738 -1.0237  0.8341
 2204TIP3    H228028   5.310   4.103  15.076 -0.4075  0.1477  1.1779
 2205TIP3   OH228029   0.837   2.475  12.612 -0.0897 -0.7711  0.2488
 2205TIP3    H128030   0.757   2.476  12.664 -0.1522 -3.3724  0.2737
 2205TIP3    H228031   0.807   2.482  12.521 -0.3018 -1.0957  0.2940
 2206TIP3   OH228032   0.599   1.883  10.275 -0.3553 -0.2458  0.1951
 2206TIP3    H128033   0.520   1.853  10.230 -0.8162  1.9031 -0.4869
 2206TIP3    H228034   0.576   1.969  10.310  1.0374 -0.4915  1.7997
 2207TIP3   OH228035   6.536   6.401  16.218 -0.2415 -0.1040 -0.1917
 2207TIP3    H128036   6.501   6.484  16.186  2.1196  1.2492  0.5664
 2207TIP3    H228037   6.513   6.337  16.151 -0.8476  1.4553 -1.5063
 2208TIP3   OH228038   6.102   3.605  13.873  0.5625 -0.0484 -0.0960
 2208TIP3    H128039   6.109   3.559  13.956 -2.4910 -3.2977 -1.4803
 2208TIP3    H228040   6.036   3.673  13.888  1.5547  0.7504  0.6773
 2209TIP3   OH228041   6.670   2.325   0.101 -0.2495  0.3294  0.1169
 2209TIP3    H128042   6.729   2.362   0.035 -0.5447  0.3357 -0.1455
 2209TIP3    H228043   6.698   2.365   0.183 -0.3942  0.9296 -0.1249
 2210TIP3   OH228044   6.662   0.638   0.440  0.7543  0.3339  0.6658
 2210TIP3    H128045   6.593   0.703   0.421  0.3142 -0.6878 -1.4302
 2210TIP3    H228046   6.743   0.681   0.412  0.6039  0.4026  0.3330
 2211TIP3   OH228047   5.278   0.733  12.166 -0.7460 -0.6086  0.0165
 2211TIP3    H128048   5.231   0.652  12.148 -2.1125  0.0682  0.4642
 2211TIP3    H228049   5.270   0.745  12.260 -1.6628  0.6934 -0.2050
 2212TIP3   OH228050   4.583   4.342   5.960  0.2632  0.3775  0.0653
 2212TIP3    H128051   4.618   4.264   5.919 -2.2556  0.8982 -3.2878
 2212TIP3    H228052   4.509   4.310   6.013  2.0473 -0.0034  2.3930
 2213TIP3   OH228053   1.752   1.824  12.897  0.1761 -0.2226  0.1172
 2213TIP3    H128054   1.729   1.917  12.895  1.6952  0.1690  0.4046
 2213TIP3    H228055   1.706   1.786  12.822 -0.2951  0.7917 -0.1167
 2214TIP3   OH228056   6.672   5.805   0.720  0.2134  0.5512  0.4125
 2214TIP3    H128057   6.648   5.885   0.768 -1.3714  0.3260  0.0442
 2214TIP3    H228058   6.638   5.734   0.775  0.2649  0.1985 -0.0148
 2215TIP3   OH228059   1.504   1.865   0.692 -0.2360  0.4365  0.9011
 2215TIP3    H128060   1.490   1.873   0.597 -0.7757  1.2908  1.0554
 2215TIP3    H228061   1.424   1.826   0.725  0.5983 -1.4094  0.7872
 2216TIP3   OH228062   5.542   2.110   3.455  0.2960  0.4345 -0.5238
 2216TIP3    H128063   5.505   2.102   3.543  1.8280 -1.6133 -0.0503
 2216TIP3    H228064   5.468   2.092   3.396  0.0913 -1.9035  0.3970
 2217TIP3   OH228065   6.099   3.002  17.045  0.2211  0.0850  0.4828
 2217TIP3    H128066   6.025   3.026  17.100 -0.2957 -0.4657  0.0356
 2217TIP3    H228067   6.135   3.085  17.016 -1.7643  0.3358 -1.3439
 2218TIP3   OH228068   4.343   5.396  15.891  0.3406  0.5727 -0.1340
 2218TIP3    H128069   4.320   5.487  15.873 -2.9131 -0.2470 -0.4333
 2218TIP3    H228070   4.349   5.391  15.986 -0.9469  0.8034 -0.0255
 2219TIP3   OH228071   3.866   1.766  11.351  0.0610  0.2570  0.2607
 2219TIP3    H128072   3.886   1.786  11.443  0.3347  0.8291  0.0803
 2219TIP3    H228073   3.885   1.672  11.343 -0.4464  0.0946  0.9164
 2220TIP3   OH228074   5.341   5.185   3.295 -0.4090 -0.0232  0.0988
 2220TIP3    H128075   5.275   5.244   3.260 -0.4746 -0.0002  0.2593
 2220TIP3    H228076   5.396   5.240   3.350 -0.8198 -0.2168  0.7122
 2221TIP3   OH228077   6.355   4.814  16.235  0.1582  0.3902 -0.1354
 2221TIP3    H128078   6.379   4.896  16.193 -0.0673 -0.4744 -2.0210
 2221TIP3    H228079   6.261   4.821  16.252 -0.1202  0.0377 -1.4654
 2222TIP3   OH228080   4.186   6.206  14.326 -0.5237  0.0883 -0.0641
 2222TIP3    H128081   4.186   6.212  14.421  0.4533  0.3749 -0.0742
 2222TIP3    H228082   4.277   6.186  14.303 -0.6378  0.5681 -0.9672
 2223TIP3   OH228083   2.969   0.749   5.676  0.0747 -0.3557 -0.6382
 2223TIP3    H128084   2.937   0.669   5.633 -1.4064  0.4228 -1.0079
 2223TIP3    H228085   2.898   0.774   5.735  1.2191 -0.2183  0.6952
 2224TIP3   OH228086   1.789   3.130  13.845 -0.0586  0.0913  0.0211
 2224TIP3    H128087   1.697   3.134  13.818 -0.1141  0.8850  0.3168
 2224TIP3    H228088   1.818   3.221  13.844  0.7156 -0.1535 -0.0333
 2225TIP3   OH228089   2.905   0.848   4.292  0.5555  0.3602 -0.1248
 2225TIP3    H128090   2.955   0.847   4.210  2.0136  0.2251  0.7515
 2225TIP3    H228091   2.907   0.757   4.322  2.3185  0.8802  1.4111
 2226TIP3   OH228092   1.959   6.481   0.945 -0.5682 -0.5481  0.0741
 2226TIP3    H128093   1.904   6.436   0.881  1.2190 -1.6582 -0.7293
 2226TIP3    H228094   2.038   6.506   0.896 -0.2940  0.9193  1.2153
 2227TIP3   OH228095   4.148   0.894   1.054 -0.4927  0.0409  0.2597
 2227TIP3    H128096   4.206   0.907   1.129  0.1996 -2.9331  0.3020
 2227TIP3    H228097   4.203   0.917   0.978  0.3240 -1.3706  0.3970
 2228TIP3   OH228098   6.605   6.148   2.077 -0.6349 -0.4959  0.5087
 2228TIP3    H128099   6.546   6.091   2.126 -0.4934 -0.9861  0.1106
 2228TIP3    H228100   6.691   6.131   2.115 -0.3502 -1.7046 -0.6530
 2229TIP3   OH228101   1.413   2.956  11.970  0.6420  0.5355  0.5407
 2229TIP3    H128102   1.493   3.005  11.985  0.0194  0.9267  2.6521
 2229TIP3    H228103   1.387   2.979  11.880  3.3614 -0.3317 -0.5036
 2230TIP3   OH228104   5.244   3.173   6.235  0.3027 -0.4536  0.2432
 2230TIP3    H128105   5.304   3.243   6.210  0.9046 -1.5373 -1.4381
 2230TIP3    H228106   5.265   3.154   6.327  1.1689  0.5197  0.2515
 2231TIP3   OH228107   5.523   3.489   4.948 -0.3043 -0.4499 -0.3642
 2231TIP3    H128108   5.533   3.511   5.040  0.7547  1.4300 -0.9024
 2231TIP3    H228109   5.612   3.496   4.912 -0.9304  0.3028 -1.8191
 2232TIP3   OH228110   1.418   1.470  16.131 -0.5318 -0.0186 -0.1828
 2232TIP3    H128111   1.493   1.461  16.074 -1.2723 -0.9318 -1.0298
 2232TIP3    H228112   1.427   1.557  16.170  1.4912 -0.5144  0.5126
 2233TIP3   OH228113   0.716   6.295  17.090 -0.4225 -0.1653  0.0193
 2233TIP3    H128114   0.714   6.346  17.009 -0.4789  1.1645  0.8530
 2233TIP3    H228115   0.722   6.360  17.160 -0.2580 -1.3049  1.0878
 2234TIP3   OH228116   0.974   3.938  13.512  0.0729  0.0279 -0.2486
 2234TIP3    H128117   1.039   3.995  13.472  0.7742 -0.0243  0.8174
 2234TIP3    H228118   0.891   3.986  13.502  0.0736 -0.3902 -2.5634
 2235TIP3   OH228119   3.972   4.957   4.925  0.0865 -0.4534  0.2639
 2235TIP3    H128120   3.978   4.917   4.839  0.8958  0.3010 -0.0403
 2235TIP3    H228121   3.886   4.999   4.927  0.5782  0.6354 -0.6761
 2236TIP3   OH228122   2.321   6.364  15.394 -0.1259  0.6672  0.5197
 2236TIP3    H128123   2.397   6.396  15.345  0.1207  1.7550  1.5720
 2236TIP3    H228124   2.333   6.400  15.482 -0.6239 -1.1494  1.3467
 2237TIP3   OH228125   2.493   2.438   4.277 -0.7912  0.7023  0.0538
 2237TIP3    H128126   2.459   2.356   4.314 -2.5517  1.3141 -0.1893
 2237TIP3    H228127   2.587   2.421   4.265 -0.9201 -0.8781  1.0819
 2238TIP3   OH228128   0.320   3.944   5.270  0.0444  0.3002  0.3026
 2238TIP3    H128129   0.386   3.996   5.224  0.9511 -0.6528  0.5073
 2238TIP3    H228130   0.275   4.007   5.327 -0.0106  1.1771 -0.6886
 2239TIP3   OH228131   5.220   5.407   3.165 -0.1047 -0.3811 -0.0012
 2239TIP3    H128132   5.244   5.436   3.077 -1.0434  0.5129  0.0342
 2239TIP3    H228133   5.130   5.377   3.157  0.3343 -1.8234  0.3120
 2240TIP3   OH228134   2.183   2.238   1.502  0.1248  0.3217  0.3897
 2240TIP3    H128135   2.157   2.327   1.524 -1.2385 -0.0923  0.5085
 2240TIP3    H228136   2.204   2.241   1.409 -0.0063  0.7417  0.3731
 2241TIP3   OH228137   2.833   3.002   2.736 -0.1085  0.6738  0.2947
 2241TIP3    H128138   2.776   2.975   2.664 -2.2519  0.6781  1.9334
 2241TIP3    H228139   2.912   2.949   2.725 -0.2044  0.9947 -2.2895
 2242TIP3   OH228140   3.336   6.262   5.029  0.1757 -0.4982 -0.7366
 2242TIP3    H128141   3.356   6.347   4.992 -0.6763 -1.1433 -2.7783
 2242TIP3    H228142   3.294   6.281   5.113  0.8469  1.0479 -0.7453
 2243TIP3   OH228143   0.717   2.668  13.488  0.4202  0.1771  0.4942
 2243TIP3    H128144   0.635   2.697  13.448  0.2912  1.2543  1.5002
 2243TIP3    H228145   0.734   2.582  13.449 -0.7481  0.3137 -0.3423
 2244TIP3   OH228146   3.354   5.544  11.720 -0.4432  0.1433 -0.4647
 2244TIP3    H128147   3.434   5.549  11.668 -1.0195 -0.7851 -1.4477
 2244TIP3    H228148   3.294   5.606  11.678 -0.5663  0.1424 -0.2934
 2245TIP3   OH228149   5.509   0.291   3.859 -0.5130 -0.0619 -0.1634
 2245TIP3    H128150   5.540   0.340   3.783 -0.7022  1.1160  0.4983
 2245TIP3    H228151   5.463   0.356   3.912 -0.4910 -0.8929  0.8965
 2246TIP3   OH228152   3.118   0.288  16.519 -0.3905  0.1076 -0.4255
 2246TIP3    H128153   3.023   0.278  16.522 -0.1157 -3.4141 -1.4652
 2246TIP3    H228154   3.148   0.254  16.603  0.1045 -1.3967 -1.1889
 2247TIP3   OH228155   1.059   1.549  14.539  0.1824 -0.0401 -0.0023
 2247TIP3    H128156   0.979   1.590  14.572 -1.4654 -1.8543 -1.5850
 2247TIP3    H228157   1.130   1.598  14.580 -1.7273  2.4814  0.4097
 2248TIP3   OH228158   3.077   5.643   4.764  0.1293  0.4987 -0.1468
 2248TIP3    H128159   3.153   5.611   4.812  0.1777  0.4063 -0.2830
 2248TIP3    H228160   3.097   5.735   4.744  0.8999  0.0490 -1.5499
 2249TIP3   OH228161   2.079   1.287  16.375 -0.4330  0.1675 -0.2310
 2249TIP3    H128162   2.032   1.325  16.448  0.6331  0.8976  0.0746
 2249TIP3    H228163   2.105   1.200  16.405 -0.2528  0.3544  0.1471
 2250TIP3   OH228164   4.046   5.321  13.862  0.1309  0.1563 -0.2242
 2250TIP3    H128165   4.043   5.394  13.800 -0.0867  0.3230 -0.0193
 2250TIP3    H228166   4.125   5.338  13.914  0.3800 -0.0500 -0.5335
 2251TIP3   OH228167   2.906   0.588  12.541 -0.0017 -0.0267 -0.3989
 2251TIP3    H128168   2.969   0.537  12.490 -1.6108 -1.1886 -1.3099
 2251TIP3    H228169   2.827   0.533  12.542 -0.2446  0.2941  2.7571
 2252TIP3   OH228170   0.258   6.198  16.252 -0.2500 -0.4111 -0.3511
 2252TIP3    H128171   0.301   6.275  16.214 -0.6481 -0.1559 -0.2867
 2252TIP3    H228172   0.220   6.230  16.334 -2.1852 -0.1604 -1.3150
 2253TIP3   OH228173   0.687   1.727  17.229  0.0108 -0.0639  0.5251
 2253TIP3    H128174   0.602   1.769  17.238  0.2386  0.2893  1.0954
 2253TIP3    H228175   0.750   1.796  17.248  0.4449 -0.1792 -0.4622
 2254TIP3   OH228176   0.108   2.814   4.485 -0.0363  0.5250 -0.0922
 2254TIP3    H128177   0.041   2.810   4.416 -0.9254 -0.3891  0.7932
 2254TIP3    H228178   0.088   2.738   4.541  1.2733  0.6966  0.6133
 2255TIP3   OH228179   2.848   4.003  12.734  0.3488  0.4399  0.1477
 2255TIP3    H128180   2.806   3.920  12.709  0.2878  0.6411 -0.4219
 2255TIP3    H228181   2.780   4.069  12.723  0.7504  0.7397 -0.5896
 2256TIP3   OH228182   4.007   4.046  16.084  0.0783 -0.2074 -0.1289
 2256TIP3    H128183   3.936   4.009  16.136  0.9228  0.3333  1.4402
 2256TIP3    H228184   3.970   4.126  16.047 -0.1782 -0.0020  0.5639
 2257TIP3   OH228185   2.745   2.063  15.837 -0.4904 -0.1388 -0.3570
 2257TIP3    H128186   2.709   2.146  15.807 -1.6950  0.0864  1.6887
 2257TIP3    H228187   2.828   2.086  15.878 -0.0907 -0.1457 -1.1437
 2258TIP3   OH228188   4.180   4.334   5.901  0.2056 -0.0227 -0.3187
 2258TIP3    H128189   4.201   4.284   5.980 -0.8670  2.3746  1.5326
 2258TIP3    H228190   4.235   4.412   5.906 -2.1487  1.6887 -0.2658
 2259TIP3   OH228191   5.630   5.059   2.727 -0.2492 -0.3680 -0.0617
 2259TIP3    H128192   5.592   5.143   2.751 -0.0180 -0.5065  0.7767
 2259TIP3    H228193   5.559   5.014   2.679 -0.3770  0.2871 -0.4977
 2260TIP3   OH228194   2.673   3.090   0.121 -0.0344 -0.3338 -0.7668
 2260TIP3    H128195   2.594   3.100   0.173  0.8598 -0.7008  0.6941
 2260TIP3    H228196   2.663   3.005   0.079 -1.7009  0.8599 -2.8714
 2261TIP3   OH228197   0.335   0.021   0.514  0.8826  0.3847  0.0409
 2261TIP3    H128198   0.387   0.028   0.434 -0.4958  0.7009 -0.8342
 2261TIP3    H228199   0.340   0.107   0.554  1.3833  0.2932  0.1744
 2262TIP3   OH228200   1.512   5.204   0.163 -0.9454  0.0063  0.3593
 2262TIP3    H128201   1.603   5.180   0.146 -1.1412  0.0395 -0.7990
 2262TIP3    H228202   1.488   5.258   0.087 -1.6367  0.7746  1.1249
 2263TIP3   OH228203   3.443   5.212   0.913  0.4413  0.4665 -0.4918
 2263TIP3    H128204   3.467   5.220   0.821 -0.1756  1.1483 -0.6006
 2263TIP3    H228205   3.496   5.278   0.957  1.1185 -0.2119 -0.2800
 2264TIP3   OH228206   4.572   5.337   2.914  0.0355 -0.1527  0.0788
 2264TIP3    H128207   4.485   5.375   2.925 -0.6779 -1.5898 -0.4424
 2264TIP3    H228208   4.596   5.357   2.823  0.3538  0.4565  0.2971
 2265TIP3   OH228209   2.466   5.373   5.063  0.4085  0.1333  0.2906
 2265TIP3    H128210   2.387   5.351   5.113 -1.0238  1.5502 -1.2780
 2265TIP3    H228211   2.489   5.461   5.091 -0.4084  0.9466 -1.4758
 2266TIP3   OH228212   5.207   2.652  15.666  0.3184 -0.3117 -0.1666
 2266TIP3    H128213   5.193   2.739  15.627 -0.3522 -0.2012  0.3052
 2266TIP3    H228214   5.119   2.619  15.683  0.5445 -1.4754 -1.1824
 2267TIP3   OH228215   6.512   3.020  14.339 -0.3211  0.3403 -0.5985
 2267TIP3    H128216   6.578   3.075  14.381  0.7191 -1.7919  0.6184
 2267TIP3    H228217   6.465   2.979  14.412 -0.4345 -1.1497 -1.4891
 2268TIP3   OH228218   3.704   0.464   1.858 -0.1149 -0.3171  0.7938
 2268TIP3    H128219   3.716   0.438   1.767  0.8413  0.2854  0.7443
 2268TIP3    H228220   3.692   0.381   1.905 -1.7457 -0.5713 -0.0326
 2269TIP3   OH228221   0.912   4.561  10.825  0.1271 -0.6983 -0.2259
 2269TIP3    H128222   0.967   4.502  10.774  1.4064  0.9926 -0.8344
 2269TIP3    H228223   0.835   4.508  10.849  0.5303 -2.1294 -2.0581
 2270TIP3   OH228224   4.708   6.322   2.848 -0.3251  0.0591 -0.6967
 2270TIP3    H128225   4.651   6.263   2.896  1.2785  0.0607  1.3093
 2270TIP3    H228226   4.762   6.265   2.793  1.2746 -0.3849  1.2924
 2271TIP3   OH228227   1.454   3.938  14.986  0.1827  0.1379 -0.3883
 2271TIP3    H128228   1.358   3.936  14.982  0.2551 -1.1773 -2.6320
 2271TIP3    H228229   1.480   3.993  14.912  1.1695 -1.2608 -1.1188
 2272TIP3   OH228230   3.113   2.160  16.680  0.0366  0.1494  0.1577
 2272TIP3    H128231   3.178   2.129  16.616  0.4816  0.3050  0.5363
 2272TIP3    H228232   3.121   2.098  16.753 -1.7707 -1.1477 -0.7110
 2273TIP3   OH228233   2.170   3.503  16.405  0.7168 -0.4222  0.2156
 2273TIP3    H128234   2.212   3.517  16.490 -1.2211  1.3390  0.9191
 2273TIP3    H228235   2.161   3.408  16.397 -1.9548 -0.5258  3.4556
 2274TIP3   OH228236   6.596   4.006  15.995 -0.5037  0.8658  0.5034
 2274TIP3    H128237   6.619   3.931  15.940  1.7489  1.4598  0.5930
 2274TIP3    H228238   6.569   3.967  16.079 -2.9983  0.0083 -0.6400
 2275TIP3   OH228239   4.555   3.680  13.443  0.9518  0.2707  0.0610
 2275TIP3    H128240   4.625   3.614  13.444  0.4564 -0.2853 -0.7808
 2275TIP3    H228241   4.495   3.652  13.512 -0.0515 -1.0626 -1.3135
 2276TIP3   OH228242   4.858   0.778   0.678 -0.8011 -0.3277  0.4301
 2276TIP3    H128243   4.918   0.738   0.615 -0.2096  0.7580  0.2931
 2276TIP3    H228244   4.813   0.846   0.628 -0.4816  0.3975  1.1260
 2277TIP3   OH228245   0.681   1.996   2.793 -0.2765 -0.5083  0.0809
 2277TIP3    H128246   0.628   2.075   2.797  0.1129 -0.1437 -1.6105
 2277TIP3    H228247   0.771   2.027   2.794 -0.0957 -1.0513  1.5758
 2278TIP3   OH228248   1.032   1.035   1.253  0.4871 -0.7362  0.0501
 2278TIP3    H128249   1.002   0.944   1.246 -1.6178  0.0748 -1.6380
 2278TIP3    H228250   1.081   1.037   1.336 -2.7729 -2.4887  2.1202
 2279TIP3   OH228251   4.033   4.194   5.316  0.5376  0.5847  0.6293
 2279TIP3    H128252   4.019   4.271   5.370  3.0180 -0.3224  2.6696
 2279TIP3    H228253   3.947   4.150   5.314 -0.4972  2.5488  0.7100
 2280TIP3   OH228254   6.637   4.058  11.862  0.9779  0.5997 -0.6645
 2280TIP3    H128255   6.682   3.980  11.893 -0.0637 -0.0655 -0.7969
 2280TIP3    H228256   6.588   4.028  11.785  0.3641  1.3281 -0.5621
 2281TIP3   OH228257   2.591   6.409   2.077 -0.7541 -0.0007  0.0376
 2281TIP3    H128258   2.529   6.341   2.052  1.7252 -2.1889 -0.3983
 2281TIP3    H228259   2.605   6.459   1.996 -0.5749 -0.6711 -0.3591
 2282TIP3   OH228260   2.571   1.507   4.435  0.0846  0.0748 -0.6646
 2282TIP3    H128261   2.541   1.597   4.445 -0.3002 -0.0020 -1.0953
 2282TIP3    H228262   2.527   1.476   4.356 -1.5992 -1.2201  0.7249
 2283TIP3   OH228263   2.103   2.038   4.039 -0.5116  0.3238 -0.0417
 2283TIP3    H128264   2.017   1.997   4.026  0.0965 -0.7972 -0.5236
 2283TIP3    H228265   2.162   1.989   3.982 -0.0997  3.0290 -2.0396
 2284TIP3   OH228266   3.222   1.136  12.726  0.0171 -0.2329 -0.7250
 2284TIP3    H128267   3.214   1.046  12.757 -0.8103  0.2474  0.4840
 2284TIP3    H228268   3.140   1.154  12.680 -0.2121  0.2142 -0.1438
 2285TIP3   OH228269   1.855   1.458   4.405  0.0701  0.2659  0.5653
 2285TIP3    H128270   1.902   1.493   4.481  1.6032  0.5102 -0.4718
 2285TIP3    H228271   1.910   1.385   4.375 -0.9442 -0.3386  0.1622
 2286TIP3   OH228272   0.446   0.744  13.786  0.1801 -0.3265 -0.1441
 2286TIP3    H128273   0.454   0.743  13.882  0.1302  0.8255 -0.1218
 2286TIP3    H228274   0.385   0.815  13.768  0.3819 -0.3794 -1.0474
 2287TIP3   OH228275   0.629   0.207  15.582 -0.0087 -0.4672  0.2294
 2287TIP3    H128276   0.663   0.280  15.634  3.2731 -1.4134 -0.4566
 2287TIP3    H228277   0.588   0.248  15.506  0.8806  0.7138  0.3810
 2288TIP3   OH228278   0.641   6.758  17.214 -0.3508 -0.4980 -0.0496
 2288TIP3    H128279   0.687   6.713  17.143  0.1908 -4.0177  2.4053
 2288TIP3    H228280   0.557   6.714  17.220 -1.6432  1.8145 -0.4412
 2289TIP3   OH228281   1.211   2.805  16.587 -0.1247 -0.2862  0.1269
 2289TIP3    H128282   1.221   2.712  16.610  2.3148 -0.0697  0.1458
 2289TIP3    H228283   1.292   2.826  16.541  0.7778  2.6170  2.8711
 2290TIP3   OH228284   3.154   5.308  16.465  0.3905 -1.2270  0.2731
 2290TIP3    H128285   3.108   5.340  16.388 -1.1285 -2.0866  0.8014
 2290TIP3    H228286   3.213   5.380  16.490 -1.7025  0.4672  0.4294
 2291TIP3   OH228287   6.777   0.451  16.920  0.3974 -0.0755 -0.6041
 2291TIP3    H128288   6.775   0.490  17.008  2.7291  2.1640 -1.4638
 2291TIP3    H228289   6.867   0.418  16.911 -0.2436 -1.6062 -1.6300
 2292TIP3   OH228290   5.507   4.798  11.421  0.1146 -0.0101  0.4916
 2292TIP3    H128291   5.558   4.752  11.354 -0.4590  0.7413 -0.4701
 2292TIP3    H228292   5.506   4.737  11.495  2.4549 -0.0267  0.5679
 2293TIP3   OH228293   2.532   2.939  14.094  0.1730 -0.0209 -0.3076
 2293TIP3    H128294   2.601   2.997  14.126  0.5822  0.2156 -1.5985
 2293TIP3    H228295   2.563   2.851  14.115  0.2044  0.1472  0.3768
 2294TIP3   OH228296   3.039   0.937  13.634 -0.3477  0.2154 -0.1321
 2294TIP3    H128297   2.986   0.919  13.557  0.1390 -0.3188 -0.3495
 2294TIP3    H228298   3.019   0.865  13.694 -1.8571  1.4276  0.8564
 2295TIP3   OH228299   3.372   2.962   3.382 -0.2813  0.1348  0.1676
 2295TIP3    H128300   3.427   3.039   3.392  1.0781 -0.7857 -0.0505
 2295TIP3    H228301   3.383   2.914   3.465 -0.0478 -0.4848 -0.2135
 2296TIP3   OH228302   3.403   2.279  13.148 -0.0720 -0.0616  0.6230
 2296TIP3    H128303   3.340   2.350  13.161 -1.0983 -0.8823  0.2388
 2296TIP3    H228304   3.349   2.200  13.150  1.1967 -0.9210  2.1944
 2297TIP3   OH228305   3.122   4.548   3.407 -0.0111  0.4711  0.2718
 2297TIP3    H128306   3.059   4.512   3.470 -0.6203 -0.3524 -0.7908
 2297TIP3    H228307   3.103   4.642   3.406 -0.3694  0.4114  0.9001
 2298TIP3   OH228308   4.992   1.639   5.524  0.6973  0.2876 -0.1978
 2298TIP3    H128309   5.078   1.643   5.481  1.0028  0.9001  0.4631
 2298TIP3    H228310   4.986   1.721   5.573  0.4670 -0.5380  1.1606
 2299TIP3   OH228311   0.572   1.590  16.572  0.0907 -0.8654 -0.2480
 2299TIP3    H128312   0.615   1.558  16.652  0.3947 -0.5191 -0.2751
 2299TIP3    H228313   0.541   1.510  16.529 -0.2365 -1.0435  0.3113
 2300TIP3   OH228314   6.279   2.863  14.391  0.0406 -0.3100 -0.0042
 2300TIP3    H128315   6.264   2.797  14.459  0.1432 -0.0189  0.3016
 2300TIP3    H228316   6.217   2.840  14.322  0.7604 -1.3223 -0.3303
 2301TIP3   OH228317   4.092   2.274  10.340  0.2993  0.3641 -0.0343
 2301TIP3    H128318   4.136   2.191  10.359 -1.5679 -0.6333  0.0529
 2301TIP3    H228319   4.027   2.252  10.273 -0.0686  1.8109 -0.1722
 2302TIP3   OH228320   1.400   3.399  14.453 -0.6874  0.6359  0.3799
 2302TIP3    H128321   1.370   3.451  14.378 -2.5897 -0.0310  0.6698
 2302TIP3    H228322   1.334   3.331  14.464  1.2180 -1.2202  0.6983
 2303TIP3   OH228323   1.874   2.106  14.741  0.1949 -0.7676  0.1040
 2303TIP3    H128324   1.779   2.110  14.744  0.2097 -0.5918  0.4318
 2303TIP3    H228325   1.894   2.027  14.691 -0.1197 -0.1845 -0.9399
 2304TIP3   OH228326   6.223   2.732   4.593 -0.1870 -0.1598 -0.1652
 2304TIP3    H128327   6.191   2.739   4.683 -0.1601 -1.8459 -0.0124
 2304TIP3    H228328   6.318   2.729   4.601 -0.0586  2.0532 -0.4346
 2305TIP3   OH228329   0.299   1.245   1.897 -0.2611  0.1782 -0.0317
 2305TIP3    H128330   0.204   1.232   1.894 -0.0217 -1.5342 -1.2740
 2305TIP3    H228331   0.315   1.287   1.981 -2.2532  1.7040 -0.3798
 2306TIP3   OH228332   5.380   5.802   0.915 -0.0251 -0.1399  0.5201
 2306TIP3    H128333   5.342   5.739   0.854 -0.9971  0.8717  0.0744
 2306TIP3    H228334   5.336   5.786   0.998 -0.9911  0.6087  0.1594
 2307TIP3   OH228335   5.636   0.167   6.143  0.1227 -0.6119 -1.0895
 2307TIP3    H128336   5.569   0.207   6.199  1.5709 -2.3615  2.0167
 2307TIP3    H228337   5.687   0.241   6.109 -1.0548  0.5103 -0.4507
 2308TIP3   OH228338   0.344   5.986   3.212 -0.4370  0.8772 -0.0395
 2308TIP3    H128339   0.353   6.050   3.142  1.7926  1.2601  0.5449
 2308TIP3    H228340   0.338   6.039   3.292  1.2601  0.4198  0.4339
 2309TIP3   OH228341   6.226   5.100  16.843  0.0093  0.6741  0.7908
 2309TIP3    H128342   6.269   5.185  16.847 -2.2564  1.9013  0.0247
 2309TIP3    H228343   6.208   5.078  16.935  0.3307  1.1443  0.9684
 2310TIP3   OH228344   5.223   5.285  14.074 -0.4336  0.2353 -0.0193
 2310TIP3    H128345   5.294   5.234  14.036 -1.1767  0.4850 -1.7950
 2310TIP3    H228346   5.195   5.343  14.003 -3.0473 -0.5288  0.3568
 2311TIP3   OH228347   0.249   1.469   4.246  0.0882  0.1898  0.4878
 2311TIP3    H128348   0.252   1.502   4.156  0.7566 -0.8951  0.0983
 2311TIP3    H228349   0.287   1.539   4.299  0.2110  0.5998 -0.1415
 2312TIP3   OH228350   0.846   3.838  16.485 -0.5022  0.6304 -0.1996
 2312TIP3    H128351   0.929   3.883  16.470  0.9458 -1.9414 -0.2595
 2312TIP3    H228352   0.852   3.805  16.575 -1.6042  0.7104 -0.0861
 2313TIP3   OH228353   4.486   1.562   1.201 -0.0785  0.6773  0.0253
 2313TIP3    H128354   4.552   1.530   1.262  0.0850  1.3948  0.2344
 2313TIP3    H228355   4.456   1.645   1.240 -0.3054  0.9035 -0.6269
 2314TIP3   OH228356   6.133   4.984  16.617  0.1779  0.0392 -0.2022
 2314TIP3    H128357   6.176   5.041  16.681 -0.6628  0.9514 -0.4339
 2314TIP3    H228358   6.041   5.009  16.621 -0.4832 -2.4199  0.8367
 2315TIP3   OH228359   1.525   1.972  15.917  0.4852  0.2133 -0.0941
 2315TIP3    H128360   1.604   1.922  15.935  0.1974 -0.4729 -0.6888
 2315TIP3    H228361   1.554   2.048  15.868  0.6283 -0.7328 -1.5011
 2316TIP3   OH228362   2.344   1.188  12.986 -0.0343 -0.6324 -0.3922
 2316TIP3    H128363   2.366   1.145  13.069 -0.3528 -1.8672 -0.9364
 2316TIP3    H228364   2.253   1.162  12.969  0.5148 -1.6062 -1.8856
 2317TIP3   OH228365   3.140   0.340   0.859  0.0062  1.1396 -0.1865
 2317TIP3    H128366   3.119   0.247   0.871  0.7071  0.6671 -2.3580
 2317TIP3    H228367   3.060   0.378   0.823  0.2089  1.0282 -0.7727
 2318TIP3   OH228368   2.900   5.251  14.440  0.5795 -0.5478  0.3375
 2318TIP3    H128369   2.931   5.204  14.517 -1.3070 -4.1227 -0.9447
 2318TIP3    H228370   2.813   5.283  14.465 -0.0087 -1.6585 -0.2744
 2319TIP3   OH228371   6.692   0.510   5.408 -0.0015 -0.5445  0.1074
 2319TIP3    H128372   6.643   0.433   5.435 -0.0906  0.5114  3.0912
 2319TIP3    H228373   6.782   0.481   5.402 -0.0791 -0.9577  0.9223
 2320TIP3   OH228374   2.064   5.428  11.347  0.0444  0.4140 -0.0073
 2320TIP3    H128375   2.075   5.521  11.369 -1.6179  0.6850 -0.2538
 2320TIP3    H228376   2.124   5.382  11.406  2.2569  1.7530 -1.1481
 2321TIP3   OH228377   0.459   6.245  12.139  0.4615 -0.2893 -0.3087
 2321TIP3    H128378   0.518   6.217  12.068  0.2001 -0.8851 -0.2975
 2321TIP3    H228379   0.430   6.332  12.113  0.5796 -0.3956 -0.8074
 2322TIP3   OH228380   6.033   3.871  11.304 -0.3260 -0.0575 -0.2126
 2322TIP3    H128381   6.018   3.951  11.355 -1.6198 -0.2623 -0.2614
 2322TIP3    H228382   6.129   3.861  11.304 -0.0974  1.8815 -0.8316
 2323TIP3   OH228383   4.138   6.113  17.165  0.3198  0.4512 -0.0047
 2323TIP3    H128384   4.228   6.117  17.134  0.7691  0.0623  1.2239
 2323TIP3    H228385   4.145   6.095  17.258 -1.0327  0.4678  0.1160
 2324TIP3   OH228386   5.416   4.494  12.251 -0.4579 -0.0245  0.1110
 2324TIP3    H128387   5.334   4.450  12.228 -1.2977  1.8918 -0.6636
 2324TIP3    H228388   5.484   4.430  12.230 -1.6538 -0.9337 -1.0856
 2325TIP3   OH228389   3.959   6.589   1.888  0.4851  0.3807 -0.1614
 2325TIP3    H128390   3.867   6.585   1.916  2.0216  0.3739  5.4362
 2325TIP3    H228391   3.977   6.682   1.880  0.4283  0.4419  0.3929
 2326TIP3   OH228392   4.856   6.206  14.426  0.2881 -0.1721  0.5615
 2326TIP3    H128393   4.877   6.145  14.354 -1.5421  0.5542 -0.6231
 2326TIP3    H228394   4.839   6.149  14.501  1.9181 -0.9638  0.3409
 2327TIP3   OH228395   4.672   3.952  12.794 -0.6235  0.0186 -0.1883
 2327TIP3    H128396   4.694   4.018  12.728 -0.1903  0.6660  0.5897
 2327TIP3    H228397   4.756   3.911  12.816 -0.6640  0.2832  0.4629
 2328TIP3   OH228398   4.747   5.864   0.922  0.5543 -0.2191 -0.1646
 2328TIP3    H128399   4.798   5.922   0.979 -0.4160  1.2856 -0.7961
 2328TIP3    H228400   4.768   5.776   0.952 -1.4027  0.5569  3.8690
 2329TIP3   OH228401   3.247   0.344  10.756 -0.2162  0.0171  0.1042
 2329TIP3    H128402   3.176   0.282  10.772 -0.6841  0.8003  1.2067
 2329TIP3    H228403   3.282   0.320  10.671  0.0572 -2.1907  0.8096
 2330TIP3   OH228404   2.001   5.824  12.971  0.6168 -0.2276 -0.6774
 2330TIP3    H128405   1.919   5.843  12.926  0.2672 -1.3495 -0.5295
 2330TIP3    H228406   2.024   5.736  12.942  0.5329 -0.8528  1.1085
 2331TIP3   OH228407   6.639   1.340   3.053  0.0937  0.0847  0.0169
 2331TIP3    H128408   6.622   1.423   3.009 -0.6082 -0.3506 -0.5493
 2331TIP3    H228409   6.654   1.364   3.145 -0.4581  0.7953 -0.0746
 2332TIP3   OH228410   6.079   6.472   0.244 -0.1224 -0.3611  0.4210
 2332TIP3    H128411   6.084   6.555   0.291 -0.5375 -0.5008  0.7281
 2332TIP3    H228412   6.155   6.422   0.274  0.3852  0.0871 -0.1235
 2333TIP3   OH228413   1.869   5.241   6.295  0.6830 -0.1130 -0.1937
 2333TIP3    H128414   1.841   5.221   6.206 -0.4605 -1.3338  0.4193
 2333TIP3    H228415   1.965   5.239   6.291  0.6279 -1.2116 -1.1671
 2334TIP3   OH228416   6.444   4.885   2.177 -0.8569  0.1793 -0.1196
 2334TIP3    H128417   6.473   4.793   2.179 -1.7123 -0.1011 -0.4816
 2334TIP3    H228418   6.362   4.883   2.127 -1.5674  0.9594  1.0030
 2335TIP3   OH228419   5.629   1.159  14.352  0.2364  0.3698 -0.0760
 2335TIP3    H128420   5.668   1.155  14.265  1.7860  2.1344  0.5244
 2335TIP3    H228421   5.647   1.247  14.383 -1.9425  0.3731  1.3041
 2336TIP3   OH228422   6.583   1.703   5.194  0.2095 -0.1687 -0.5247
 2336TIP3    H128423   6.494   1.674   5.172  0.2631  0.3119 -1.3619
 2336TIP3    H228424   6.576   1.732   5.285 -0.2464 -1.1590 -0.2345
 2337TIP3   OH228425   1.317   0.821   6.186 -0.0740 -0.0074  0.2301
 2337TIP3    H128426   1.296   0.901   6.234  0.9079  0.1345  0.4289
 2337TIP3    H228427   1.352   0.761   6.251  1.5268  0.2885 -0.3495
 2338TIP3   OH228428   6.053   0.173  15.082  1.1000 -0.1614  0.1850
 2338TIP3    H128429   5.980   0.121  15.049  0.6522  0.5956  0.0031
 2338TIP3    H228430   6.021   0.212  15.163  1.1659  0.5188 -0.1203
 2339TIP3   OH228431   6.035   6.612   0.944 -0.4636 -0.2519 -0.0077
 2339TIP3    H128432   6.079   6.670   0.882  1.7139 -1.4226  0.3511
 2339TIP3    H228433   5.942   6.618   0.922  0.1900 -0.2102 -3.0242
 2340TIP3   OH228434   0.571   3.200  15.081  0.2984 -0.0357  0.6721
 2340TIP3    H128435   0.505   3.149  15.127 -0.5319  1.1820  0.8595
 2340TIP3    H228436   0.572   3.162  14.993  0.1230 -0.7653  0.9778
 2341TIP3   OH228437   2.541   2.181   4.082 -0.2057 -0.2225  0.0210
 2341TIP3    H128438   2.465   2.169   4.139 -1.1452 -0.5722 -1.2697
 2341TIP3    H228439   2.612   2.206   4.141 -1.7720  1.9491  1.0771
 2342TIP3   OH228440   4.329   4.826   0.751 -0.1889 -0.5077  0.1298
 2342TIP3    H128441   4.307   4.829   0.844  1.2726  1.0202  0.4559
 2342TIP3    H228442   4.415   4.784   0.748  1.2547  2.3491 -0.1957
 2343TIP3   OH228443   3.318   1.455   2.390 -0.2158 -0.6811 -0.1647
 2343TIP3    H128444   3.252   1.393   2.361 -0.9569  0.6844 -1.5142
 2343TIP3    H228445   3.372   1.470   2.312 -0.1110  0.4151  0.1030
 2344TIP3   OH228446   0.145   3.358  16.492  0.6264 -0.1438 -0.6576
 2344TIP3    H128447   0.193   3.318  16.420  2.2062  0.0634  0.2547
 2344TIP3    H228448   0.210   3.365  16.563 -0.7650  0.0777  0.6182
 2345TIP3   OH228449   3.785   0.914  16.791 -0.2413 -0.2322 -0.0190
 2345TIP3    H128450   3.732   0.977  16.840  0.5534  0.7247 -0.3516
 2345TIP3    H228451   3.722   0.860  16.745 -0.9330  1.1621 -0.7536
 2346TIP3   OH228452   6.565   1.627  12.091  0.0832 -0.1597 -0.0187
 2346TIP3    H128453   6.562   1.542  12.046  1.8084 -1.0263  1.4194
 2346TIP3    H228454   6.624   1.681  12.038 -1.9181  0.5619 -1.5733
 2347TIP3   OH228455   6.584   0.793  15.145 -0.1591 -0.4423  0.2266
 2347TIP3    H128456   6.530   0.758  15.217  0.8233 -0.9853  0.7068
 2347TIP3    H228457   6.667   0.816  15.187  2.4511 -5.7012 -1.5885
 2348TIP3   OH228458   1.336   4.247   5.564  0.2825 -0.0922  0.7451
 2348TIP3    H128459   1.309   4.319   5.509  0.3004  0.0743  0.9530
 2348TIP3    H228460   1.391   4.193   5.508  1.6220  0.9230  1.0420
 2349TIP3   OH228461   4.090   5.482  14.967  0.7238 -0.0676 -0.0648
 2349TIP3    H128462   4.127   5.557  14.919 -1.3340  0.6254 -0.6183
 2349TIP3    H228463   4.149   5.410  14.947  0.9564  0.6667 -2.1477
 2350TIP3   OH228464   1.987   4.577  12.930 -0.3201 -0.1970  0.7966
 2350TIP3    H128465   1.993   4.518  12.855 -1.4450  1.7607 -0.8516
 2350TIP3    H228466   1.910   4.546  12.979 -2.5585  1.4844 -1.5254
 2351TIP3   OH228467   4.209   4.503   4.443  0.6130 -0.0631  0.5211
 2351TIP3    H128468   4.279   4.548   4.394  0.6711  1.4629  1.9765
 2351TIP3    H228469   4.252   4.471   4.522 -0.3919  1.1588  1.5760
 2352TIP3   OH228470   2.638   2.551  13.895 -0.3821 -0.5857 -0.4099
 2352TIP3    H128471   2.583   2.602  13.953 -1.3848 -1.6367 -0.4199
 2352TIP3    H228472   2.608   2.461  13.905  0.9465 -1.1020 -0.8461
 2353TIP3   OH228473   2.221   4.665  14.990  0.1964 -0.0857  0.1217
 2353TIP3    H128474   2.129   4.689  14.984  0.1822 -0.1962 -0.1156
 2353TIP3    H228475   2.221   4.569  14.995  0.3210 -0.1212 -0.4442
 2354TIP3   OH228476   6.649   4.615  11.945  0.1690  0.4591 -0.0414
 2354TIP3    H128477   6.680   4.679  12.008  2.4965 -1.5094  0.8912
 2354TIP3    H228478   6.595   4.554  11.996 -0.2150  0.4158 -0.4908
 2355TIP3   OH228479   6.204   6.538  10.953 -0.3510  0.0075 -0.6442
 2355TIP3    H128480   6.166   6.601  10.892  1.4655  1.9715  0.2005
 2355TIP3    H228481   6.129   6.505  11.003 -1.3992  0.9439 -1.5664
 2356TIP3   OH228482   1.573   5.319   1.637  0.6743 -0.0784 -0.0633
 2356TIP3    H128483   1.552   5.299   1.728 -0.2935 -1.7301 -0.6421
 2356TIP3    H228484   1.548   5.241   1.588 -0.3963  1.4253 -1.9733
 2357TIP3   OH228485   0.793   0.178   4.756  0.7666  0.3069  0.0205
 2357TIP3    H128486   0.874   0.168   4.806  0.0121 -1.6782  0.8800
 2357TIP3    H228487   0.814   0.243   4.689  2.5885  0.9909  1.2251
 2358TIP3   OH228488   5.068   0.367   3.315  0.2702  0.4925 -0.0423
 2358TIP3    H128489   5.106   0.346   3.400  3.5487  0.2271 -1.4927
 2358TIP3    H228490   4.992   0.310   3.308  0.3801  0.0130  2.4041
 2359TIP3   OH228491   2.185   1.309   6.280  0.3056 -0.0634 -0.1973
 2359TIP3    H128492   2.218   1.241   6.338 -0.6989  1.9180  2.8524
 2359TIP3    H228493   2.090   1.300   6.284  0.2345  0.0480 -1.6109
 2360TIP3   OH228494   0.317   6.162   0.722 -0.5578  0.0509 -0.0061
 2360TIP3    H128495   0.249   6.176   0.787  0.5207  2.7118  0.6299
 2360TIP3    H228496   0.399   6.161   0.772  0.1876  0.9707 -1.1770
 2361TIP3   OH228497   1.155   5.289  13.307 -0.0818  0.1936 -0.6396
 2361TIP3    H128498   1.088   5.233  13.269 -2.1219  0.8639  1.7559
 2361TIP3    H228499   1.106   5.346  13.367  2.4365  1.8154 -0.0523
 2362TIP3   OH228500   5.372   6.293   1.169  0.3793  0.2980  0.0367
 2362TIP3    H128501   5.337   6.379   1.147 -0.7337 -0.1290  0.0786
 2362TIP3    H228502   5.342   6.236   1.099  0.2304 -0.2626  0.5496
 2363TIP3   OH228503   6.610   4.457  12.589  0.1788 -0.1802  0.5284
 2363TIP3    H128504   6.562   4.484  12.667 -0.4067  0.7675 -0.1530
 2363TIP3    H228505   6.541   4.433  12.526  0.5934  1.2393 -0.4712
 2364TIP3   OH228506   5.022   0.923  13.619 -0.2684  0.7032  0.0616
 2364TIP3    H128507   5.081   0.981  13.667 -0.8438  0.7644  0.7054
 2364TIP3    H228508   5.079   0.853  13.587  0.5378  1.9472 -1.2640
 2365TIP3   OH228509   5.653   2.430   5.359 -0.4209 -0.2460 -0.0131
 2365TIP3    H128510   5.617   2.403   5.444  0.2938  0.9606  0.6852
 2365TIP3    H228511   5.748   2.416   5.368 -0.2467  0.7202 -0.2999
 2366TIP3   OH228512   4.443   5.058   2.858  0.0092 -0.2051  0.0951
 2366TIP3    H128513   4.498   5.063   2.936 -0.1766 -1.9371  0.3522
 2366TIP3    H228514   4.478   5.125   2.799  2.2474 -1.1221  0.3488
 2367TIP3   OH228515   4.239   3.735   0.454 -0.3822  0.2914  0.1064
 2367TIP3    H128516   4.306   3.782   0.406  0.4893 -0.1100  0.9126
 2367TIP3    H228517   4.201   3.801   0.513 -2.2936  1.0878 -1.9590
 2368TIP3   OH228518   1.609   1.425  12.874  0.0646  0.2344 -0.1971
 2368TIP3    H128519   1.676   1.492  12.885 -0.0125  0.5180 -1.3584
 2368TIP3    H228520   1.586   1.398  12.963  1.4150  0.4292  0.2150
 2369TIP3   OH228521   5.006   4.383   0.735  0.0620 -0.1441  0.0286
 2369TIP3    H128522   5.014   4.457   0.796  0.2811 -0.4880  0.4178
 2369TIP3    H228523   4.914   4.357   0.742 -0.8808  2.2033 -2.5811
 2370TIP3   OH228524   2.612   3.206  11.641  0.3537  0.4423 -0.3027
 2370TIP3    H128525   2.652   3.293  11.643  0.1120  0.5839 -1.3530
 2370TIP3    H228526   2.519   3.223  11.623  0.2446 -0.0208 -0.1696
 2371TIP3   OH228527   3.717   2.692   1.419  0.1181  0.1833  0.4975
 2371TIP3    H128528   3.759   2.763   1.468 -0.4300  1.1859 -0.4588
 2371TIP3    H228529   3.788   2.657   1.365  0.5801 -0.5328  1.5453
 2372TIP3   OH228530   4.920   1.067   5.852 -0.6720  0.3972 -0.1917
 2372TIP3    H128531   4.894   1.053   5.943  1.9105  0.1460  0.5551
 2372TIP3    H228532   4.897   0.986   5.807  0.4073 -0.4832  0.8191
 2373TIP3   OH228533   2.462   2.812  10.779  0.3290 -0.2887  0.0938
 2373TIP3    H128534   2.487   2.902  10.760  1.2743 -0.7985 -1.2071
 2373TIP3    H228535   2.540   2.760  10.756  0.3005 -1.3137  2.1489
 2374TIP3   OH228536   2.531   0.088  13.390  0.0718  0.3568 -0.3669
 2374TIP3    H128537   2.477   0.125  13.459  0.1441 -0.3917  0.1004
 2374TIP3    H228538   2.524  -0.007  13.402 -1.5382  0.1603 -2.6323
 2375TIP3   OH228539   5.162   1.866  11.900  0.0382 -0.2042 -0.2144
 2375TIP3    H128540   5.113   1.807  11.843 -0.9268  2.3165 -2.0844
 2375TIP3    H228541   5.223   1.911  11.841  1.1534  0.2590  1.2747
 2376TIP3   OH228542   1.652   4.809   5.848 -0.2230  0.3968  0.5162
 2376TIP3    H128543   1.724   4.855   5.892  1.4691 -0.8647 -0.8851
 2376TIP3    H228544   1.592   4.878   5.823  1.1777  1.6346  0.4779
 2377TIP3   OH228545   5.402   2.858   3.545 -0.2202  0.1001 -0.0330
 2377TIP3    H128546   5.404   2.953   3.546  1.2128  0.0740  0.9772
 2377TIP3    H228547   5.454   2.832   3.621 -0.7558 -1.4875 -0.1924
 2378TIP3   OH228548   6.564   2.454  12.921 -0.5134  0.0043 -0.0568
 2378TIP3    H128549   6.527   2.480  13.006  0.0675 -0.9912  0.5080
 2378TIP3    H228550   6.599   2.535  12.885 -1.8960  0.6799  0.0724
 2379TIP3   OH228551   5.766   2.181   4.291  0.2304 -0.1200 -0.1076
 2379TIP3    H128552   5.710   2.103   4.291  1.0815 -0.7301 -0.3568
 2379TIP3    H228553   5.846   2.154   4.247  0.5011  0.9252 -0.2724
 2380TIP3   OH228554   4.789   1.452   3.756  0.2960 -0.6326  0.1267
 2380TIP3    H128555   4.729   1.474   3.685  0.3157 -0.4079  0.1784
 2380TIP3    H228556   4.768   1.515   3.825  0.5611 -0.5804  0.1610
 2381TIP3   OH228557   1.857   4.954   4.445 -0.1035 -0.0728 -0.7082
 2381TIP3    H128558   1.915   5.014   4.492  0.0430 -0.3271 -0.5607
 2381TIP3    H228559   1.906   4.871   4.443 -0.4055 -0.2511 -0.6982
 2382TIP3   OH228560   4.610   1.026  12.644  0.1788  0.2057  0.2856
 2382TIP3    H128561   4.663   1.104  12.631 -1.3805  1.4494  1.1568
 2382TIP3    H228562   4.612   1.011  12.738  0.4555 -0.8025  0.1239
 2383TIP3   OH228563   5.490   1.095  12.030  0.6611  0.3819 -0.5531
 2383TIP3    H128564   5.449   1.041  11.962  1.9080 -1.4077  0.0834
 2383TIP3    H228565   5.480   1.044  12.110  1.1780  1.4782  0.2224
 2384TIP3   OH228566   1.843   0.554   1.855  0.0508 -0.2886 -0.2064
 2384TIP3    H128567   1.844   0.613   1.780 -0.5759 -0.5472 -0.4139
 2384TIP3    H228568   1.799   0.475   1.824 -0.7778 -0.1536  0.6139
 2385TIP3   OH228569   0.267   6.672  14.265 -0.3468 -0.1014 -0.0353
 2385TIP3    H128570   0.224   6.731  14.327 -3.5678 -0.8564 -1.4643
 2385TIP3    H228571   0.210   6.672  14.188  2.1531 -1.2842 -1.9746
 2386TIP3   OH228572   1.111   3.460  13.853  0.4158  0.2031 -0.1474
 2386TIP3    H128573   1.064   3.498  13.779  0.1880 -1.0510 -0.6466
 2386TIP3    H228574   1.112   3.366  13.836  2.0809  0.0926  0.4484
 2387TIP3   OH228575   5.352   0.162  12.461 -0.0246 -0.0794 -0.4436
 2387TIP3    H128576   5.429   0.181  12.408  0.4721  1.2164  0.7381
 2387TIP3    H228577   5.384   0.109  12.534 -0.0913  1.1939  0.5227
 2388TIP3   OH228578   6.110   4.754   5.285 -0.2938  0.6327  0.0158
 2388TIP3    H128579   6.199   4.719   5.279  0.2271  1.7195  1.1356
 2388TIP3    H228580   6.089   4.779   5.195  0.5821  0.4500 -0.2472
 2389TIP3   OH228581   1.825   3.103   1.578 -0.2218  0.0921 -0.5073
 2389TIP3    H128582   1.744   3.064   1.543  0.7255 -1.7323 -0.7202
 2389TIP3    H228583   1.797   3.145   1.659 -1.5724  0.2927 -1.0527
 2390TIP3   OH228584   5.771   3.527   5.485  0.1062  0.1228  0.0820
 2390TIP3    H128585   5.857   3.518   5.524 -0.6599  1.1859  2.0817
 2390TIP3    H228586   5.718   3.458   5.525 -0.6108  1.0320  0.7378
 2391TIP3   OH228587   0.633   0.552   4.506 -0.1505 -0.3881 -0.0747
 2391TIP3    H128588   0.671   0.615   4.567  0.0800 -0.0860 -0.5332
 2391TIP3    H228589   0.590   0.605   4.440 -0.4952 -0.7188 -0.1207
 2392TIP3   OH228590   5.863   3.077   2.033  0.4541 -0.2287  0.0364
 2392TIP3    H128591   5.817   3.056   1.952  0.1223 -0.8512  0.3800
 2392TIP3    H228592   5.844   3.170   2.048  0.8795 -0.0011 -0.8265
 2393TIP3   OH228593   4.434   6.611   3.907  0.1363 -0.6302  0.7548
 2393TIP3    H128594   4.368   6.664   3.951  0.9153 -0.2482  1.4711
 2393TIP3    H228595   4.458   6.544   3.971 -0.1646 -1.2838  0.1908
 2394TIP3   OH228596   6.197   6.493  17.147  0.3882 -0.1368 -0.2915
 2394TIP3    H128597   6.262   6.561  17.163  0.2871  0.6514 -2.9609
 2394TIP3    H228598   6.146   6.489  17.228  1.9023  1.2709  0.7609
 2395TIP3   OH228599   4.032   5.134   2.108  0.1847  0.0340  0.2928
 2395TIP3    H128600   3.941   5.103   2.099  0.7066 -1.1084 -1.3991
 2395TIP3    H228601   4.076   5.100   2.030  1.9930  0.8748  0.9280
 2396TIP3   OH228602   4.316   4.108   1.140  0.3559 -0.3117  0.2565
 2396TIP3    H128603   4.316   4.189   1.088  1.7393  0.1789  0.9901
 2396TIP3    H228604   4.275   4.133   1.222 -0.1612 -0.6259  0.0965
 2397TIP3   OH228605   2.068   6.015   5.440 -0.1982 -0.0943  0.3494
 2397TIP3    H128606   2.130   5.943   5.438 -0.7012 -0.5146 -0.2335
 2397TIP3    H228607   1.984   5.974   5.461 -0.5057  0.3026 -0.0812
 2398TIP3   OH228608   1.171   5.552   1.370  0.0412 -0.0868 -0.0992
 2398TIP3    H128609   1.159   5.475   1.315 -1.6897  1.0924 -1.4569
 2398TIP3    H228610   1.241   5.601   1.328  0.6142 -0.5439  0.3237
 2399TIP3   OH228611   1.227   5.194  11.931  0.2930 -0.0891  0.3162
 2399TIP3    H128612   1.298   5.210  11.994  1.0753  1.6946 -0.9676
 2399TIP3    H228613   1.157   5.252  11.959 -0.4739 -1.4507  1.2587
 2400TIP3   OH228614   1.374   2.445   1.887  0.0870  0.3973  0.3278
 2400TIP3    H128615   1.403   2.504   1.817 -1.3714  1.1110  0.3021
 2400TIP3    H228616   1.436   2.459   1.958  1.3502 -0.0373 -0.6699
 2401TIP3   OH228617   4.115   0.160  14.030 -0.1460 -0.7915  0.2023
 2401TIP3    H128618   4.178   0.134  14.097  2.2152 -0.0258 -1.6463
 2401TIP3    H228619   4.091   0.250  14.053  0.9503 -0.3978 -0.1918
 2402TIP3   OH228620   6.299   4.460   2.078 -0.0839  0.7888  0.0768
 2402TIP3    H128621   6.250   4.536   2.109  0.6091  1.1997  0.1944
 2402TIP3    H228622   6.344   4.427   2.156  0.5626  0.9839 -0.2049
 2403TIP3   OH228623   0.021   0.884   0.867  0.2439 -0.1454 -0.2998
 2403TIP3    H128624  -0.045   0.818   0.843  1.3395 -0.8903 -1.3119
 2403TIP3    H228625   0.100   0.856   0.821  1.8276 -0.3887  2.4555
 2404TIP3   OH228626   6.601   6.209  17.098  0.0631  0.2432 -0.0463
 2404TIP3    H128627   6.579   6.156  17.021 -2.3761  1.2342 -0.0865
 2404TIP3    H228628   6.591   6.299  17.068 -1.0769  0.6442  1.4711
 2405TIP3   OH228629   5.426   5.652   1.614 -1.2444  0.5171 -0.2597
 2405TIP3    H128630   5.402   5.696   1.533 -0.1187  1.4956 -0.0793
 2405TIP3    H228631   5.489   5.711   1.655 -0.5666 -0.7481  0.5387
 2406TIP3   OH228632   0.578   1.162   2.135 -0.0297  0.1668  0.1808
 2406TIP3    H128633   0.595   1.188   2.044 -0.8772  1.3187  0.3328
 2406TIP3    H228634   0.625   1.079   2.146  0.4517  0.2484 -1.1702
 2407TIP3   OH228635   1.194   6.211   2.174 -0.0374 -0.0565 -0.1776
 2407TIP3    H128636   1.225   6.121   2.161  0.0248  0.0247 -0.5895
 2407TIP3    H228637   1.109   6.201   2.218 -0.6451 -0.3641 -1.3905
 2408TIP3   OH228638   4.455   4.749   1.757  1.0057  0.0359 -0.0335
 2408TIP3    H128639   4.441   4.673   1.700 -1.6849  0.4178  0.0465
 2408TIP3    H228640   4.417   4.822   1.708  0.6126  0.7434  1.3075
 2409TIP3   OH228641   5.911   1.291  11.544 -0.2568  0.6348  0.6930
 2409TIP3    H128642   5.916   1.343  11.624 -2.0624  1.6192  0.1844
 2409TIP3    H228643   5.994   1.306  11.500 -0.8190  3.2363  0.4746
 2410TIP3   OH228644   2.090   3.586  15.729 -0.1619  0.3257  0.2475
 2410TIP3    H128645   2.051   3.502  15.703 -0.3158  0.1937  0.8959
 2410TIP3    H228646   2.182   3.578  15.706 -0.1974  0.0152  0.2124
 2411TIP3   OH228647   2.485   0.305   2.794  0.1988 -0.5876 -0.0795
 2411TIP3    H128648   2.394   0.295   2.821  0.0272 -1.5998 -1.0268
 2411TIP3    H228649   2.481   0.360   2.716  0.7883  3.3626  2.5175
 2412TIP3   OH228650   3.714   0.436   6.688  0.1460  0.0646  0.6115
 2412TIP3    H128651   3.795   0.446   6.738  0.4978 -1.1323  0.3003
 2412TIP3    H228652   3.719   0.348   6.651  0.4254  1.3091 -2.4981
 2413TIP3   OH228653   3.105   3.775   5.795 -0.0328 -0.0976  0.2551
 2413TIP3    H128654   3.147   3.694   5.823 -0.1581 -0.5228 -0.7880
 2413TIP3    H228655   3.122   3.836   5.867  4.7088  0.5519 -1.2087
 2414TIP3   OH228656   1.244   5.153   2.374 -0.4251  0.4110 -0.5093
 2414TIP3    H128657   1.210   5.064   2.374  0.1744  0.1733 -1.4584
 2414TIP3    H228658   1.333   5.145   2.340 -0.0025  1.2447  0.3735
 2415TIP3   OH228659   4.982   5.781  16.149  0.2878  0.2510 -0.0397
 2415TIP3    H128660   5.006   5.705  16.095  0.8053  0.3813  0.0037
 2415TIP3    H228661   5.065   5.814  16.183  0.0889  0.9866 -0.2543
 2416TIP3   OH228662   5.308   5.786  15.084  0.1378 -0.8403 -1.0655
 2416TIP3    H128663   5.373   5.766  15.151 -0.0441 -1.2109 -0.9983
 2416TIP3    H228664   5.353   5.766  15.001  0.8634  1.0309 -1.1313
 2417TIP3   OH228665   3.174   0.321  15.295 -0.1824 -0.5600 -0.1916
 2417TIP3    H128666   3.251   0.304  15.241 -0.5692 -1.5343 -0.4511
 2417TIP3    H228667   3.102   0.281  15.247 -0.6341 -0.8554  0.7200
 2418TIP3   OH228668   6.484   2.928   2.065 -0.4072 -0.3457 -0.3409
 2418TIP3    H128669   6.420   2.929   2.137  0.5126  0.9476  0.4813
 2418TIP3    H228670   6.549   2.994   2.090  1.6042 -2.0679 -0.8558
 2419TIP3   OH228671   0.798   6.638   5.114  0.0115 -0.2685 -0.3120
 2419TIP3    H128672   0.891   6.650   5.097  0.1024 -1.7362 -0.9548
 2419TIP3    H228673   0.754   6.685   5.043  0.2340  1.1778  0.4958
 2420TIP3   OH228674   3.508   0.099   3.497 -0.3877  0.1158 -0.1328
 2420TIP3    H128675   3.476   0.012   3.476 -0.1344 -0.0404  0.1210
 2420TIP3    H228676   3.436   0.141   3.543 -1.0787  0.5857 -1.6119
 2421TIP3   OH228677   1.593   2.511  11.342  0.1665  0.1792 -0.6553
 2421TIP3    H128678   1.555   2.423  11.348 -0.6885  0.6928  1.9179
 2421TIP3    H228679   1.659   2.514  11.412 -0.3013  1.8034 -0.2568
 2422TIP3   OH228680   0.997   0.652  14.023 -0.1193  0.5381 -0.0082
 2422TIP3    H128681   0.923   0.595  14.043  0.0239  0.7743  1.2291
 2422TIP3    H228682   0.960   0.720  13.966 -0.2524 -0.8597 -1.6226
 2423TIP3   OH228683   2.898   5.101  11.377 -0.2259 -0.2007 -0.3280
 2423TIP3    H128684   2.980   5.150  11.377  0.0361 -0.6114  1.7409
 2423TIP3    H228685   2.913   5.028  11.317  0.6955  0.0750 -0.4349
 2424TIP3   OH228686   1.328   1.216  17.086  0.2869 -0.0343 -0.2370
 2424TIP3    H128687   1.414   1.205  17.045  0.3277 -0.9503  0.0802
 2424TIP3    H228688   1.344   1.274  17.161  0.1237  2.0462 -1.7759
 2425TIP3   OH228689   3.680   0.050   4.449 -0.0491  0.1750  0.1023
 2425TIP3    H128690   3.614   0.118   4.434  0.3414  1.0060  2.0739
 2425TIP3    H228691   3.724   0.076   4.529  0.1311 -2.4151  0.8906
 2426TIP3   OH228692   5.043   4.642   5.778 -0.1218 -0.7115  0.2808
 2426TIP3    H128693   5.076   4.574   5.836 -0.0090 -0.8381  0.0699
 2426TIP3    H228694   4.948   4.639   5.787 -0.0749 -0.2961  0.9526
 2427TIP3   OH228695   5.409   3.774   3.386 -0.8346 -0.2989  0.6283
 2427TIP3    H128696   5.468   3.702   3.411 -0.1746 -0.8101 -2.1863
 2427TIP3    H228697   5.462   3.853   3.396 -1.1354 -0.2838  2.4074
 2428TIP3   OH228698   1.310   2.663  15.832  0.3372 -0.4065  0.1514
 2428TIP3    H128699   1.284   2.572  15.816  0.1119 -0.3526  0.2093
 2428TIP3    H228700   1.329   2.666  15.925  0.2403 -0.3670  0.1688
 2429TIP3   OH228701   2.646   0.110  17.038 -0.4311 -0.3654 -0.6186
 2429TIP3    H128702   2.736   0.096  17.068 -1.3287 -3.0681  0.9893
 2429TIP3    H228703   2.606   0.162  17.107 -0.0915  0.9537 -1.3997
 2430TIP3   OH228704   2.149   3.180   0.041  0.2926 -0.2676 -0.6035
 2430TIP3    H128705   2.160   3.220  -0.046  3.6479  1.4868  0.5499
 2430TIP3    H228706   2.144   3.086   0.023 -1.2017  0.2014 -2.8542
 2431TIP3   OH228707   2.701   3.713  13.017 -0.3837  0.3764 -0.2413
 2431TIP3    H128708   2.729   3.779  12.955 -1.7673  0.3088 -0.9586
 2431TIP3    H228709   2.747   3.633  12.990 -0.4351  0.5147 -0.7334
 2432TIP3   OH228710   4.938   3.412  11.172 -0.1585  0.7000  0.6348
 2432TIP3    H128711   4.869   3.349  11.152 -1.4782  1.5078  2.4702
 2432TIP3    H228712   4.963   3.448  11.087 -1.0125 -0.6194 -0.1922
 2433TIP3   OH228713   0.254   5.648  12.773 -0.1467  0.3924  0.4794
 2433TIP3    H128714   0.185   5.624  12.711  0.3095  1.1553 -0.3339
 2433TIP3    H228715   0.244   5.743  12.784 -0.0118  0.3106  1.3137
 2434TIP3   OH228716   4.832   0.925  15.769  0.1684  0.6908 -0.1683
 2434TIP3    H128717   4.745   0.925  15.730 -0.3375 -2.0829  0.8267
 2434TIP3    H228718   4.889   0.888  15.701  0.3950  1.4393 -0.3991
 2435TIP3   OH228719   6.346   1.916   5.263  0.4968  0.4596  0.3183
 2435TIP3    H128720   6.326   1.827   5.235 -0.2432  0.9892 -0.9063
 2435TIP3    H228721   6.313   1.922   5.353 -0.3188 -0.2032  0.0649
 2436TIP3   OH228722   3.690   2.419   0.575  0.2629  0.4392  0.2049
 2436TIP3    H128723   3.628   2.478   0.533 -1.9428 -0.7989  1.6278
 2436TIP3    H228724   3.664   2.419   0.668  0.0871 -2.8342  0.2237
 2437TIP3   OH228725   3.678   3.098  15.308  0.1399 -0.0991 -0.4108
 2437TIP3    H128726   3.747   3.085  15.244 -0.5287  0.6265 -1.2876
 2437TIP3    H228727   3.713   3.060  15.389  2.2519  1.8018 -0.3808
 2438TIP3   OH228728   1.461   5.258  15.201 -0.4163 -0.3094 -0.4108
 2438TIP3    H128729   1.430   5.326  15.140  0.9976  0.2356 -0.5337
 2438TIP3    H228730   1.381   5.226  15.243 -1.2650  0.2854 -1.5459
 2439TIP3   OH228731   0.356   1.672   2.597 -0.6449 -0.3667 -0.3059
 2439TIP3    H128732   0.444   1.683   2.633 -0.0675 -2.2723 -1.1186
 2439TIP3    H228733   0.335   1.580   2.612 -1.1030 -0.7849 -3.2681
 2440TIP3   OH228734   6.229   2.232  13.162  0.7815  0.0158  0.7204
 2440TIP3    H128735   6.297   2.185  13.113  0.0583 -0.3434  0.0578
 2440TIP3    H228736   6.171   2.164  13.195 -0.6338  0.4751 -0.7779
 2441TIP3   OH228737   1.214   3.916   1.538  0.2222 -0.2751  0.3997
 2441TIP3    H128738   1.309   3.905   1.551  0.0453 -2.5703 -0.1412
 2441TIP3    H228739   1.174   3.863   1.606 -0.7028  0.1641  0.2103
 2442TIP3   OH228740   6.229   2.379  15.368  0.5600  0.3326  0.2690
 2442TIP3    H128741   6.283   2.392  15.447  0.3707  2.3870  0.0819
 2442TIP3    H228742   6.287   2.334  15.307  1.5853  1.1304  0.6333
 2443TIP3   OH228743   5.095   3.448  13.629  0.2382  0.1213 -0.0333
 2443TIP3    H128744   5.050   3.466  13.547 -0.9158 -1.3965  0.2614
 2443TIP3    H228745   5.061   3.514  13.690 -0.7335 -0.3110 -0.1111
 2444TIP3   OH228746   6.481   0.597   2.064  0.0583 -0.1416 -0.2819
 2444TIP3    H128747   6.425   0.573   1.990 -2.2079 -0.4152  1.4693
 2444TIP3    H228748   6.422   0.640   2.125  1.8639 -0.1001  1.4694
 2445TIP3   OH228749   2.066   6.081   6.217 -0.2196 -0.0397  0.8436
 2445TIP3    H128750   2.114   6.026   6.279 -1.1133  1.1686  2.6307
 2445TIP3    H228751   1.974   6.064   6.235 -0.4876 -0.3443 -0.7697
 2446TIP3   OH228752   1.241   6.294   6.331  0.0017 -0.0334 -0.0504
 2446TIP3    H128753   1.218   6.376   6.287 -2.4030 -0.1562  0.9053
 2446TIP3    H228754   1.166   6.237   6.316  0.7926 -1.3882  1.0057
 2447TIP3   OH228755   4.493   6.438  13.389  0.6721 -0.3998 -0.2707
 2447TIP3    H128756   4.510   6.529  13.364  2.1055 -0.1861  1.3406
 2447TIP3    H228757   4.579   6.404  13.416 -0.0696 -1.8326  0.3763
 2448TIP3   OH228758   5.480   1.781  10.634  0.0623 -0.1839  0.2644
 2448TIP3    H128759   5.448   1.871  10.637 -0.5026 -0.3035 -1.6528
 2448TIP3    H228760   5.545   1.776  10.705  0.3573  1.8252  0.1490
 2449TIP3   OH228761   4.647   0.305   1.335 -0.7448  0.0308  1.0075
 2449TIP3    H128762   4.710   0.259   1.390 -1.0929 -0.8381  0.6822
 2449TIP3    H228763   4.623   0.382   1.386 -0.3277 -0.2616  1.6499
 2450TIP3   OH228764   1.945   4.052   4.842  0.0788 -0.0108  0.1374
 2450TIP3    H128765   1.876   4.062   4.907  0.5202  1.1346  0.4416
 2450TIP3    H228766   2.024   4.084   4.886  0.5277  0.0335 -0.6968
 2451TIP3   OH228767   3.417   6.052   1.567  0.4818  0.1091  0.2862
 2451TIP3    H128768   3.414   6.035   1.473  0.8431 -1.6070  0.5700
 2451TIP3    H228769   3.330   6.083   1.589 -0.1594 -1.2392 -0.2974
 2452TIP3   OH228770   3.805   2.193   1.716  0.7472  0.0755  0.1570
 2452TIP3    H128771   3.738   2.249   1.677  0.5258 -0.5080 -0.3043
 2452TIP3    H228772   3.833   2.241   1.795 -0.7611 -0.0287  0.7745
 2453TIP3   OH228773   1.759   5.340   3.994  0.0818  0.0430 -0.0407
 2453TIP3    H128774   1.752   5.293   4.077 -1.8046  0.2021 -0.0909
 2453TIP3    H228775   1.781   5.430   4.019 -0.3742  0.0666  0.2742
 2454TIP3   OH228776   3.718   4.729  13.507 -0.0912  0.3967  0.1578
 2454TIP3    H128777   3.638   4.728  13.560  1.2560 -0.7525  2.2841
 2454TIP3    H228778   3.763   4.809  13.533  0.9852 -0.6020  1.4468
 2455TIP3   OH228779   5.907   5.539   1.846  0.2078 -0.2534 -0.4011
 2455TIP3    H128780   5.921   5.447   1.823 -0.0198 -0.3423 -0.1849
 2455TIP3    H228781   5.813   5.551   1.836  0.4985  0.5121 -2.4959
 2456TIP3   OH228782   0.716   5.643  10.637  0.0609  0.0717  0.1085
 2456TIP3    H128783   0.738   5.551  10.624 -1.0691 -0.0615 -0.9777
 2456TIP3    H228784   0.778   5.674  10.704  0.2555 -1.5378  0.6830
 2457TIP3   OH228785   5.445   6.428   4.590  0.5448 -0.5648  0.1876
 2457TIP3    H128786   5.490   6.343   4.584  1.0147 -0.4873  2.1673
 2457TIP3    H228787   5.352   6.405   4.593  0.5427 -0.8618 -1.4548
 2458TIP3   OH228788   3.427   1.921  15.371 -0.4257  0.0712 -0.0288
 2458TIP3    H128789   3.521   1.933  15.387 -0.8465 -0.0531  2.7857
 2458TIP3    H228790   3.421   1.897  15.279  2.3551 -0.5186 -0.0911
 2459TIP3   OH228791   0.361   0.352  12.829  0.1185 -0.3049 -0.0020
 2459TIP3    H128792   0.456   0.362  12.837  0.1885 -0.0972 -1.0185
 2459TIP3    H228793   0.350   0.268  12.784 -0.1748 -0.2656 -0.0003
 2460TIP3   OH228794   6.436   1.512  11.217 -0.0382  0.0507  0.0248
 2460TIP3    H128795   6.420   1.557  11.300 -1.7135 -1.0191  0.3097
 2460TIP3    H228796   6.442   1.420  11.241 -0.1684 -0.2259 -0.9898
 2461TIP3   OH228797   1.435   3.606   1.157  0.7155 -0.1013  0.2831
 2461TIP3    H128798   1.352   3.564   1.135  0.5905  0.1541  0.2666
 2461TIP3    H228799   1.410   3.684   1.207  0.9428  0.0112  0.2201
 2462TIP3   OH228800   0.574   0.761  13.553  0.1595 -0.5341 -0.8297
 2462TIP3    H128801   0.527   0.756  13.636  1.0698  0.1977 -0.2652
 2462TIP3    H228802   0.605   0.852  13.548  0.1717 -0.5874 -1.9364
 2463TIP3   OH228803   3.907   0.540  15.132 -0.5120 -0.6904  0.0877
 2463TIP3    H128804   3.933   0.612  15.190 -1.9885 -0.2250  0.1911
 2463TIP3    H228805   3.951   0.463  15.169 -0.5085 -0.1910  1.1539
 2464TIP3   OH228806   0.758   6.469   4.886  0.1649 -0.0074 -0.5452
 2464TIP3    H128807   0.681   6.462   4.829  0.7540 -0.9343 -1.2450
 2464TIP3    H228808   0.744   6.549   4.935 -1.4512 -0.3678 -0.3829
 2465TIP3   OH228809   6.664   0.130   2.770  0.4784 -0.1302 -0.6327
 2465TIP3    H128810   6.596   0.063   2.774  1.6803 -1.3279  0.0314
 2465TIP3    H228811   6.705   0.117   2.684  0.5102 -0.0409 -0.6307
 2466TIP3   OH228812   0.192   5.960  13.320 -0.3932 -0.5164  0.7563
 2466TIP3    H128813   0.195   5.956  13.224  0.9330 -1.4877  0.8269
 2466TIP3    H228814   0.173   5.871  13.347 -0.4737 -0.2988  1.4163
 2467TIP3   OH228815   4.948   5.094  11.712  0.3624 -0.2654  0.0322
 2467TIP3    H128816   4.978   5.042  11.637  1.0250  0.3647 -0.1434
 2467TIP3    H228817   5.022   5.092  11.773  0.0955 -0.1691  0.3556
 2468TIP3   OH228818   0.121   0.133   5.437  0.5045  0.2693 -0.5893
 2468TIP3    H128819   0.125   0.197   5.366 -0.2853  1.4069  0.3542
 2468TIP3    H228820   0.157   0.180   5.513 -0.0020 -0.4305  0.0993
 2469TIP3   OH228821   0.855   1.910   3.630 -0.4968  0.2692 -0.1581
 2469TIP3    H128822   0.852   1.941   3.721 -1.5003  0.7293 -0.3348
 2469TIP3    H228823   0.766   1.924   3.598 -0.0369  0.4846 -1.3462
 2470TIP3   OH228824   5.437   4.845   5.032  0.1894 -0.0703  0.1200
 2470TIP3    H128825   5.347   4.814   5.019  0.0927  0.3985 -0.3606
 2470TIP3    H228826   5.432   4.940   5.017  0.3717  0.2723  2.1230
 2471TIP3   OH228827   1.755   6.142   6.648 -0.1136  0.4688  0.2200
 2471TIP3    H128828   1.708   6.061   6.670 -1.7034  1.4508  0.5079
 2471TIP3    H228829   1.726   6.162   6.559 -0.5955  1.3116  0.5599
 2472TIP3   OH228830   4.833   0.317   6.309  0.0238  0.4596  0.3407
 2472TIP3    H128831   4.925   0.296   6.323 -0.2807 -2.2214 -1.2923
 2472TIP3    H228832   4.827   0.339   6.216 -0.8735  1.1927  0.5709
 2473TIP3   OH228833   3.224   2.602  12.704 -0.4727 -0.5785  0.2265
 2473TIP3    H128834   3.233   2.572  12.794 -2.2507 -2.2194 -0.1014
 2473TIP3    H228835   3.130   2.599  12.687 -0.2522  0.7244 -1.3608
 2474TIP3   OH228836   4.547   6.529  14.247 -0.6218  0.2135 -0.3177
 2474TIP3    H128837   4.530   6.512  14.339  0.8266 -0.5180 -0.1697
 2474TIP3    H228838   4.460   6.541  14.208 -1.1684  2.3588  1.4593
 2475TIP3   OH228839   3.344   3.838  14.821 -0.1732 -0.2991  0.4390
 2475TIP3    H128840   3.429   3.816  14.861  0.5731  0.7832 -0.5049
 2475TIP3    H228841   3.366   3.900  14.751 -1.8574  0.7676  0.8289
 2476TIP3   OH228842   3.546   4.774   0.404 -0.3204 -0.4638  0.1728
 2476TIP3    H128843   3.459   4.734   0.408  0.5508 -2.3723  0.7360
 2476TIP3    H228844   3.583   4.742   0.321 -0.1421  0.3295 -0.0621
 2477TIP3   OH228845   5.096   3.769  16.989  0.2237  0.4506 -0.6985
 2477TIP3    H128846   5.156   3.759  17.062 -1.5282 -0.7190  0.6089
 2477TIP3    H228847   5.102   3.861  16.965  0.6832  0.8697  1.0189
 2478TIP3   OH228848   5.743   6.111   5.247  0.2142 -0.0924  0.2501
 2478TIP3    H128849   5.718   6.038   5.191 -1.1660  0.7576 -0.2553
 2478TIP3    H228850   5.806   6.160   5.194  0.5070 -0.4475  0.2639
 2479TIP3   OH228851   4.201   5.914  14.074  0.1079 -0.4333 -0.2161
 2479TIP3    H128852   4.283   5.945  14.111 -1.1120  0.6425  1.6673
 2479TIP3    H228853   4.216   5.912  13.979  2.7518 -1.6886  0.1923
 2480TIP3   OH228854   1.536   3.560  16.439  0.4670 -0.3438 -0.8130
 2480TIP3    H128855   1.572   3.523  16.359 -1.3588 -0.3950 -1.6178
 2480TIP3    H228856   1.594   3.634  16.460  2.5677 -2.0052 -0.6372
 2481TIP3   OH228857   5.336   3.140  14.159  0.2686 -0.3042  0.7887
 2481TIP3    H128858   5.365   3.216  14.110  3.7504 -2.0736 -0.0417
 2481TIP3    H228859   5.364   3.157  14.249 -0.2593  0.0335  0.8913
 2482TIP3   OH228860   5.199   2.570   1.624  0.1530  0.2683 -0.1646
 2482TIP3    H128861   5.206   2.612   1.538 -0.1771  1.5527  0.4180
 2482TIP3    H228862   5.192   2.476   1.605  4.3368  0.1042 -1.3645
 2483TIP3   OH228863   0.821   1.038   3.973 -0.5140  0.3722  0.0996
 2483TIP3    H128864   0.888   1.078   3.919  0.4243 -0.5594  0.5544
 2483TIP3    H228865   0.853   1.048   4.063 -2.3397  2.4499  0.5699
 2484TIP3   OH228866   1.613   4.557   3.255  0.4670  0.2925 -0.3769
 2484TIP3    H128867   1.703   4.586   3.263  0.9090 -0.9221 -0.7691
 2484TIP3    H228868   1.595   4.558   3.161 -0.4608  2.0439 -0.2084
 2485TIP3   OH228869   0.852   3.664  14.802  0.4191 -0.1107 -0.2562
 2485TIP3    H128870   0.798   3.724  14.749  0.1225 -0.0062  0.1596
 2485TIP3    H228871   0.842   3.696  14.891  1.3008  0.0013 -0.1929
 2486TIP3   OH228872   1.994   6.398  14.277  0.3041 -0.3051  0.3430
 2486TIP3    H128873   2.018   6.372  14.366 -0.1151 -2.0847 -0.0274
 2486TIP3    H228874   1.904   6.368  14.267  0.4950 -0.5293 -0.8257
 2487TIP3   OH228875   6.710   3.799  11.927  0.1995  0.0811 -0.0706
 2487TIP3    H128876   6.615   3.788  11.928  0.1966  0.1772  2.1614
 2487TIP3    H228877   6.741   3.726  11.874 -1.0692 -0.3821 -0.2054
 2488TIP3   OH228878   1.219   5.257  12.869  0.0477 -0.2920  0.1979
 2488TIP3    H128879   1.180   5.190  12.814  0.7854 -2.3418  2.0772
 2488TIP3    H228880   1.272   5.310  12.810  0.2145 -1.9750 -1.1866
 2489TIP3   OH228881   0.991   5.498  11.407 -0.0532  0.0680 -0.4114
 2489TIP3    H128882   0.906   5.478  11.366 -0.0430 -0.6559 -0.0906
 2489TIP3    H228883   0.981   5.468  11.497  0.4834  0.1572 -0.3246
 2490TIP3   OH228884   2.529   4.203  14.033 -0.0136 -0.0663 -0.3935
 2490TIP3    H128885   2.436   4.193  14.014  0.1197  0.4087 -1.3233
 2490TIP3    H228886   2.559   4.272  13.973  0.7506  0.3854  0.4965
 2491TIP3   OH228887   6.649   1.549  12.341  0.4017 -0.0430 -0.0853
 2491TIP3    H128888   6.616   1.583  12.258 -0.0252 -0.3061 -0.0248
 2491TIP3    H228889   6.591   1.477  12.363 -0.4608  1.0313  1.2398
 2492TIP3   OH228890   0.075   2.718  15.735 -0.2473  0.4128  0.1948
 2492TIP3    H128891   0.052   2.681  15.650  0.3357  2.1458 -0.7458
 2492TIP3    H228892   0.117   2.646  15.782 -1.3006 -0.7899 -0.6692
 2493TIP3   OH228893   2.707   3.860  14.716  0.3167 -0.6809  0.2089
 2493TIP3    H128894   2.690   3.842  14.623 -1.1725 -1.9055  0.6973
 2493TIP3    H228895   2.701   3.775  14.759  0.0576  0.0058  1.5607
 2494TIP3   OH228896   6.421   6.635  12.340 -0.3466  0.0497 -0.1925
 2494TIP3    H128897   6.410   6.704  12.275  0.8570 -0.3128 -0.7878
 2494TIP3    H228898   6.497   6.586  12.310  0.8427  0.4900  2.0275
 2495TIP3   OH228899   3.499   4.078  10.575 -0.0306  0.2051  0.3162
 2495TIP3    H128900   3.504   4.017  10.649 -2.6303 -0.5756 -0.0984
 2495TIP3    H228901   3.576   4.134  10.585  0.9921 -1.4658  2.2004
 2496TIP3   OH228902   0.254   6.589   4.028  0.0816  0.3807  0.2036
 2496TIP3    H128903   0.176   6.536   4.013 -1.1983  2.2470  0.0903
 2496TIP3    H228904   0.253   6.655   3.959  1.4754  0.7733  0.5239
 2497TIP3   OH228905   0.803   2.692  14.301  0.8563  0.3912 -0.4922
 2497TIP3    H128906   0.850   2.612  14.323 -0.0637 -0.8936 -2.9206
 2497TIP3    H228907   0.858   2.735  14.235 -0.4540 -0.2374 -2.0494
 2498TIP3   OH228908   1.088   3.049   0.465  0.0357  0.0793  0.5338
 2498TIP3    H128909   1.016   3.107   0.442 -0.0106  0.6866  2.1484
 2498TIP3    H228910   1.085   3.043   0.560  0.2769 -2.2913  0.4359
 2499TIP3   OH228911   0.274   6.148   3.945  0.4414 -0.1291  0.3324
 2499TIP3    H128912   0.318   6.209   4.004  0.0907 -0.6094  1.0923
 2499TIP3    H228913   0.326   6.067   3.950  1.9567  0.6205 -2.0203
 2500TIP3   OH228914   3.938   0.181  15.905 -0.2167 -0.6979  1.1721
 2500TIP3    H128915   4.033   0.188  15.913 -0.2220  0.3159  0.4345
 2500TIP3    H228916   3.924   0.103  15.851  0.1358 -1.6931  2.4810
 2501TIP3   OH228917   3.032   4.299  16.452 -0.5040  0.2088 -0.7555
 2501TIP3    H128918   3.090   4.374  16.444 -1.4347  0.8958 -1.2006
 2501TIP3    H228919   2.946   4.337  16.472 -0.9024 -0.7560 -0.6128
 2502TIP3   OH228920   1.803   6.443  11.584  0.3114 -0.0054 -0.1259
 2502TIP3    H128921   1.889   6.432  11.624 -0.4411 -2.4143  0.9309
 2502TIP3    H228922   1.791   6.364  11.531 -2.1335 -0.7833  1.4846
 2503TIP3   OH228923   0.263   2.546  16.428 -0.7483 -0.4069  0.4778
 2503TIP3    H128924   0.179   2.593  16.424 -0.9083 -0.7609 -0.4960
 2503TIP3    H228925   0.327   2.613  16.451 -1.4060 -0.2825  2.0033
 2504TIP3   OH228926   4.029   6.058   4.151  0.0046 -0.0469 -0.1321
 2504TIP3    H128927   4.020   6.007   4.231  1.3043 -0.2674 -0.1216
 2504TIP3    H228928   3.973   6.134   4.165 -0.1509 -0.3208  0.7790
 2505TIP3   OH228929   1.604   5.526  16.908  0.0355 -0.0299 -0.7839
 2505TIP3    H128930   1.529   5.579  16.884 -0.1374 -0.7822 -1.9506
 2505TIP3    H228931   1.680   5.574  16.875  0.0824  0.7731  0.4736
 2506TIP3   OH228932   0.403   2.404  12.735  0.4563  0.0393  0.2083
 2506TIP3    H128933   0.466   2.475  12.752 -0.3391  0.8825 -0.3035
 2506TIP3    H228934   0.333   2.420  12.799 -0.7228  0.9653 -1.2796
 2507TIP3   OH228935   2.062   3.013  16.013  0.7415 -0.0540 -0.6969
 2507TIP3    H128936   2.033   2.982  15.927 -2.0173  0.8311 -0.1443
 2507TIP3    H228937   2.034   2.944  16.074  0.2382  0.5699 -0.2100
 2508TIP3   OH228938   2.425   0.786  14.374 -0.1140  0.4589 -0.2712
 2508TIP3    H128939   2.342   0.834  14.376 -1.3668 -1.5472 -1.5751
 2508TIP3    H228940   2.412   0.714  14.436  1.2246  1.0111  0.6518
 2509TIP3   OH228941   2.860   1.006  15.859 -0.4419 -0.0680  0.5479
 2509TIP3    H128942   2.935   1.022  15.801 -0.8484  0.4254  0.1521
 2509TIP3    H228943   2.884   0.927  15.908  0.5731  0.4149  0.8301
 2510TIP3   OH228944   3.651   5.806  13.178 -0.1698  0.3835 -0.0586
 2510TIP3    H128945   3.577   5.767  13.224  0.4009  0.2849  0.7795
 2510TIP3    H228946   3.700   5.853  13.246  1.9668 -1.6810 -0.0899
 2511TIP3   OH228947   3.592   2.707  11.539 -0.4225 -0.2181 -0.1471
 2511TIP3    H128948   3.662   2.694  11.603 -0.9215  0.6261  0.5730
 2511TIP3    H228949   3.638   2.720  11.456  0.2141 -1.9470 -0.0922
 2512TIP3   OH228950   4.918   5.852  15.298 -0.0211 -0.8508 -0.1629
 2512TIP3    H128951   4.862   5.788  15.254 -0.0274  0.1578 -1.6525
 2512TIP3    H228952   4.942   5.914  15.229  1.6779 -0.4058  0.8001
 2513TIP3   OH228953   2.191   0.847   5.042 -0.0921  0.4060 -0.3153
 2513TIP3    H128954   2.112   0.832   5.095 -0.4173  0.2872 -0.8240
 2513TIP3    H228955   2.178   0.935   5.005  0.2731  0.6096  0.0393
 2514TIP3   OH228956   5.751   0.423   5.671  0.2964 -0.0445 -0.0582
 2514TIP3    H128957   5.715   0.461   5.752  2.4821  0.9171  0.5071
 2514TIP3    H228958   5.684   0.438   5.605 -0.8417  0.6236  1.2312
 2515TIP3   OH228959   3.107   1.985  16.895  0.1834  0.2524 -0.3596
 2515TIP3    H128960   3.023   1.940  16.904  0.9441 -1.0732  0.2097
 2515TIP3    H228961   3.171   1.923  16.929  1.4068  1.2304 -0.8615
 2516TIP3   OH228962   3.139   4.091   2.461 -0.4060 -0.4039 -0.7789
 2516TIP3    H128963   3.113   3.999   2.464 -1.3398 -0.1281  4.5923
 2516TIP3    H228964   3.223   4.094   2.507 -0.3621  1.4120 -0.9491
 2517TIP3   OH228965   5.358   1.685   4.145 -0.2622  0.8376  0.0777
 2517TIP3    H128966   5.317   1.770   4.160 -1.3005  0.6253 -1.4653
 2517TIP3    H228967   5.312   1.626   4.205  0.5745  1.3807  1.2699
 2518TIP3   OH228968   0.005   5.199  15.034  0.1152  0.6154 -0.1556
 2518TIP3    H128969   0.055   5.251  14.971  0.7364  2.1071  1.5346
 2518TIP3    H228970  -0.042   5.264  15.087 -0.3203 -0.6044  0.9795
 2519TIP3   OH228971   5.601   2.328  13.463  0.2959 -0.1468 -0.2840
 2519TIP3    H128972   5.692   2.302  13.448 -0.3329 -2.5908 -0.0082
 2519TIP3    H228973   5.556   2.306  13.382 -0.4070 -0.6810  0.2433
 2520TIP3   OH228974   0.889   3.774  11.309  0.1990 -0.1816 -0.2665
 2520TIP3    H128975   0.932   3.692  11.332  0.3144  0.0716  0.4268
 2520TIP3    H228976   0.951   3.818  11.250  1.2383  0.5405  1.3533
 2521TIP3   OH228977   0.454   4.867  12.490  0.2853  0.0993 -0.4708
 2521TIP3    H128978   0.397   4.934  12.454 -0.4431  0.0965  0.6451
 2521TIP3    H228979   0.537   4.877  12.443 -0.1481  1.1120 -1.0160
 2522TIP3   OH228980   5.985   5.272   3.192  0.1121  0.3262 -0.3236
 2522TIP3    H128981   5.988   5.313   3.279  1.0856  1.3650 -0.8268
 2522TIP3    H228982   6.011   5.181   3.207 -0.0925  0.4024  0.5268
 2523TIP3   OH228983   2.786   2.060  14.964 -0.0960 -0.1282  0.6074
 2523TIP3    H128984   2.698   2.098  14.966 -0.6001 -1.1384 -1.6182
 2523TIP3    H228985   2.823   2.082  15.050 -2.3019  0.7966  1.3590
 2524TIP3   OH228986   1.066   3.485   1.953  0.8316  0.0828 -0.1328
 2524TIP3    H128987   1.095   3.523   2.036 -1.7139  3.3196 -0.6342
 2524TIP3    H228988   1.133   3.419   1.933  2.9628  1.1072  3.0984
 2525TIP3   OH228989   5.828   3.259  15.661 -0.0024 -0.0720 -0.1258
 2525TIP3    H128990   5.769   3.222  15.596  0.7974 -0.8231 -0.4410
 2525TIP3    H228991   5.915   3.229  15.634  0.4053  0.1497  0.9123
 2526TIP3   OH228992   5.314   0.482  15.381 -0.5217  0.2570  0.4464
 2526TIP3    H128993   5.273   0.509  15.298  0.0340 -0.5091 -0.0852
 2526TIP3    H228994   5.381   0.548  15.397  1.2358 -1.0699 -1.1581
 2527TIP3   OH228995   2.866   3.064   3.785  0.1985 -0.3331 -0.4896
 2527TIP3    H128996   2.942   3.052   3.842  1.8863  0.4552 -2.4995
 2527TIP3    H228997   2.876   2.997   3.718 -0.5531  0.1877 -1.1251
 2528TIP3   OH228998   4.438   3.635   0.645 -0.5903  0.4197  0.4231
 2528TIP3    H128999   4.375   3.672   0.583 -0.9586  0.4163  0.7925
 2528TIP3    H229000   4.406   3.546   0.660 -0.4846  0.4112  0.5937
 2529TIP3   OH229001   0.889   1.030   3.495  0.0820  0.2120 -1.1731
 2529TIP3    H129002   0.977   0.998   3.515 -1.0284 -1.8310  0.6007
 2529TIP3    H229003   0.852   0.962   3.437 -1.1271 -0.1079 -0.0470
 2530TIP3   OH229004   2.364   0.679  12.225  0.1415  0.1056 -0.4351
 2530TIP3    H129005   2.400   0.606  12.275  0.4904  1.9541  2.0955
 2530TIP3    H229006   2.436   0.707  12.168  0.3117 -0.8446 -0.7090
 2531TIP3   OH229007   6.460   2.598  13.510  0.1781  0.1031 -0.4862
 2531TIP3    H129008   6.485   2.603  13.418 -0.2032 -1.0717 -0.6602
 2531TIP3    H229009   6.524   2.654  13.555  1.3556 -0.6005 -1.2634
 2532TIP3   OH229010   4.533   0.261  17.041  0.5841 -0.1923 -0.0887
 2532TIP3    H129011   4.561   0.339  16.992 -0.4072 -0.6939 -1.4921
 2532TIP3    H229012   4.442   0.278  17.063  0.3307 -1.0039 -0.5066
 2533TIP3   OH229013   2.602   4.097   5.920  0.5861 -0.6157 -0.3074
 2533TIP3    H129014   2.671   4.036   5.945  0.9551  0.0144  0.2474
 2533TIP3    H229015   2.595   4.156   5.995  0.7759  0.5011 -1.1523
 2534TIP3   OH229016   4.950   4.402   5.415  0.0079 -0.5167 -0.2213
 2534TIP3    H129017   4.904   4.486   5.417 -0.1587 -0.6077 -0.2565
 2534TIP3    H229018   4.902   4.346   5.476  0.1391 -0.5765 -0.1717
 2535TIP3   OH229019   4.502   6.402  15.674  0.0604 -0.7118 -0.2395
 2535TIP3    H129020   4.585   6.419  15.719  0.4345 -0.4302 -1.0267
 2535TIP3    H229021   4.524   6.405  15.581 -1.2736  1.7037 -0.5153
 2536TIP3   OH229022   1.016   2.179   3.498 -0.1608 -0.2901 -0.6668
 2536TIP3    H129023   1.038   2.088   3.478  3.5439  0.0099  1.4616
 2536TIP3    H229024   1.049   2.192   3.587  0.8531  3.5221 -1.5089
 2537TIP3   OH229025   0.173   4.940   6.706  0.3552  0.8344  0.7213
 2537TIP3    H129026   0.151   5.001   6.635  0.9551  1.2800  0.9050
 2537TIP3    H229027   0.125   4.860   6.685  0.9191  0.7870 -0.4692
 2538TIP3   OH229028   6.208   1.652  16.627  0.3702 -0.1267 -0.5390
 2538TIP3    H129029   6.274   1.653  16.697  2.5768 -1.2735 -2.5117
 2538TIP3    H229030   6.228   1.729  16.574  0.3094 -0.6200 -1.2911
 2539TIP3   OH229031   0.648   5.387   5.173 -0.8708  0.0624  0.4354
 2539TIP3    H129032   0.720   5.390   5.236 -1.5240  0.7981  1.1549
 2539TIP3    H229033   0.580   5.336   5.216 -0.6187 -1.0104 -0.4226
 2540TIP3   OH229034   0.077   3.126  14.060  0.5039  0.0127  0.8928
 2540TIP3    H129035   0.149   3.111  14.120  0.1698 -0.6354  1.1362
 2540TIP3    H229036   0.011   3.172  14.112  1.5492  2.4226  0.1330
 2541TIP3   OH229037   0.920   4.618   2.542 -0.1210  0.3086  0.0527
 2541TIP3    H129038   0.968   4.576   2.471 -0.3320 -1.3327  0.8598
 2541TIP3    H229039   0.880   4.546   2.590 -2.8505  1.6036 -0.1919
 2542TIP3   OH229040   4.295   3.912   0.873  0.0944 -0.1895 -0.4519
 2542TIP3    H129041   4.291   3.821   0.901  0.6555 -0.0217  0.1839
 2542TIP3    H229042   4.355   3.954   0.935 -0.2041  0.6235 -0.7042
 2543TIP3   OH229043   2.753   4.923   5.080 -0.3547  0.4738  0.7198
 2543TIP3    H129044   2.729   4.930   4.988 -1.8529 -0.1849  1.0460
 2543TIP3    H229045   2.733   5.009   5.117 -2.6392 -0.1933  1.0750
 2544TIP3   OH229046   5.979   0.547  11.083 -0.6093  0.2079 -0.3525
 2544TIP3    H129047   5.916   0.601  11.132  2.3796  1.8838  1.8177
 2544TIP3    H229048   5.970   0.460  11.121 -1.5372  0.4571  0.0287
 2545TIP3   OH229049   5.143   1.035   3.386  0.2518 -0.2010 -0.1069
 2545TIP3    H129050   5.209   0.984   3.338 -0.0545 -0.3467 -0.3727
 2545TIP3    H229051   5.151   1.123   3.349  0.4593 -0.1646  0.0251
 2546TIP3   OH229052   4.234   0.718  10.922  0.6680 -0.2386 -0.3743
 2546TIP3    H129053   4.212   0.760  10.839  0.0670  0.0283 -0.0865
 2546TIP3    H229054   4.270   0.633  10.897  2.6759  0.7665 -0.9945
 2547TIP3   OH229055   2.900   3.693   2.582 -0.2065 -0.7036  0.4545
 2547TIP3    H129056   2.866   3.688   2.671 -0.0359  0.3972  0.5817
 2547TIP3    H229057   2.958   3.769   2.582 -0.8845 -0.1719 -0.8307
 2548TIP3   OH229058   2.915   1.207  14.281  0.3645  0.2856 -0.0625
 2548TIP3    H129059   2.837   1.171  14.237  1.8736 -1.7805 -1.1567
 2548TIP3    H229060   2.904   1.182  14.373  0.1567 -0.7797 -0.3692
 2549TIP3   OH229061   2.656   0.284   6.366  0.3512  0.2087  0.6225
 2549TIP3    H129062   2.610   0.206   6.337 -0.2129  0.0204  1.9720
 2549TIP3    H229063   2.637   0.350   6.300 -0.5852 -0.3152  0.3722
 2550TIP3   OH229064   4.357   2.472  12.970 -0.1511  0.4723  0.5495
 2550TIP3    H129065   4.420   2.429  12.912 -2.2942 -0.3527 -1.1984
 2550TIP3    H229066   4.374   2.433  13.056  2.0839  0.6630  0.2438
 2551TIP3   OH229067   2.373   3.849   4.036  0.2644 -0.0521 -0.4132
 2551TIP3    H129068   2.331   3.878   3.955  2.0512 -1.5365 -1.9405
 2551TIP3    H229069   2.311   3.786   4.074 -1.1019  1.5267 -0.0029
 2552TIP3   OH229070   2.553   4.253  11.956  0.4035  0.5231 -0.1047
 2552TIP3    H129071   2.622   4.187  11.950 -0.7353 -0.6603 -0.6178
 2552TIP3    H229072   2.554   4.296  11.871 -0.5581 -0.6259 -0.7219
 2553TIP3   OH229073   1.528   2.116   5.002  0.2661 -0.1640 -0.4410
 2553TIP3    H129074   1.510   2.179   5.072  4.0043  0.2390  0.2693
 2553TIP3    H229075   1.484   2.153   4.925 -1.6673  0.7577  1.0445
 2554TIP3   OH229076   4.947   4.736  14.922 -0.2810  0.2366 -0.2005
 2554TIP3    H129077   4.963   4.700  15.010  0.3715 -0.4051 -0.5750
 2554TIP3    H229078   5.030   4.775  14.897  0.3923 -2.0561 -1.6745
 2555TIP3   OH229079   4.078   0.730  13.236 -0.3662 -0.1547 -0.3728
 2555TIP3    H129080   4.018   0.732  13.310  0.9103 -1.7470  0.7575
 2555TIP3    H229081   4.164   0.716  13.276  0.5035  0.1915 -2.0757
 2556TIP3   OH229082   4.908   1.888   1.941  0.1888 -0.3739  0.0544
 2556TIP3    H129083   4.866   1.835   2.008 -0.1747 -0.6732 -0.4029
 2556TIP3    H229084   4.928   1.826   1.871  3.1884 -0.6101  1.0634
 2557TIP3   OH229085   1.877   6.598   4.916  0.0187 -0.4391 -0.2090
 2557TIP3    H129086   1.935   6.591   4.840  0.9691  0.5306  0.3977
 2557TIP3    H229087   1.870   6.692   4.932 -0.1510 -0.6348  0.9186
 2558TIP3   OH229088   0.512   2.343  11.555 -0.1964 -0.0399 -0.3342
 2558TIP3    H129089   0.421   2.359  11.578 -0.2089 -1.1981  0.4818
 2558TIP3    H229090   0.527   2.251  11.577  0.6199 -0.4081 -2.3012
 2559TIP3   OH229091   1.524   4.669   3.940  0.2597 -0.6301  0.1321
 2559TIP3    H129092   1.594   4.695   4.000  0.5916 -3.3421  0.9733
 2559TIP3    H229093   1.466   4.745   3.937  1.6688  0.5520  1.7379
 2560TIP3   OH229094   6.393   4.898  13.504  0.1804  0.2803 -0.2765
 2560TIP3    H129095   6.314   4.934  13.543  0.4351 -1.3658  1.8577
 2560TIP3    H229096   6.463   4.954  13.537  0.3128 -0.6578  1.0810
 2561TIP3   OH229097   3.012   2.845  12.919  0.1613  0.2607  0.1237
 2561TIP3    H129098   3.086   2.889  12.879  1.8103 -1.1288  1.5742
 2561TIP3    H229099   3.000   2.889  13.003  0.3323 -0.5110  0.5581
 2562TIP3   OH229100   1.871   4.366   4.770  0.0189  0.1316 -0.1419
 2562TIP3    H129101   1.817   4.317   4.832  1.3638 -0.1495  0.8375
 2562TIP3    H229102   1.881   4.452   4.811  1.3771 -0.2361  0.3030
 2563TIP3   OH229103   4.885   3.453   2.233 -0.0990 -0.0369 -0.3880
 2563TIP3    H129104   4.944   3.396   2.184  1.2650 -0.5976  1.8293
 2563TIP3    H229105   4.826   3.393   2.280  1.5092  0.2907  2.1612
 2564TIP3   OH229106   2.646   2.216   0.778 -0.0677 -0.1048  0.1092
 2564TIP3    H129107   2.730   2.229   0.735 -0.4754 -0.8822 -0.9467
 2564TIP3    H229108   2.667   2.165   0.857  0.6184  0.9085  0.5813
 2565TIP3   OH229109   2.241   0.190   4.792 -0.0142  0.0433  0.1842
 2565TIP3    H129110   2.231   0.127   4.863 -0.9649  1.4298  1.3302
 2565TIP3    H229111   2.324   0.234   4.811  0.5708 -0.7443 -0.5258
 2566TIP3   OH229112   2.213   2.708   1.733 -0.2269 -0.2934  0.1844
 2566TIP3    H129113   2.285   2.770   1.727  1.1497 -1.6498  2.1439
 2566TIP3    H229114   2.139   2.760   1.765  0.9514  0.3442  1.9422
 2567TIP3   OH229115   2.684   3.590  15.502  0.2192  0.4350  0.1040
 2567TIP3    H129116   2.639   3.672  15.521  0.5361  0.3866  1.0781
 2567TIP3    H229117   2.775   3.616  15.486  0.3041  0.2835  0.3396
 2568TIP3   OH229118   0.699   3.350  13.753  1.0779  0.2647 -0.0734
 2568TIP3    H129119   0.689   3.411  13.825 -1.2512 -0.1441 -0.0009
 2568TIP3    H229120   0.743   3.274  13.791  2.5325  1.2148  0.1969
 2569TIP3   OH229121   0.523   1.037  15.243  0.1576  0.1018 -0.0182
 2569TIP3    H129122   0.535   1.116  15.191 -2.3645  1.0591  0.7587
 2569TIP3    H229123   0.441   1.052  15.290  0.1048 -2.6071  0.8328
 2570TIP3   OH229124   6.541   2.487   5.617  0.0912 -0.5399 -0.7640
 2570TIP3    H129125   6.458   2.451   5.648  0.1960  1.0820  1.5100
 2570TIP3    H229126   6.602   2.413   5.622 -0.3187 -0.7762  1.3484
 2571TIP3   OH229127   1.288   2.569  12.103  0.4252  0.4634  0.0168
 2571TIP3    H129128   1.367   2.608  12.065  0.3794  1.1591  0.6153
 2571TIP3    H229129   1.239   2.643  12.138 -1.6707  0.2884 -2.4485
 2572TIP3   OH229130   1.523   4.490   1.252 -0.0081  0.0366  0.0939
 2572TIP3    H129131   1.441   4.442   1.261  1.0096 -1.2949  2.9286
 2572TIP3    H229132   1.564   4.484   1.338  2.3517  2.0101 -0.8299
 2573TIP3   OH229133   4.887   2.995   6.076 -0.2671 -0.2057 -0.1933
 2573TIP3    H129134   4.914   3.037   5.995  1.2700  0.5282  0.6734
 2573TIP3    H229135   4.905   3.060   6.144 -1.7469 -0.7169  0.7192
 2574TIP3   OH229136   2.654   1.476   5.403 -0.2120 -0.2333 -0.4146
 2574TIP3    H129137   2.728   1.517   5.447 -0.7146 -0.9540  1.1248
 2574TIP3    H229138   2.695   1.418   5.338  0.5652 -0.1069 -0.0512
 2575TIP3   OH229139   4.477   6.129  16.761  0.0918  0.2930 -0.2381
 2575TIP3    H129140   4.435   6.084  16.834  1.0252 -1.6115 -0.8341
 2575TIP3    H229141   4.511   6.210  16.799 -2.3273  0.9278  0.6812
 2576TIP3   OH229142   6.583   4.136   0.112  0.2470  0.5951  0.2716
 2576TIP3    H129143   6.549   4.195   0.045 -1.0816  1.1221  1.3871
 2576TIP3    H229144   6.616   4.061   0.063 -0.6046  1.0262 -0.9917
 2577TIP3   OH229145   3.632   4.492  14.790  0.4178 -0.0673 -0.1479
 2577TIP3    H129146   3.722   4.521  14.804 -0.4031  3.6649 -1.9293
 2577TIP3    H229147   3.640   4.412  14.738  2.6513  0.8074 -1.1967
 2578TIP3   OH229148   1.300   2.610  11.414  0.6952  0.1232  0.4572
 2578TIP3    H129149   1.333   2.553  11.483  2.2212  0.5487  0.1001
 2578TIP3    H229150   1.219   2.569  11.386  0.3333 -0.3443  2.1362
 2579TIP3   OH229151   6.318   4.329  14.411 -0.2566  0.0212 -0.3068
 2579TIP3    H129152   6.321   4.300  14.319 -0.1706 -1.5308  0.1722
 2579TIP3    H229153   6.294   4.251  14.460  1.6568  0.3405  1.2135
 2580TIP3   OH229154   2.800   3.124   5.087  0.0340 -0.3236 -0.4430
 2580TIP3    H129155   2.762   3.036   5.088 -0.0367 -0.3095 -1.2710
 2580TIP3    H229156   2.725   3.182   5.091 -0.0594 -0.2961 -2.0789
 2581TIP3   OH229157   2.906   2.133  14.345  0.4217  0.1225 -0.0977
 2581TIP3    H129158   2.975   2.194  14.371  1.0036  0.1938 -1.7515
 2581TIP3    H229159   2.934   2.100  14.260 -1.1562 -0.5218 -0.3843
 2582TIP3   OH229160   4.669   5.075  16.848  0.1380  0.0475  0.0377
 2582TIP3    H129161   4.635   5.034  16.928 -1.8486  0.7426 -0.4282
 2582TIP3    H229162   4.718   5.151  16.879 -3.0703  2.0241  0.5219
 2583TIP3   OH229163   1.492   1.520   1.224  0.2810  0.1745 -0.2457
 2583TIP3    H129164   1.406   1.484   1.245  0.9051 -1.0724  0.2320
 2583TIP3    H229165   1.515   1.481   1.139 -0.3236  1.7806 -1.1666
 2584TIP3   OH229166   6.402   5.398  15.608 -0.3478  0.6564  0.6017
 2584TIP3    H129167   6.404   5.486  15.572 -1.3866  0.8364  0.9600
 2584TIP3    H229168   6.358   5.345  15.542 -0.7270  0.6441  0.8561
 2585TIP3   OH229169   6.318   1.006  11.559  0.4450 -0.4324 -0.3833
 2585TIP3    H129170   6.285   0.994  11.648  1.0306  0.8676  0.0308
 2585TIP3    H229171   6.403   1.048  11.571  0.1769  0.4828 -1.5746
 2586TIP3   OH229172   3.690   4.717  16.248 -0.1034 -0.3573  0.6330
 2586TIP3    H129173   3.663   4.787  16.189  0.8574 -0.2220  0.3456
 2586TIP3    H229174   3.639   4.641  16.220 -0.9822  0.1663  0.8010
 2587TIP3   OH229175   5.698   6.034  13.538 -0.3424 -0.2610 -0.0118
 2587TIP3    H129176   5.646   6.026  13.459  0.7349 -1.6854 -0.5870
 2587TIP3    H229177   5.788   6.024  13.509  0.1068 -0.1968  1.3142
 2588TIP3   OH229178   0.871   3.834  14.376 -0.7960  0.3813  0.3770
 2588TIP3    H129179   0.851   3.845  14.469  2.9161 -1.7290  1.5146
 2588TIP3    H229180   0.882   3.923  14.342  2.0776  1.1060  3.0096
 2589TIP3   OH229181   6.353   2.324   5.679 -0.2956  0.0035 -0.3802
 2589TIP3    H129182   6.374   2.301   5.769  0.1071  1.9378  0.0317
 2589TIP3    H229183   6.284   2.262   5.654 -2.0844  0.9230  2.0356
 2590TIP3   OH229184   1.473   4.206  13.647 -0.0882 -0.0375 -0.0789
 2590TIP3    H129185   1.551   4.179  13.597 -0.2710 -0.8919  0.0988
 2590TIP3    H229186   1.415   4.130  13.644 -1.1909  0.8051 -0.7400
 2591TIP3   OH229187   2.843   0.875  14.847 -0.0192 -0.4384 -0.3726
 2591TIP3    H129188   2.879   0.834  14.768  1.6036 -0.3484  0.3050
 2591TIP3    H229189   2.853   0.808  14.915  1.1338  0.4733  0.3729
 2592TIP3   OH229190   6.327   0.699  16.387 -0.8427 -0.2855 -0.0585
 2592TIP3    H129191   6.281   0.742  16.315 -2.7857 -0.2418  1.1740
 2592TIP3    H229192   6.312   0.757  16.462  1.7841  0.0620  0.2347
 2593TIP3   OH229193   6.475   4.482   5.935 -0.2066 -0.5185  0.4091
 2593TIP3    H129194   6.409   4.458   6.001  0.0596 -2.4922 -0.0139
 2593TIP3    H229195   6.440   4.447   5.853  0.7004 -0.3290 -0.0617
 2594TIP3   OH229196   2.001   1.750  12.047 -0.2413  0.5671 -0.4754
 2594TIP3    H129197   2.037   1.662  12.040 -1.9012 -0.4963  3.0866
 2594TIP3    H229198   2.076   1.805  12.069  0.4282 -0.3798 -0.3566
 2595TIP3   OH229199   5.434   6.175   5.829  0.0836 -0.4747  0.2918
 2595TIP3    H129200   5.450   6.232   5.904  0.5296 -0.1046 -0.0791
 2595TIP3    H229201   5.385   6.101   5.865 -1.0356  0.4355  0.6650
 2596TIP3   OH229202   3.524   0.451  13.335  0.1558  0.0490 -0.4060
 2596TIP3    H129203   3.559   0.364  13.316 -0.2966 -0.4200  0.7952
 2596TIP3    H229204   3.437   0.433  13.371  0.4103  0.9367  0.6850
 2597TIP3   OH229205   4.709   5.361   0.010 -0.0261  0.5968 -0.0140
 2597TIP3    H129206   4.756   5.345   0.092  0.3018  0.4162 -0.2358
 2597TIP3    H229207   4.619   5.333   0.028  0.5170 -1.4917 -0.3846
 2598TIP3   OH229208   2.615   3.020  13.766  0.3400  0.2554  0.4214
 2598TIP3    H129209   2.553   2.987  13.831  0.7355  1.1732  1.2857
 2598TIP3    H229210   2.603   2.963  13.690 -2.0138  0.8094  0.3248
 2599TIP3   OH229211   4.021   3.472   2.008  0.0252 -0.6749  0.1411
 2599TIP3    H129212   3.968   3.517   2.074  0.8291 -0.9702  1.0092
 2599TIP3    H229213   3.983   3.498   1.924  0.3432  1.4757  0.6354
 2600TIP3   OH229214   5.483   1.696  11.562  0.2214  0.8912  0.0159
 2600TIP3    H129215   5.553   1.679  11.625 -1.9664 -0.6597  2.1107
 2600TIP3    H229216   5.511   1.649  11.483  1.7866  0.7340  0.6325
 2601TIP3   OH229217   4.097   6.487  13.200 -0.1012 -0.5144 -0.2248
 2601TIP3    H129218   4.122   6.443  13.119  0.5854  0.8321 -0.7527
 2601TIP3    H229219   4.010   6.523  13.183 -0.7653 -1.8307  0.2848
 2602TIP3   OH229220   3.261   3.397   5.261  0.7691 -0.1066 -0.3571
 2602TIP3    H129221   3.255   3.361   5.173 -1.0607  1.2835 -0.8420
 2602TIP3    H229222   3.207   3.339   5.315  0.2802  0.1740 -0.5426
 2603TIP3   OH229223   3.495   1.971   5.073  0.2011  0.6070 -0.3405
 2603TIP3    H129224   3.579   2.014   5.053 -0.2788  1.5877 -0.2808
 2603TIP3    H229225   3.520   1.884   5.104  1.1660  0.6059 -1.0650
 2604TIP3   OH229226   4.015   4.992   1.836 -0.8635  0.1699  0.5467
 2604TIP3    H129227   4.017   4.901   1.806 -1.0333  0.2175  0.3858
 2604TIP3    H229228   3.925   5.021   1.818 -1.7581 -0.6037  3.4926
 2605TIP3   OH229229   5.706   0.738   5.491 -0.0974  0.3156 -0.1033
 2605TIP3    H129230   5.652   0.665   5.462  0.7884  0.4935 -2.2453
 2605TIP3    H229231   5.644   0.807   5.512 -1.0099 -1.2377  2.7139
 2606TIP3   OH229232   4.103   1.799  12.022  0.4023  0.0905 -0.5126
 2606TIP3    H129233   4.054   1.853  12.084  0.6034 -0.0942 -0.1858
 2606TIP3    H229234   4.037   1.756  11.969  0.2128 -0.0498 -0.1653
 2607TIP3   OH229235   5.746   1.159   3.442  0.0254  0.3845 -0.0246
 2607TIP3    H129236   5.681   1.197   3.501  0.7941  1.6067  0.0458
 2607TIP3    H229237   5.775   1.080   3.488 -0.4605  0.5226  0.5437
 2608TIP3   OH229238   5.022   4.658  15.812  0.7186  0.2037 -0.3114
 2608TIP3    H129239   4.927   4.654  15.823  0.6559  2.3238  0.1337
 2608TIP3    H229240   5.035   4.643  15.718  0.0860 -1.8501 -0.0907
 2609TIP3   OH229241   4.843   4.196  12.565  0.4275 -0.4049  0.0315
 2609TIP3    H129242   4.907   4.239  12.622  1.0269  0.2608 -1.1291
 2609TIP3    H229243   4.895   4.138  12.510 -0.4700 -3.6349  2.3783
 2610TIP3   OH229244   5.651   1.030   3.996 -0.4717  0.1712 -0.7999
 2610TIP3    H129245   5.707   1.094   3.952 -1.3215  0.4061 -1.5416
 2610TIP3    H229246   5.693   1.016   4.081  0.5855  0.5183 -1.2654
 2611TIP3   OH229247   6.648   5.665  11.266  0.3241  0.1070  0.1850
 2611TIP3    H129248   6.600   5.636  11.189 -0.0043 -0.5737  0.6391
 2611TIP3    H229249   6.711   5.729  11.233  0.7482 -0.7763 -0.7630
 2612TIP3   OH229250   3.202   2.597  13.497  1.1103  0.0785 -0.1521
 2612TIP3    H129251   3.133   2.648  13.540 -0.8730 -1.7394 -1.0448
 2612TIP3    H229252   3.229   2.533  13.563 -1.0767 -1.9238 -1.1209
 2613TIP3   OH229253   5.074   3.515   0.621  0.3221 -1.2653  0.1561
 2613TIP3    H129254   5.168   3.525   0.631  0.4242 -1.4288 -0.6137
 2613TIP3    H229255   5.048   3.587   0.563  0.2248 -2.1839 -0.9567
 2614TIP3   OH229256   0.382   3.187   2.344  0.9504 -0.0441 -0.3246
 2614TIP3    H129257   0.423   3.121   2.288 -1.4234  0.6387 -2.9773
 2614TIP3    H229258   0.393   3.269   2.295  1.4068  1.0901  1.6275
 2615TIP3   OH229259   1.207   4.195   4.500 -0.1545 -0.0871  0.1860
 2615TIP3    H129260   1.143   4.197   4.572 -2.3618  0.8032 -1.7523
 2615TIP3    H229261   1.243   4.284   4.497  0.4712 -0.3153  0.6088
 2616TIP3   OH229262   0.452   5.830   2.208 -0.0963 -0.4913 -0.3198
 2616TIP3    H129263   0.517   5.895   2.181  0.0153 -0.4476  0.0492
 2616TIP3    H229264   0.501   5.767   2.260 -0.9051  1.2534  2.6863
 2617TIP3   OH229265   6.083   4.741  11.940  0.2797 -0.2754 -0.6874
 2617TIP3    H129266   5.996   4.702  11.931 -0.3121  1.2973 -2.0430
 2617TIP3    H229267   6.137   4.694  11.877  0.1416 -0.4798 -0.6532
 2618TIP3   OH229268   0.840   2.822  13.982  0.2223 -0.3966 -0.0221
 2618TIP3    H129269   0.752   2.852  13.961  0.3461 -0.5996 -0.8381
 2618TIP3    H229270   0.859   2.755  13.917  0.8946 -0.5044  0.2823
 2619TIP3   OH229271   6.072   0.320   4.825 -0.2758  0.5197 -0.4277
 2619TIP3    H129272   6.018   0.281   4.893 -0.5553  2.0992  0.2875
 2619TIP3    H229273   6.056   0.266   4.747 -0.0031 -1.2574  0.7315
 2620TIP3   OH229274   2.509   6.624  17.223  0.1631 -0.1231  0.3876
 2620TIP3    H129275   2.434   6.605  17.167 -0.2387 -0.0113  0.8900
 2620TIP3    H229276   2.572   6.555  17.202 -0.4072 -0.7109  0.5669
 2621TIP3   OH229277   5.951   5.023  16.973 -0.0191  0.2777 -0.2272
 2621TIP3    H129278   5.926   5.116  16.971  0.0996  0.2836 -2.1831
 2621TIP3    H229279   5.986   5.010  17.061  0.6589  2.2655 -0.1720
 2622TIP3   OH229280   1.836   6.703  13.718  0.0352 -0.4349 -0.6177
 2622TIP3    H129281   1.819   6.790  13.752  1.3009 -0.0059 -1.0521
 2622TIP3    H229282   1.860   6.651  13.794 -0.2402 -0.2855 -0.4298
 2623TIP3   OH229283   0.686   3.329   1.668 -0.5752  0.0125  0.0710
 2623TIP3    H129284   0.773   3.300   1.640 -0.2194  0.3934  0.7670
 2623TIP3    H229285   0.703   3.387   1.742 -1.5415 -1.7535  1.7433
 2624TIP3   OH229286   0.254   6.686  10.576 -0.2758 -0.4655 -0.2210
 2624TIP3    H129287   0.254   6.755  10.509 -0.8491 -0.8657 -0.6386
 2624TIP3    H229288   0.195   6.719  10.644  0.3502 -0.0341  0.1206
 2625TIP3   OH229289   6.703   4.109   3.003  0.2107 -0.0574  0.0289
 2625TIP3    H129290   6.683   4.032   3.057 -0.7898 -0.1769 -0.4947
 2625TIP3    H229291   6.629   4.168   3.017  1.7018  1.5009  1.6294
 2626TIP3   OH229292   5.082   0.783   2.295  0.4844  0.3738  0.5379
 2626TIP3    H129293   5.073   0.874   2.323  0.0557  0.1331  1.1962
 2626TIP3    H229294   5.078   0.732   2.376 -1.7276 -0.3907 -0.0026
 2627TIP3   OH229295   0.205   4.641  11.652  0.1946 -0.6364 -0.0028
 2627TIP3    H129296   0.184   4.612  11.740 -1.4678  0.7713  0.0940
 2627TIP3    H229297   0.168   4.573  11.595  1.9691 -1.9498  0.3828
 2628TIP3   OH229298   3.997   6.332   2.839  0.3481 -0.6251 -0.1759
 2628TIP3    H129299   3.958   6.373   2.916  1.7712  1.7443 -0.6474
 2628TIP3    H229300   3.985   6.238   2.852  0.3775 -0.2428  2.8051
 2629TIP3   OH229301   2.828   1.235   0.843 -0.4911  0.5067 -0.5343
 2629TIP3    H129302   2.870   1.169   0.899 -0.3597 -0.3271 -1.6008
 2629TIP3    H229303   2.897   1.296   0.820  0.6126 -1.8216 -3.7185
 2630TIP3   OH229304   5.830   6.764  14.324 -0.2592  0.2975 -0.3194
 2630TIP3    H129305   5.845   6.791  14.234  0.6198 -0.1093 -0.3015
 2630TIP3    H229306   5.868   6.676  14.329  0.5868  0.7107  0.7013
 2631TIP3   OH229307   1.327   0.791   2.786 -0.0073 -0.1927  0.0543
 2631TIP3    H129308   1.359   0.753   2.868  1.3358 -0.2193 -0.4730
 2631TIP3    H229309   1.237   0.819   2.806  0.4689  0.2342  1.6660
 2632TIP3   OH229310   4.113   3.697   2.264  0.0530  0.5630  0.2884
 2632TIP3    H129311   4.188   3.707   2.206  0.4424 -0.3250  0.6340
 2632TIP3    H229312   4.112   3.604   2.287 -1.6402  0.3862 -0.3825
 2633TIP3   OH229313   1.643   0.977  10.556 -0.4133 -0.1280 -0.3037
 2633TIP3    H129314   1.559   0.977  10.511 -1.4175 -2.5251  1.4275
 2633TIP3    H229315   1.638   1.051  10.617 -2.3219 -1.7295  1.5519
 2634TIP3   OH229316   6.679   4.621  14.757  0.1083  0.7811 -0.0417
 2634TIP3    H129317   6.684   4.687  14.688  0.6253  3.5059  2.4597
 2634TIP3    H229318   6.602   4.646  14.809  0.1888 -0.7152  0.8321
 2635TIP3   OH229319   6.452   2.140  11.204 -0.2979  0.3862 -0.4430
 2635TIP3    H129320   6.457   2.109  11.114  1.2789 -1.6007  0.2739
 2635TIP3    H229321   6.375   2.096  11.240  1.2749 -1.8962  0.2390
 2636TIP3   OH229322   2.610   4.712  13.418 -0.4717  0.0514 -0.3260
 2636TIP3    H129323   2.604   4.804  13.392  2.4155 -0.0005 -1.3377
 2636TIP3    H229324   2.602   4.663  13.336 -3.0281 -0.7002  0.3152
 2637TIP3   OH229325   3.614   4.984  12.308  0.0018 -0.8503  0.2119
 2637TIP3    H129326   3.543   5.034  12.349 -1.0763 -1.8604 -0.4067
 2637TIP3    H229327   3.611   4.899  12.351  0.0311 -1.3087 -0.6884
 2638TIP3   OH229328   6.653   3.503   3.650 -0.1177 -0.5679  0.1483
 2638TIP3    H129329   6.740   3.465   3.642 -0.7927 -1.7227 -2.0491
 2638TIP3    H229330   6.602   3.436   3.696 -0.6370 -1.2871 -1.4220
 2639TIP3   OH229331   1.841   6.698   2.042  0.0031 -0.0125 -0.2573
 2639TIP3    H129332   1.850   6.789   2.013  0.5919 -0.4341 -1.4454
 2639TIP3    H229333   1.835   6.648   1.961 -1.0948 -0.9690  0.3999
 2640TIP3   OH229334   0.732   0.804  14.171 -0.2397  0.5677 -0.5096
 2640TIP3    H129335   0.782   0.845  14.242 -1.9884  1.8074  0.0466
 2640TIP3    H229336   0.763   0.847  14.092 -1.1119  2.0506 -0.0606
 2641TIP3   OH229337   6.293   2.271  12.357 -0.1355 -0.5819 -0.2810
 2641TIP3    H129338   6.372   2.323  12.347  0.2815 -1.1388  0.0807
 2641TIP3    H229339   6.310   2.215  12.433 -1.6372  0.6564  0.9930
 2642TIP3   OH229340   4.356   5.465   3.039 -0.2713 -0.1117 -0.8929
 2642TIP3    H129341   4.313   5.528   2.981  0.2209  0.7252 -0.3696
 2642TIP3    H229342   4.292   5.447   3.107 -0.6655 -0.7084 -1.4166
 2643TIP3   OH229343   2.023   3.358   5.542 -0.7364 -0.5091  0.1024
 2643TIP3    H129344   1.956   3.335   5.478 -1.6981 -2.0767  1.6003
 2643TIP3    H229345   2.071   3.276   5.556  1.1389  0.4661 -0.5419
 2644TIP3   OH229346   0.366   5.704  15.404 -0.7855  0.6568  0.1329
 2644TIP3    H129347   0.325   5.625  15.370  0.8562  0.7707 -2.2158
 2644TIP3    H229348   0.452   5.676  15.434 -1.3674  0.9967  2.2080
 2645TIP3   OH229349   5.382   2.198  15.995  0.1597  0.0108 -0.1090
 2645TIP3    H129350   5.294   2.235  15.988 -0.5563 -1.5957  0.1629
 2645TIP3    H229351   5.368   2.103  15.994  1.7778 -0.2606  1.2163
 2646TIP3   OH229352   5.844   3.755  16.037 -0.2789  0.0579  0.0301
 2646TIP3    H129353   5.801   3.674  16.010 -1.4499  0.8440 -0.4603
 2646TIP3    H229354   5.902   3.776  15.963 -0.9318  0.3662 -0.3919
 2647TIP3   OH229355   3.177   0.905  12.284 -0.0582  0.7989 -0.2322
 2647TIP3    H129356   3.256   0.959  12.283  0.6793 -0.2758 -1.0444
 2647TIP3    H229357   3.205   0.820  12.252 -1.2452 -0.0444  0.9042
 2648TIP3   OH229358   5.757   0.036  11.743  0.4556  0.2478 -0.5890
 2648TIP3    H129359   5.784  -0.033  11.804 -0.4798 -0.4142 -0.9230
 2648TIP3    H229360   5.697   0.090  11.793  1.0797  0.7481 -0.3730
 2649TIP3   OH229361   1.938   5.709   6.079  0.0027  0.3593 -0.0985
 2649TIP3    H129362   2.014   5.682   6.130  0.4281  0.9459 -0.4170
 2649TIP3    H229363   1.967   5.704   5.988 -0.4796  0.1623 -0.2427
 2650TIP3   OH229364   4.620   3.971   0.260 -0.3928  0.3620 -0.0538
 2650TIP3    H129365   4.579   3.885   0.252 -1.0937  0.6495  0.3596
 2650TIP3    H229366   4.687   3.973   0.191 -0.9868 -0.1690 -0.6494
 2651TIP3   OH229367   2.630   3.835  14.455  0.2756 -0.3823  0.5401
 2651TIP3    H129368   2.677   3.853  14.373  1.4420 -1.4231  0.9518
 2651TIP3    H229369   2.540   3.815  14.427  0.2806  0.7825 -0.3428
 2652TIP3   OH229370   0.675   1.821  14.842 -0.0392  0.8571  0.0474
 2652TIP3    H129371   0.673   1.917  14.849  2.3139  1.0890 -1.6928
 2652TIP3    H229372   0.685   1.791  14.932  2.8812  2.4525  0.3309
 2653TIP3   OH229373   5.960   2.066   5.246  0.5151 -0.2819  0.4616
 2653TIP3    H129374   5.924   2.138   5.297  0.1279 -1.0117  1.2239
 2653TIP3    H229375   6.007   2.012   5.310  0.4925 -0.9081 -0.0414
 2654TIP3   OH229376   4.611   1.859  15.104  0.2562  0.2503  0.5661
 2654TIP3    H129377   4.528   1.865  15.057  0.2961  2.3458  0.7079
 2654TIP3    H229378   4.676   1.893  15.043  0.9979 -1.2349  0.5123
 2655TIP3   OH229379   6.077   0.541  10.690  0.4549  0.0500  0.1011
 2655TIP3    H129380   6.042   0.629  10.706  0.8446  0.3213 -0.5358
 2655TIP3    H229381   6.030   0.510  10.612  1.6685  0.4366 -0.7914
 2656TIP3   OH229382   4.061   0.716  12.731  0.0331 -0.2488  0.4352
 2656TIP3    H129383   4.070   0.662  12.809  2.4195 -1.6215 -0.7267
 2656TIP3    H229384   4.017   0.659  12.668 -0.5574  0.3478  0.3045
 2657TIP3   OH229385   3.314   3.075  14.523  0.2329  0.2603  0.3280
 2657TIP3    H129386   3.319   3.101  14.614  1.2890  0.2811  0.2757
 2657TIP3    H229387   3.373   2.999  14.517 -0.2279 -0.0632 -0.2252
 2658TIP3   OH229388   4.046   5.337  15.361  0.7383 -0.0960  0.8040
 2658TIP3    H129389   3.999   5.254  15.354 -0.9856  0.8091  1.2785
 2658TIP3    H229390   4.061   5.349  15.455 -0.6315  0.9548  0.9232
 2659TIP3   OH229391   0.895   6.751  14.664  0.1101  0.5316 -0.6524
 2659TIP3    H129392   0.904   6.846  14.654 -0.2438  0.7620  1.1041
 2659TIP3    H229393   0.984   6.718  14.656  0.4525  1.1772  0.3697
 2660TIP3   OH229394   5.517   1.408  16.431  0.2686 -0.4897 -0.1048
 2660TIP3    H129395   5.546   1.496  16.457 -0.1065 -0.4523  0.1836
 2660TIP3    H229396   5.562   1.392  16.348 -0.8817  0.6372 -0.9693
 2661TIP3   OH229397   3.356   4.543  15.174 -0.3074 -0.1008  0.5129
 2661TIP3    H129398   3.428   4.521  15.234 -0.5328 -0.7414  0.5548
 2661TIP3    H229399   3.278   4.546  15.230 -0.5048 -0.6153  0.2696
 2662TIP3   OH229400   4.899   5.964  12.528  0.2029 -0.1704  0.0092
 2662TIP3    H129401   4.921   5.895  12.466 -0.5645 -1.5603  1.2480
 2662TIP3    H229402   4.832   5.925  12.585  0.2454  1.3616  1.1458
 2663TIP3   OH229403   6.382   2.909  17.085  0.2967 -1.0354 -0.0485
 2663TIP3    H129404   6.376   2.823  17.046  0.0833 -2.0639  2.1493
 2663TIP3    H229405   6.293   2.930  17.112  0.2223  0.1862 -1.1908
 2664TIP3   OH229406   5.186   5.678  14.502  0.3770  0.2441  0.0292
 2664TIP3    H129407   5.257   5.637  14.552 -0.6541 -0.3623  1.0396
 2664TIP3    H229408   5.179   5.625  14.422  1.6556  0.8651 -0.5057
 2665TIP3   OH229409   5.819   5.055  16.640 -0.2068 -0.3469  0.4844
 2665TIP3    H129410   5.830   5.112  16.564 -0.0555 -2.9040 -1.4858
 2665TIP3    H229411   5.727   5.062  16.662  0.1631  1.9984  1.3804
 2666TIP3   OH229412   1.242   3.217   5.198 -0.2186  0.3020  0.1309
 2666TIP3    H129413   1.242   3.263   5.282 -1.2733 -2.4861  1.7414
 2666TIP3    H229414   1.160   3.244   5.156  0.4388  1.9129 -0.1254
 2667TIP3   OH229415   2.506   1.193   3.993 -0.2993 -0.2570  0.3261
 2667TIP3    H129416   2.495   1.151   3.908  0.4171  0.3845 -0.0991
 2667TIP3    H229417   2.447   1.147   4.051  0.4265 -1.8077 -0.1431
 2668TIP3   OH229418   1.958   2.106  14.079  0.2738  0.1003 -0.2406
 2668TIP3    H129419   1.956   2.138  13.989 -3.5331 -3.4512 -1.5763
 2668TIP3    H229420   1.887   2.154  14.123  0.9274  0.4934  0.3981
 2669TIP3   OH229421   1.401   5.913   2.663 -0.1134 -0.2361 -0.5441
 2669TIP3    H129422   1.438   5.999   2.686  0.5260 -0.3472 -1.1528
 2669TIP3    H229423   1.429   5.898   2.573  1.1887 -1.8358  0.0929
 2670TIP3   OH229424   1.713   0.347   3.693 -0.1105  0.2281 -0.7900
 2670TIP3    H129425   1.644   0.380   3.750  0.1923 -0.4002 -0.0557
 2670TIP3    H229426   1.734   0.420   3.635 -0.1426  1.0036  0.1700
 2671TIP3   OH229427   2.695   6.629   4.760  0.4926 -0.0600  0.2357
 2671TIP3    H129428   2.655   6.553   4.803 -0.2852 -0.0505 -0.4705
 2671TIP3    H229429   2.621   6.679   4.725  0.9991  1.0246  0.6895
 2672TIP3   OH229430   1.699   2.718  13.398 -0.4974  0.0425 -0.5096
 2672TIP3    H129431   1.762   2.677  13.456 -1.3044  0.5017  0.7112
 2672TIP3    H229432   1.687   2.655  13.327  1.7115  0.1820 -1.0483
 2673TIP3   OH229433   1.514   0.832   6.485  0.1278  0.0603 -0.1927
 2673TIP3    H129434   1.472   0.748   6.467  0.4642  0.2224 -1.8602
 2673TIP3    H229435   1.443   0.892   6.506 -0.2699 -0.2241 -0.7302
 2674TIP3   OH229436   2.156   4.290  12.627  0.1156  0.7602 -0.2645
 2674TIP3    H129437   2.107   4.213  12.597 -0.0170  0.8127 -0.1828
 2674TIP3    H229438   2.107   4.322  12.703  0.1421  0.9549 -0.3286
 2675TIP3   OH229439   5.848   2.547   1.706 -0.5540  0.3498  0.0746
 2675TIP3    H129440   5.778   2.587   1.757 -0.1003  2.0855 -0.6260
 2675TIP3    H229441   5.880   2.618   1.650  3.8443  0.4485  2.5504
 2676TIP3   OH229442   1.546   1.601   2.874  0.2659 -0.0431  0.2192
 2676TIP3    H129443   1.619   1.562   2.826 -0.7997 -0.6418 -0.9486
 2676TIP3    H229444   1.570   1.693   2.884  1.4730 -0.3800  0.4231
 2677TIP3   OH229445   1.628   6.305  13.505 -0.0617 -0.4727  0.3875
 2677TIP3    H129446   1.671   6.297  13.420  1.0853 -1.1625  1.0230
 2677TIP3    H229447   1.566   6.378  13.494  3.1957  2.3849  0.2817
 2678TIP3   OH229448   4.817   1.688  12.405  0.1031 -0.5090 -0.4285
 2678TIP3    H129449   4.827   1.777  12.437 -1.3559 -0.5177  0.0649
 2678TIP3    H229450   4.877   1.636  12.459  2.6505  0.4758 -2.1945
 2679TIP3   OH229451   3.315   2.775   6.018 -0.2984 -0.1575 -0.0778
 2679TIP3    H129452   3.254   2.710   5.983  0.7147 -0.6864 -0.8590
 2679TIP3    H229453   3.317   2.758   6.112 -1.0970 -0.3485 -0.0928
 2680TIP3   OH229454   0.954   1.996   1.742 -0.1139 -0.1747  0.1792
 2680TIP3    H129455   1.043   2.028   1.723 -0.6325 -0.1362 -2.2625
 2680TIP3    H229456   0.932   2.039   1.825  2.1340 -0.1742  0.8269
 2681TIP3   OH229457   5.277   6.042  15.802  0.0145  0.7665  0.2393
 2681TIP3    H129458   5.331   6.090  15.865 -0.0951  2.5239 -0.9763
 2681TIP3    H229459   5.339   6.002  15.742 -0.0053  2.4919 -0.9474
 2682TIP3   OH229460   2.029   3.959   3.644  0.2766 -0.4944 -0.6140
 2682TIP3    H129461   1.986   3.888   3.597  0.4462  0.6372 -2.5125
 2682TIP3    H229462   2.097   3.990   3.584  1.6061 -0.1119  1.0413
 2683TIP3   OH229463   0.524   6.457   4.703  0.2375 -0.0576 -0.2087
 2683TIP3    H129464   0.602   6.485   4.654 -0.0241 -0.2037 -0.7117
 2683TIP3    H229465   0.479   6.397   4.643 -0.5224  0.4097 -0.1007
 2684TIP3   OH229466   4.725   6.731  12.273 -0.1977  0.2866 -0.0975
 2684TIP3    H129467   4.661   6.677  12.226  2.0354 -0.6121 -2.2238
 2684TIP3    H229468   4.701   6.821  12.251 -1.0150 -0.0161 -0.4742
 2685TIP3   OH229469   3.868   4.396  16.746  0.4486  0.4128 -0.2267
 2685TIP3    H129470   3.937   4.356  16.799  2.0755  1.1653 -1.7455
 2685TIP3    H229471   3.843   4.474  16.796  1.2122  0.5443 -0.0473
 2686TIP3   OH229472   2.754   3.147   4.343  0.3827  0.3548 -0.0314
 2686TIP3    H129473   2.707   3.192   4.273 -0.6127  0.2493  0.5608
 2686TIP3    H229474   2.773   3.216   4.407 -0.8241  0.0043  0.7081
 2687TIP3   OH229475   5.650   3.278   0.080  0.4488 -0.3423 -0.6093
 2687TIP3    H129476   5.693   3.192   0.084  2.6494  0.7573  0.4063
 2687TIP3    H229477   5.706   3.335   0.132 -2.1229  1.2705  0.4938
 2688TIP3   OH229478   6.511   3.864  15.540 -0.0929  0.3895  0.0253
 2688TIP3    H129479   6.486   3.876  15.449  0.1453 -0.3931 -0.1443
 2688TIP3    H229480   6.584   3.924  15.554 -0.4106  0.8233 -0.1757
 2689TIP3   OH229481   4.278   4.671   2.514  0.3076  0.0265 -0.1794
 2689TIP3    H129482   4.206   4.731   2.534  0.7778  0.2256  0.9487
 2689TIP3    H229483   4.314   4.703   2.432  0.1384  0.9004  0.0843
 2690TIP3   OH229484   2.785   0.018  13.121 -0.4877  0.1373 -0.1732
 2690TIP3    H129485   2.740  -0.050  13.171 -0.2348 -0.0253 -0.1680
 2690TIP3    H229486   2.754   0.006  13.031  0.8442 -1.0761 -0.4948
 2691TIP3   OH229487   5.801   1.267   3.209 -0.1118 -0.0506  0.1003
 2691TIP3    H129488   5.751   1.346   3.229  0.3463  0.6713 -1.4877
 2691TIP3    H229489   5.791   1.212   3.286 -1.2003  1.1741  0.8566
 2692TIP3   OH229490   0.079   2.249  10.716 -0.4044 -0.3303 -0.2123
 2692TIP3    H129491   0.117   2.334  10.693  0.1017  0.3470  2.8591
 2692TIP3    H229492   0.130   2.186  10.666  1.7238  0.9315  0.2860
 2693TIP3   OH229493   5.031   3.783   0.459  0.2339  0.3367  0.5411
 2693TIP3    H129494   4.995   3.831   0.534 -2.1207 -0.7085  0.1188
 2693TIP3    H229495   5.070   3.851   0.404 -2.6696  1.7778  0.1607
 2694TIP3   OH229496   4.986   5.728  10.837  0.8289 -0.3663  0.1575
 2694TIP3    H129497   5.072   5.744  10.876  0.8002 -0.2864  0.1873
 2694TIP3    H229498   4.971   5.804  10.781  1.1222 -0.7534 -0.4506
 2695TIP3   OH229499   4.672   4.413   0.464 -0.1318 -0.6506 -0.5278
 2695TIP3    H129500   4.604   4.350   0.486  1.1432 -1.8390  0.0612
 2695TIP3    H229501   4.723   4.422   0.544  0.7231 -0.1706 -1.1205
 2696TIP3   OH229502   6.597   3.389  14.668 -0.3450 -0.5658  0.3462
 2696TIP3    H129503   6.683   3.429  14.680  0.7813 -2.2034 -1.6705
 2696TIP3    H229504   6.584   3.335  14.746  0.6239 -0.5503  0.5212
 2697TIP3   OH229505   0.886   3.578   2.234  0.0069 -0.9075  0.2252
 2697TIP3    H129506   0.957   3.526   2.197  1.4195  1.8700 -1.1490
 2697TIP3    H229507   0.909   3.586   2.327  0.2871 -1.8843  0.2490
 2698TIP3   OH229508   6.288   0.198   5.636  0.1510  0.3318  0.1456
 2698TIP3    H129509   6.285   0.273   5.695 -0.8435  0.6695 -0.3344
 2698TIP3    H229510   6.240   0.226   5.558 -2.7277 -1.7648  1.0741
 2699TIP3   OH229511   4.941   1.711  16.272  0.4070 -0.4259  0.0669
 2699TIP3    H129512   4.954   1.751  16.186  0.7441  0.3713  0.4806
 2699TIP3    H229513   5.028   1.712  16.312  0.1965 -0.5284  0.5299
 2700TIP3   OH229514   0.478   0.125   1.624 -0.0899 -0.5543 -0.2814
 2700TIP3    H129515   0.522   0.192   1.573  0.1312  0.1577  0.8338
 2700TIP3    H229516   0.547   0.063   1.648 -0.2185 -0.9632 -0.9504
 2701TIP3   OH229517   6.757   0.690  16.775  0.2424  0.4933 -0.1638
 2701TIP3    H129518   6.752   0.601  16.809 -1.1520  1.2280  1.6351
 2701TIP3    H229519   6.846   0.719  16.796  1.3226 -1.0890 -2.4150
 2702TIP3   OH229520   0.508   4.641   2.844 -0.1693 -0.0202 -0.1002
 2702TIP3    H129521   0.426   4.651   2.893 -0.1554 -1.0118  0.1395
 2702TIP3    H229522   0.576   4.660   2.909 -0.1800 -0.2206 -0.0305
 2703TIP3   OH229523   1.125   5.907   5.220 -0.5180  0.5147 -0.1129
 2703TIP3    H129524   1.068   5.915   5.296  1.1887  1.2569  1.1313
 2703TIP3    H229525   1.067   5.885   5.148 -2.2808  0.6726  1.2411
 2704TIP3   OH229526   2.971   5.552  11.061 -0.1028  0.3301  0.5027
 2704TIP3    H129527   2.882   5.546  11.029  0.5826 -0.1199 -1.3460
 2704TIP3    H229528   2.999   5.641  11.038  0.2624  0.1324  0.1654
 2705TIP3   OH229529   0.211   4.127  17.128  0.4827 -0.0593  0.3826
 2705TIP3    H129530   0.211   4.034  17.151 -0.3527  0.1453  1.2087
 2705TIP3    H229531   0.283   4.164  17.178  1.6007 -0.4717 -0.8710
 2706TIP3   OH229532   4.550   1.771   2.183  0.3177 -0.1461 -0.0095
 2706TIP3    H129533   4.572   1.761   2.091 -0.5763  0.6817 -0.3244
 2706TIP3    H229534   4.474   1.829   2.184  1.7555  1.7964  1.3772
 2707TIP3   OH229535   5.473   0.924  11.801  0.8477 -0.0363  0.0622
 2707TIP3    H129536   5.411   0.855  11.826  1.6713 -0.9552 -0.3658
 2707TIP3    H229537   5.421   0.985  11.748  0.4900 -1.2683 -1.0614
 2708TIP3   OH229538   5.941   1.115   6.628  0.0069  0.4602  0.1008
 2708TIP3    H129539   5.987   1.032   6.615  0.3252  0.3337  1.8942
 2708TIP3    H229540   6.010   1.178   6.647 -0.4231  0.6221  1.1390
 2709TIP3   OH229541   5.284   2.658  13.791 -0.1040 -0.2135 -0.1245
 2709TIP3    H129542   5.262   2.638  13.701  0.6082 -1.8616  0.0475
 2709TIP3    H229543   5.200   2.658  13.838 -0.5088  0.9993 -0.8373
 2710TIP3   OH229544   3.313   3.024   5.220  0.0345 -0.3201 -0.1816
 2710TIP3    H129545   3.259   3.010   5.143 -2.5694 -1.8087  1.8307
 2710TIP3    H229546   3.294   3.114   5.246 -1.8323 -0.9531  0.7306
 2711TIP3   OH229547   1.956   5.579  15.428  0.3613 -0.3457 -0.6524
 2711TIP3    H129548   2.014   5.602  15.501 -0.5728  0.0474 -0.0289
 2711TIP3    H229549   1.973   5.647  15.362 -0.1851  0.4132 -0.0262
 2712TIP3   OH229550   3.511   2.564  14.372 -0.0548 -0.3889 -0.3196
 2712TIP3    H129551   3.607   2.556  14.375  0.0341  0.7247  0.4868
 2712TIP3    H229552   3.485   2.565  14.465 -0.7330  0.5136 -0.5173
 2713TIP3   OH229553   1.624   3.348  16.601 -0.2811  0.1481  0.1505
 2713TIP3    H129554   1.581   3.423  16.558 -1.2866  0.7440  2.1517
 2713TIP3    H229555   1.581   3.272  16.562  1.1464  0.5409 -2.3272
 2714TIP3   OH229556   4.877   1.965  12.514 -0.3571  0.3416  0.0880
 2714TIP3    H129557   4.805   2.029  12.515  0.7624  1.6231 -0.8416
 2714TIP3    H229558   4.956   2.017  12.504  0.6529 -1.1407  0.1589
 2715TIP3   OH229559   2.004   5.049   2.452 -0.0958 -0.1735  1.3566
 2715TIP3    H129560   2.099   5.039   2.445 -0.3012 -0.8745 -0.6767
 2715TIP3    H229561   1.973   4.963   2.480 -0.1847 -0.0486  1.6472
 2716TIP3   OH229562   6.291   2.533  14.868  0.1565 -0.5325 -0.2390
 2716TIP3    H129563   6.252   2.462  14.919 -0.2741 -0.4294 -0.4225
 2716TIP3    H229564   6.364   2.492  14.822 -0.5786 -1.0390 -0.9682
 2717TIP3   OH229565   0.793   3.482   1.897  0.1299 -0.0267 -0.6771
 2717TIP3    H129566   0.878   3.460   1.937  0.3719  0.3247 -0.9952
 2717TIP3    H229567   0.787   3.577   1.906 -0.5943 -0.1350  0.0621
 2718TIP3   OH229568   2.834   5.071   1.137  0.0198 -0.4949  0.1148
 2718TIP3    H129569   2.795   5.114   1.213 -1.4516 -1.1550 -0.2527
 2718TIP3    H229570   2.818   5.132   1.064  0.1209 -0.5356  0.0577
 2719TIP3   OH229571   0.771   5.177  14.765 -0.1535 -0.5242  0.2921
 2719TIP3    H129572   0.770   5.242  14.696 -0.3909 -0.6065  0.2197
 2719TIP3    H229573   0.834   5.210  14.829  1.0377 -1.0777 -0.5711
 2720TIP3   OH229574   0.796   3.057  16.936 -0.3699  0.6403  0.2996
 2720TIP3    H129575   0.716   3.044  16.885 -1.9979 -1.0486  3.1512
 2720TIP3    H229576   0.775   3.129  16.996  0.6098  0.8533  0.4066
 2721TIP3   OH229577   5.187   0.822  15.997 -0.1304 -0.0164 -0.0654
 2721TIP3    H129578   5.223   0.759  16.060 -1.6999 -0.8957 -0.0511
 2721TIP3    H229579   5.120   0.869  16.046 -2.2034 -1.5229 -1.4109
 2722TIP3   OH229580   1.266   5.379   3.303 -0.0200 -0.6782 -0.3348
 2722TIP3    H129581   1.227   5.437   3.369  0.7348 -0.7260  0.1652
 2722TIP3    H229582   1.354   5.414   3.289 -0.7990  0.3738 -2.6408
 2723TIP3   OH229583   4.649   6.632   6.114 -0.4562 -0.0321 -0.0751
 2723TIP3    H129584   4.668   6.650   6.206  0.8238  0.4532 -0.4234
 2723TIP3    H229585   4.696   6.550   6.095  1.8775  1.4947 -1.1094
 2724TIP3   OH229586   4.988   3.091  15.304 -0.3729 -0.1566 -0.0223
 2724TIP3    H129587   4.960   3.134  15.223 -0.8309 -2.5787 -1.1779
 2724TIP3    H229588   5.074   3.054  15.283  0.2896  0.6635  1.1621
 2725TIP3   OH229589   5.330   5.145  16.572  0.5650 -0.2723  0.1131
 2725TIP3    H129590   5.417   5.149  16.610  0.2753  0.3182  0.7218
 2725TIP3    H229591   5.335   5.203  16.495  0.9433 -0.8945 -0.3321
 2726TIP3   OH229592   0.775   3.228  17.174 -0.3307  0.3910 -0.2705
 2726TIP3    H129593   0.834   3.302  17.158  0.5618  0.2672  2.2597
 2726TIP3    H229594   0.693   3.268  17.201  0.7787  0.4805  3.1443
 2727TIP3   OH229595   2.580   4.787  11.272 -0.2895 -0.0542 -0.5114
 2727TIP3    H129596   2.522   4.845  11.223  0.9120  1.7515  0.1209
 2727TIP3    H229597   2.639   4.751  11.206 -0.0682  0.6534 -0.7027
 2728TIP3   OH229598   4.865   4.989   1.345 -0.2654 -0.1619 -0.1387
 2728TIP3    H129599   4.921   4.936   1.289 -0.7192 -0.4901 -0.2889
 2728TIP3    H229600   4.838   4.929   1.415 -1.0833 -0.2352 -0.5156
 2729TIP3   OH229601   1.190   5.150   0.745  0.0703 -0.1429 -0.6979
 2729TIP3    H129602   1.151   5.203   0.675  0.9468  0.5263 -0.6979
 2729TIP3    H229603   1.125   5.082   0.764 -0.4773  0.1122 -1.6576
 2730TIP3   OH229604   3.265   2.462   3.302  0.0591  0.0063  0.7078
 2730TIP3    H129605   3.182   2.453   3.349  0.5736  0.1051  1.6457
 2730TIP3    H229606   3.317   2.522   3.356  0.8317 -0.2561  0.2612
 2731TIP3   OH229607   4.357   2.334  11.631 -0.1566 -0.3122 -0.3938
 2731TIP3    H129608   4.396   2.248  11.647 -0.7388 -0.4458  0.3262
 2731TIP3    H229609   4.299   2.349  11.706 -1.9799 -0.4108 -1.7429
 2732TIP3   OH229610   4.372   5.347   3.477  0.1240  0.3909 -0.1533
 2732TIP3    H129611   4.370   5.263   3.523 -3.0806  0.1010 -0.7176
 2732TIP3    H229612   4.370   5.413   3.547  0.4242 -0.0068  0.2316
 2733TIP3   OH229613   4.549   3.483   4.048 -0.1234  0.2413 -0.1305
 2733TIP3    H129614   4.502   3.405   4.021  0.7504  0.5611 -2.6750
 2733TIP3    H229615   4.481   3.551   4.052 -0.3225  0.1114 -1.2044
 2734TIP3   OH229616   6.383   2.602   1.067 -0.2061 -0.2678  0.6211
 2734TIP3    H129617   6.395   2.560   0.982 -1.7792 -0.5298  0.5022
 2734TIP3    H229618   6.305   2.560   1.103 -0.0631  0.4621  1.8035
 2735TIP3   OH229619   3.415   5.044   4.795  0.2468 -0.5085 -0.4467
 2735TIP3    H129620   3.434   4.978   4.728 -1.4308 -1.4016 -0.0868
 2735TIP3    H229621   3.321   5.034   4.812  0.3568  0.6992  0.9904
 2736TIP3   OH229622   1.394   3.042  13.309 -0.2332 -0.1608  0.3012
 2736TIP3    H129623   1.488   3.042  13.291 -0.3960 -1.8593 -0.6065
 2736TIP3    H229624   1.363   3.126  13.275  0.8088  0.0753 -0.0871
 2737TIP3   OH229625   1.856   0.344   5.184 -0.1207 -0.0422 -0.5745
 2737TIP3    H129626   1.875   0.318   5.094  2.0957 -0.3809 -0.0243
 2737TIP3    H229627   1.884   0.269   5.237  2.1888  1.6467  0.6734
 2738TIP3   OH229628   5.242   5.166  10.818  0.2052 -0.2225  0.0545
 2738TIP3    H129629   5.218   5.252  10.784  0.9649 -1.0133 -2.5703
 2738TIP3    H229630   5.172   5.145  10.881 -1.7557  0.8692 -1.7025
 2739TIP3   OH229631   1.462   1.889   0.426  0.0734  0.4184 -0.1921
 2739TIP3    H129632   1.393   1.925   0.370  1.2595 -0.0070 -1.9415
 2739TIP3    H229633   1.459   1.794   0.411  0.0716  0.2454  0.8468
 2740TIP3   OH229634   0.528   0.011  15.041  0.9242 -0.0035 -0.4470
 2740TIP3    H129635   0.532   0.101  15.009 -0.3430 -0.7317 -2.7469
 2740TIP3    H229636   0.595  -0.035  14.991  1.1724 -0.4736  0.3113
 2741TIP3   OH229637   2.101   2.264   2.577 -0.1691  0.9544  0.3591
 2741TIP3    H129638   2.154   2.225   2.648  3.2869  1.0221 -2.0470
 2741TIP3    H229639   2.139   2.351   2.565  0.8391  0.1069 -3.0430
 2742TIP3   OH229640   0.268   1.511   1.393 -0.3208  0.2391 -0.2263
 2742TIP3    H129641   0.195   1.462   1.431  0.4535 -0.4092  0.4486
 2742TIP3    H229642   0.346   1.458   1.414  0.4354  1.3450 -0.1920
 2743TIP3   OH229643   4.373   6.699  12.934 -0.4904 -0.5468 -0.0548
 2743TIP3    H129644   4.446   6.731  12.987 -1.7317  0.3988  1.1336
 2743TIP3    H229645   4.367   6.606  12.954 -0.1673 -0.4425  0.5265
 2744TIP3   OH229646   5.112   3.367   5.840 -0.0602  0.0527  0.3125
 2744TIP3    H129647   5.095   3.273   5.849  0.3336  0.0322  0.8962
 2744TIP3    H229648   5.126   3.397   5.930 -0.9573  0.8172  0.2042
 2745TIP3   OH229649   6.332   3.270   4.047 -0.1898  0.1929  0.3884
 2745TIP3    H129650   6.306   3.208   4.115 -0.7210 -0.2039 -0.1664
 2745TIP3    H229651   6.296   3.354   4.075 -0.5911 -0.0124  0.4864
 2746TIP3   OH229652   4.492   3.545  10.841  0.2119 -0.1176 -0.0976
 2746TIP3    H129653   4.436   3.621  10.826  0.6164  0.3305  0.6068
 2746TIP3    H229654   4.452   3.500  10.915 -0.9341 -1.4881 -1.5403
 2747TIP3   OH229655   3.206   4.529  10.692 -0.0563 -0.0759 -0.1498
 2747TIP3    H129656   3.267   4.509  10.621  0.2329  2.6937 -0.7417
 2747TIP3    H229657   3.136   4.464  10.682  0.3793 -0.2470 -2.4720
 2748TIP3   OH229658   3.342   4.705   3.118 -0.3777 -0.3051 -0.2224
 2748TIP3    H129659   3.258   4.670   3.149 -0.1781  1.2449  2.1793
 2748TIP3    H229660   3.325   4.732   3.028 -2.2265 -0.7612 -0.0331
 2749TIP3   OH229661   3.021   1.728   1.564  0.8302 -0.2574  0.3463
 2749TIP3    H129662   2.970   1.802   1.597 -0.8519 -1.3757  0.3014
 2749TIP3    H229663   3.100   1.727   1.618  1.2512  2.0486 -0.1774
 2750TIP3   OH229664   6.743   6.338  11.956 -0.6551 -0.1561  0.4963
 2750TIP3    H129665   6.671   6.394  11.984 -0.1066  0.6680  0.2594
 2750TIP3    H229666   6.708   6.288  11.883 -0.8821  0.4827  0.1690
 2751TIP3   OH229667   0.843   2.164  11.960 -0.0127  0.3430  0.1810
 2751TIP3    H129668   0.758   2.185  11.923  0.0616  3.5273  1.6750
 2751TIP3    H229669   0.855   2.227  12.032  2.7621 -1.2638  1.2218
 2752TIP3   OH229670   1.566   0.378   5.437 -0.1531  0.4436 -0.1626
 2752TIP3    H129671   1.537   0.287   5.430 -0.8015  0.4141  2.3544
 2752TIP3    H229672   1.496   0.422   5.486  0.5702  2.1048 -0.5708
 2753TIP3   OH229673   1.685   3.037   3.797 -0.2270  0.9321  0.1410
 2753TIP3    H129674   1.592   3.024   3.810 -0.2827  1.1314 -0.0561
 2753TIP3    H229675   1.714   2.961   3.746  0.0429  0.0074  1.6416
 2754TIP3   OH229676   5.075   0.688  13.063 -0.3831  0.3035 -0.5470
 2754TIP3    H129677   5.061   0.612  13.007  1.2225 -0.0947 -0.4229
 2754TIP3    H229678   5.126   0.749  13.009  0.5253  0.2279  0.2257
 2755TIP3   OH229679   1.939   0.098   0.785 -0.1118  0.2711  0.6422
 2755TIP3    H129680   2.035   0.094   0.788 -0.1475 -1.0007  0.3522
 2755TIP3    H229681   1.913   0.102   0.877  0.1705 -1.0991  0.7967
 2756TIP3   OH229682   0.838   3.073  16.489 -0.1502  0.1011  0.4079
 2756TIP3    H129683   0.903   3.049  16.423 -1.0863 -0.4468 -0.3211
 2756TIP3    H229684   0.783   2.995  16.498 -0.8885  0.6595  0.8004
 2757TIP3   OH229685   0.311   0.406  17.146  0.2710 -0.5677 -0.1972
 2757TIP3    H129686   0.280   0.420  17.057 -1.6013  0.5670  0.5760
 2757TIP3    H229687   0.360   0.486  17.167 -0.1060 -0.4088  0.0989
 2758TIP3   OH229688   3.853   1.101  16.520  0.1231  0.1802  0.5662
 2758TIP3    H129689   3.903   1.096  16.439  0.7683 -1.2716  1.0255
 2758TIP3    H229690   3.920   1.102  16.589 -0.4479 -1.1085  1.1608
 2759TIP3   OH229691   5.018   2.924   3.468 -0.1162  0.7150 -0.3759
 2759TIP3    H129692   5.064   2.896   3.547 -2.2700  0.8992  0.9895
 2759TIP3    H229693   4.963   2.849   3.446 -0.5953  1.2110 -0.8571
 2760TIP3   OH229694   0.681   0.511   3.213  0.0272  0.1545  0.1966
 2760TIP3    H129695   0.695   0.470   3.298  1.3402 -0.4589 -0.3070
 2760TIP3    H229696   0.636   0.593   3.233 -2.2875 -1.3019  1.2549
 2761TIP3   OH229697   2.072   6.611  11.990  0.7233 -0.5738 -0.9384
 2761TIP3    H129698   1.995   6.559  11.965 -0.3483  1.7452 -2.6276
 2761TIP3    H229699   2.035   6.684  12.040  1.9170  0.0847 -1.0181
 2762TIP3   OH229700   5.110   6.057  17.094 -0.0750  0.1746 -0.4979
 2762TIP3    H129701   5.045   6.095  17.153  0.0641 -0.1487 -0.1371
 2762TIP3    H229702   5.194   6.087  17.129  0.0676 -0.9386  0.1287
 2763TIP3   OH229703   1.501   4.082  13.066  0.4708  0.3236  0.2758
 2763TIP3    H129704   1.589   4.117  13.053  0.3801 -0.1140 -1.7506
 2763TIP3    H229705   1.491   4.015  12.998 -0.1665 -2.1071  2.6624
 2764TIP3   OH229706   4.312   2.097   0.798 -0.5609 -0.1906 -0.4945
 2764TIP3    H129707   4.292   2.177   0.845  0.4057 -1.1549  1.5965
 2764TIP3    H229708   4.234   2.042   0.812  0.8492 -1.5510  2.4116
 2765TIP3   OH229709   3.103   2.921   2.747  0.7923  0.3147  0.2753
 2765TIP3    H129710   3.095   2.935   2.841 -0.5373  0.3428  0.1612
 2765TIP3    H229711   3.198   2.921   2.731  1.0623 -0.7230  1.7614
 2766TIP3   OH229712   5.433   4.569   2.784  0.0340  0.3623  0.1893
 2766TIP3    H129713   5.360   4.614   2.827 -0.9288 -1.2358  0.2770
 2766TIP3    H229714   5.474   4.519   2.854 -0.8789 -1.4000 -0.4996
 2767TIP3   OH229715   6.580   5.126   2.157 -0.1892 -0.1369 -0.7492
 2767TIP3    H129716   6.539   5.045   2.125 -0.6462 -0.7793  1.3993
 2767TIP3    H229717   6.506   5.182   2.180  0.0964 -0.4536  1.0419
 2768TIP3   OH229718   3.509   1.425  17.028  0.2943  0.2634 -0.6170
 2768TIP3    H129719   3.422   1.398  16.998 -0.2947 -0.0388  1.3270
 2768TIP3    H229720   3.520   1.514  16.992 -0.5346  0.0499 -1.4211
 2769TIP3   OH229721   6.648   1.582   0.695  0.3151  0.2551  0.1458
 2769TIP3    H129722   6.663   1.673   0.717  0.5291  0.1463  0.4548
 2769TIP3    H229723   6.621   1.541   0.778 -0.9535  0.2915 -0.2450
 2770TIP3   OH229724   6.364   6.469  14.643 -0.3803  0.0504  0.2283
 2770TIP3    H129725   6.426   6.535  14.674  0.7999 -1.4297  1.1214
 2770TIP3    H229726   6.415   6.415  14.583 -1.4269  0.1523 -0.7714
 2771TIP3   OH229727   3.390   3.561   6.046  0.0120 -0.3766  0.4157
 2771TIP3    H129728   3.482   3.534   6.041 -0.0292 -0.3939 -0.2445
 2771TIP3    H229729   3.369   3.593   5.959  0.2203  2.3925  1.3553
 2772TIP3   OH229730   1.760   5.264   0.337  0.5059  0.2444  0.0784
 2772TIP3    H129731   1.678   5.305   0.310  0.9644  0.7538 -0.5593
 2772TIP3    H229732   1.743   5.234   0.426 -0.2561  0.6756  0.0897
 2773TIP3   OH229733   4.301   0.511   1.037 -0.2312 -0.3171  0.3613
 2773TIP3    H129734   4.252   0.526   1.118 -0.2372 -1.0213  0.4959
 2773TIP3    H229735   4.343   0.595   1.018  0.9550 -0.5309  1.8954
 2774TIP3   OH229736   6.342   5.208  16.069  0.4764  0.2829 -0.4115
 2774TIP3    H129737   6.336   5.113  16.066 -1.0318  0.3948 -1.1187
 2774TIP3    H229738   6.371   5.233  15.981  0.0907  0.5304 -0.4711
 2775TIP3   OH229739   2.123   5.509   2.556 -0.2031 -0.4111  0.4289
 2775TIP3    H129740   2.174   5.459   2.492 -0.4533 -2.6530  1.9321
 2775TIP3    H229741   2.034   5.510   2.521  0.0792  0.1627 -0.2788
 2776TIP3   OH229742   6.736   1.929  16.802  0.1912  0.1843  0.2694
 2776TIP3    H129743   6.826   1.899  16.795  1.4268  3.5340  0.6303
 2776TIP3    H229744   6.728   1.999  16.737 -1.5390  1.2072  1.5060
 2777TIP3   OH229745   3.741   0.382   6.193  0.0745  0.2283  0.0853
 2777TIP3    H129746   3.783   0.421   6.270 -1.5381 -0.1035  1.1791
 2777TIP3    H229747   3.668   0.441   6.174 -0.8497 -0.8626  0.1845
 2778TIP3   OH229748   4.368   3.239   5.195  0.5321 -0.6219  0.2855
 2778TIP3    H129749   4.320   3.157   5.188 -0.1751 -0.1743 -0.2032
 2778TIP3    H229750   4.428   3.226   5.269  0.7699 -1.7441 -0.1014
 2779TIP3   OH229751   1.949   0.648  15.105  0.1979 -0.3049  0.1103
 2779TIP3    H129752   2.033   0.607  15.125 -0.3349 -0.7502  1.4750
 2779TIP3    H229753   1.888   0.611  15.169 -0.6920  1.2326  0.1809
 2780TIP3   OH229754   0.819   5.399   0.730  0.1006 -0.2252  0.2516
 2780TIP3    H129755   0.816   5.486   0.691  0.2038 -0.0174  0.7036
 2780TIP3    H229756   0.862   5.412   0.815  1.0297 -0.8798 -0.1088
 2781TIP3   OH229757   2.629   4.121   3.849 -0.4310  0.7202  0.3070
 2781TIP3    H129758   2.624   4.090   3.939  0.6485 -2.8902 -0.7772
 2781TIP3    H229759   2.679   4.203   3.854 -0.5222  0.6557  2.9799
 2782TIP3   OH229760   6.510   2.802  10.973  0.6879 -0.1311 -0.1101
 2782TIP3    H129761   6.543   2.808  10.884 -0.3726 -1.9917 -0.6597
 2782TIP3    H229762   6.424   2.760  10.964 -0.6370  2.1017  1.5306
 2783TIP3   OH229763   5.005   2.741   2.175  0.0869  0.0731  0.0951
 2783TIP3    H129764   5.039   2.800   2.107 -0.3315  1.7333  1.2890
 2783TIP3    H229765   4.933   2.694   2.132 -0.1570  1.0885 -0.6223
 2784TIP3   OH229766   2.399   3.251   1.322  0.1757  0.0138 -0.0686
 2784TIP3    H129767   2.325   3.278   1.268  0.4828 -0.4498 -0.7349
 2784TIP3    H229768   2.464   3.219   1.259  0.8567  0.2259  0.5209
 2785TIP3   OH229769   4.115   5.663   6.014 -0.1196 -0.6090  0.7888
 2785TIP3    H129770   4.162   5.612   6.080  1.1136 -0.3426  0.1219
 2785TIP3    H229771   4.084   5.597   5.951 -0.4792 -0.7629  1.1237
 2786TIP3   OH229772   3.477   1.283   6.218 -0.7383 -0.1991  0.0898
 2786TIP3    H129773   3.466   1.228   6.295  3.4784  1.2002  1.8587
 2786TIP3    H229774   3.420   1.359   6.234  0.0181  0.0250  1.8210
 2787TIP3   OH229775   5.441   2.551   2.788 -0.1608 -0.1597 -0.3855
 2787TIP3    H129776   5.514   2.499   2.756  0.4309  0.7839 -0.5713
 2787TIP3    H229777   5.387   2.568   2.711  0.0785  0.2115 -0.4668
 2788TIP3   OH229778   3.602   5.925  12.590 -0.6471  0.7651  0.7397
 2788TIP3    H129779   3.546   6.001  12.598 -2.3936 -0.5090  0.8476
 2788TIP3    H229780   3.618   5.896  12.680  0.3307  1.2231  0.7202
 2789TIP3   OH229781   1.691   3.778  16.520  0.4369  0.1657  0.2375
 2789TIP3    H129782   1.744   3.836  16.465 -1.7179  0.2454 -1.8406
 2789TIP3    H229783   1.616   3.832  16.545 -0.3298 -0.9521  0.3613
 2790TIP3   OH229784   5.677   4.183  12.285 -0.6897  0.5288 -0.1969
 2790TIP3    H129785   5.584   4.189  12.261 -0.8307 -0.3154  0.1018
 2790TIP3    H229786   5.701   4.272  12.311 -1.2130  0.9149 -1.0058
 2791TIP3   OH229787   0.428   4.049   1.654 -0.5610  0.4387 -0.1488
 2791TIP3    H129788   0.398   4.007   1.735 -0.1452  1.4170  0.5359
 2791TIP3    H229789   0.355   4.104   1.627 -0.2475  1.0618  0.2538
 2792TIP3   OH229790   2.192   5.162  15.312 -0.2223  0.2192  0.1008
 2792TIP3    H129791   2.252   5.171  15.387  0.5179 -1.3959 -0.2814
 2792TIP3    H229792   2.141   5.243  15.313  1.0980  1.0671  1.2054
 2793TIP3   OH229793   4.619   3.207   3.542 -0.3286 -0.1393  0.6001
 2793TIP3    H129794   4.699   3.222   3.491 -0.0261  1.3783  1.5099
 2793TIP3    H229795   4.592   3.294   3.572 -0.4228 -0.9946  3.1530
 2794TIP3   OH229796   4.009   5.924   4.864 -0.4032  0.1624  0.9367
 2794TIP3    H129797   4.042   5.928   4.775  0.6562  0.1640  1.3231
 2794TIP3    H229798   3.919   5.893   4.855 -0.3547  0.3193 -0.1386
 2795TIP3   OH229799   6.085   4.011   0.642 -0.0442 -0.5176  0.5449
 2795TIP3    H129800   6.089   3.943   0.575 -1.4639 -1.4307  1.3668
 2795TIP3    H229801   6.096   3.964   0.725  2.6373  0.7084  0.9472
 2796TIP3   OH229802   2.562   4.121   0.591  0.2280 -0.3510  0.3198
 2796TIP3    H129803   2.612   4.183   0.644 -0.8954  1.1845 -0.3788
 2796TIP3    H229804   2.609   4.119   0.507  0.9437 -1.3797  0.7269
 2797TIP3   OH229805   5.342   1.886   4.729 -0.9591 -0.1743 -0.0368
 2797TIP3    H129806   5.403   1.959   4.718 -0.8213  0.0712  2.1034
 2797TIP3    H229807   5.380   1.816   4.677 -0.8075  1.0921 -1.6962
 2798TIP3   OH229808   2.843   5.763  11.965  0.1999  0.6952  0.4241
 2798TIP3    H129809   2.834   5.747  12.059 -0.4992 -1.9335 -0.0518
 2798TIP3    H229810   2.753   5.763  11.932  0.6024 -3.1027 -0.9120
 2799TIP3   OH229811   5.441   3.143  14.408  0.7263  0.5109 -0.0471
 2799TIP3    H129812   5.529   3.106  14.398  1.1210  1.4720 -0.2104
 2799TIP3    H229813   5.434   3.164  14.502  0.0517 -1.0642  0.2711
 2800TIP3   OH229814   0.336   6.072  14.100  0.6368  0.2413  0.1947
 2800TIP3    H129815   0.427   6.048  14.117 -0.0480 -1.8118  1.1135
 2800TIP3    H229816   0.335   6.099  14.008  1.4290 -3.8590 -1.1276
 2801TIP3   OH229817   0.530   3.685  16.823 -0.0764 -0.7448 -0.0913
 2801TIP3    H129818   0.474   3.762  16.809  0.7114  0.1234  1.3805
 2801TIP3    H229819   0.474   3.622  16.868 -0.2266 -0.3453  0.2845
 2802TIP3   OH229820   4.638   0.925  12.899  0.0519  0.2907 -0.2448
 2802TIP3    H129821   4.650   0.830  12.901  1.1105  0.4353  1.5471
 2802TIP3    H229822   4.582   0.944  12.974 -0.9561  0.9795 -1.1672
 2803TIP3   OH229823   4.573   6.634  11.545  0.2127  0.6294  0.1401
 2803TIP3    H129824   4.511   6.702  11.519  1.4215  2.0753  0.9596
 2803TIP3    H229825   4.658   6.679  11.547  1.3628 -1.4015 -1.3693
 2804TIP3   OH229826   1.166   1.495  16.867 -0.2008  0.0518  0.2093
 2804TIP3    H129827   1.202   1.578  16.898  0.1332 -0.0357  0.0476
 2804TIP3    H229828   1.225   1.467  16.797 -0.6052 -0.0647 -0.0882
 2805TIP3   OH229829   4.451   0.978   5.081 -0.6559  0.0924 -0.7065
 2805TIP3    H129830   4.466   0.892   5.120  1.4712  1.1504  0.8416
 2805TIP3    H229831   4.398   0.959   5.003 -1.6775 -2.4280  0.5465
 2806TIP3   OH229832   3.777   3.618   1.473 -0.1539 -0.2903  0.4226
 2806TIP3    H129833   3.715   3.621   1.399 -0.3674 -0.7678  0.5794
 2806TIP3    H229834   3.723   3.636   1.550 -0.2828 -1.6420  0.6645
 2807TIP3   OH229835   0.956   2.121  12.543  0.5100  0.0170 -0.9749
 2807TIP3    H129836   0.896   2.170  12.486  0.8562  1.6514  0.0453
 2807TIP3    H229837   1.012   2.188  12.582  0.1673 -1.0733  1.4397
 2808TIP3   OH229838   3.805   5.053  11.597  0.3899 -0.4057 -0.3745
 2808TIP3    H129839   3.719   5.014  11.581  1.1597 -1.3644 -2.3731
 2808TIP3    H229840   3.866   4.978  11.595  1.7040  0.6673 -2.7192
 2809TIP3   OH229841   0.544   2.870  12.180 -0.0055  0.4704 -0.0417
 2809TIP3    H129842   0.461   2.833  12.210 -1.2547  2.2758 -1.1831
 2809TIP3    H229843   0.573   2.811  12.110 -0.5251  0.0676  0.0814
 2810TIP3   OH229844   5.701   1.458  17.217  0.2974 -0.1033  0.1705
 2810TIP3    H129845   5.679   1.371  17.249 -0.3973 -0.5742 -1.5359
 2810TIP3    H229846   5.617   1.497  17.192  0.7868  0.3479 -0.8047
 2811TIP3   OH229847   6.645   6.640   2.575  0.9230  0.6835  0.1152
 2811TIP3    H129848   6.736   6.618   2.592  0.8840  0.2401 -0.2549
 2811TIP3    H229849   6.596   6.595   2.643  0.7280 -1.4345 -1.3770
 2812TIP3   OH229850   4.295   2.745   2.704  0.6033 -0.1771 -0.3258
 2812TIP3    H129851   4.283   2.822   2.760  2.0330 -0.6228  0.6301
 2812TIP3    H229852   4.215   2.694   2.716  1.1495 -0.5787  1.8622
 2813TIP3   OH229853   5.255   4.398  13.854 -0.3797  0.8457  0.3147
 2813TIP3    H129854   5.332   4.410  13.798 -0.3293  1.5520  0.5254
 2813TIP3    H229855   5.193   4.349  13.800  0.0147  0.7355 -0.0416
 2814TIP3   OH229856   5.697   1.640  11.743  0.3617  0.4461  0.1202
 2814TIP3    H129857   5.676   1.685  11.825  0.3990 -0.7667  0.8213
 2814TIP3    H229858   5.773   1.585  11.765 -0.0250 -0.3714 -0.5424
 2815TIP3   OH229859   2.123   3.422   5.038  0.4395 -0.2935  0.0839
 2815TIP3    H129860   2.158   3.336   5.062 -2.9423 -1.8942 -0.4604
 2815TIP3    H229861   2.164   3.442   4.954  2.7890 -0.4038  1.1637
 2816TIP3   OH229862   1.707   4.300  11.373 -0.1824  0.1085  0.5869
 2816TIP3    H129863   1.620   4.283  11.338 -0.3156 -0.3956  1.1518
 2816TIP3    H229864   1.715   4.395  11.374 -0.2221  0.1385 -0.6892
 2817TIP3   OH229865   3.026   6.066  12.552  0.4630  0.5025 -0.3490
 2817TIP3    H129866   3.045   6.108  12.468 -0.2265  1.2441 -0.1392
 2817TIP3    H229867   2.938   6.029  12.542  1.2518 -1.3450 -0.6999
 2818TIP3   OH229868   6.249   5.053  12.404 -0.3009 -0.0604 -0.1221
 2818TIP3    H129869   6.193   4.978  12.385  0.8304 -0.9435  0.0226
 2818TIP3    H229870   6.279   5.083  12.318  1.7420 -1.7002 -0.0126
 2819TIP3   OH229871   3.667   4.423  16.526  0.5436 -0.5859  0.0861
 2819TIP3    H129872   3.628   4.342  16.559 -2.0176  1.5288  2.4958
 2819TIP3    H229873   3.733   4.446  16.592  0.2377  0.0605  0.1607
 2820TIP3   OH229874   2.284   4.752   4.668 -0.2714 -0.1847 -0.5827
 2820TIP3    H129875   2.261   4.799   4.588  0.0761  0.5821 -0.2362
 2820TIP3    H229876   2.201   4.740   4.714 -0.6252 -1.5407 -1.5348
 2821TIP3   OH229877   4.604   4.242  15.821 -0.3202  0.1251  0.5245
 2821TIP3    H129878   4.522   4.275  15.857 -0.1740 -1.1823  2.0756
 2821TIP3    H229879   4.652   4.209  15.896  2.6826  3.0059  0.0212
 2822TIP3   OH229880   2.119   3.317  12.152 -0.2675 -0.0919 -0.7268
 2822TIP3    H129881   2.082   3.245  12.100  0.3481  0.8521 -2.5454
 2822TIP3    H229882   2.210   3.292  12.166  0.4746  1.1751 -3.0246
 2823TIP3   OH229883   0.235   6.328  11.668  0.0462  0.4165 -0.8492
 2823TIP3    H129884   0.295   6.321  11.593  0.6789  1.5308 -0.4624
 2823TIP3    H229885   0.165   6.385  11.637  0.5886  1.3248 -0.4290
 2824TIP3   OH229886   0.732   3.383  13.244 -0.4259 -0.0471 -0.2862
 2824TIP3    H129887   0.764   3.298  13.214 -0.1624 -0.5327  1.3250
 2824TIP3    H229888   0.669   3.362  13.313  0.4717  1.0977  0.8944
 2825TIP3   OH229889   3.304   5.507   1.478 -0.1156 -0.2850  0.4011
 2825TIP3    H129890   3.247   5.430   1.482  0.6446 -0.9518 -0.9892
 2825TIP3    H229891   3.359   5.500   1.556  0.3492 -1.4969 -0.0160
 2826TIP3   OH229892   1.998   3.093   2.340  0.3874  0.3013  0.7944
 2826TIP3    H129893   2.018   3.011   2.296  0.5661  0.7415  0.0527
 2826TIP3    H229894   2.083   3.125   2.370  0.7401  1.7898 -1.6870
 2827TIP3   OH229895   3.667   2.660  13.131 -0.1830  0.3318 -0.3049
 2827TIP3    H129896   3.663   2.580  13.079 -0.3655 -2.0734  3.1843
 2827TIP3    H229897   3.586   2.706  13.110 -2.1057 -2.4689  0.6522
 2828TIP3   OH229898   4.947   5.187   0.102 -0.4275  0.2415 -0.2193
 2828TIP3    H129899   4.934   5.202   0.008 -1.5079 -1.5065 -0.3752
 2828TIP3    H229900   4.948   5.092   0.111  0.3997  0.3966  1.4561
 2829TIP3   OH229901   2.436   5.290  12.000  0.6605  0.0729 -0.2561
 2829TIP3    H129902   2.363   5.291  12.062 -1.1540 -1.9089 -2.2636
 2829TIP3    H229903   2.469   5.200  12.003  0.6961  0.0055 -1.9577
 2830TIP3   OH229904   1.465   4.707   1.807  0.0715 -0.2898  0.3810
 2830TIP3    H129905   1.421   4.775   1.756  0.2241  0.1714  0.8572
 2830TIP3    H229906   1.462   4.739   1.897  0.0767 -0.9539  0.6209
 2831TIP3   OH229907   4.551   5.367   1.655  0.1271 -0.5019  0.2965
 2831TIP3    H129908   4.488   5.294   1.656 -2.1289  1.3489 -1.7590
 2831TIP3    H229909   4.603   5.352   1.576  1.0733 -0.9993  1.0000
 2832TIP3   OH229910   2.646   4.453   1.857  0.4084  0.0993 -0.0963
 2832TIP3    H129911   2.715   4.390   1.878 -0.3309 -1.5174 -2.2889
 2832TIP3    H229912   2.592   4.457   1.935  0.6035 -1.8353  0.1670
 2833TIP3   OH229913   3.793   4.050   0.441  0.0373 -0.1846  0.0049
 2833TIP3    H129914   3.750   3.966   0.427  1.6191 -0.7820 -1.4397
 2833TIP3    H229915   3.722   4.114   0.441 -0.9293 -1.2452 -1.3321
 2834TIP3   OH229916   2.851   5.133   5.579  0.6212  0.1375 -0.1511
 2834TIP3    H129917   2.850   5.227   5.558  1.7345 -0.0851 -1.2203
 2834TIP3    H229918   2.781   5.096   5.526  0.4941  0.2787 -0.0851
 2835TIP3   OH229919   0.990   2.726  12.555  0.2646  0.4943  0.7784
 2835TIP3    H129920   1.057   2.688  12.613  0.6951 -0.8058 -0.5498
 2835TIP3    H229921   0.910   2.677  12.577  0.6318 -0.6356 -0.3418
 2836TIP3   OH229922   4.576   0.007  13.135  0.0388  0.5227 -0.4884
 2836TIP3    H129923   4.625   0.009  13.218 -0.5728 -1.9987 -0.0234
 2836TIP3    H229924   4.490   0.042  13.157  0.0127  0.2464 -0.1507
 2837TIP3   OH229925   4.344   1.094  17.039 -0.1196 -0.1969  0.2685
 2837TIP3    H129926   4.392   1.018  17.005 -1.6074  0.0477 -2.5212
 2837TIP3    H229927   4.272   1.055  17.089 -0.4813 -0.6134 -0.5723
 2838TIP3   OH229928   2.941   3.053  17.195 -0.3988  0.2267  0.3099
 2838TIP3    H129929   3.005   3.012  17.137 -1.1685  0.3907 -0.6522
 2838TIP3    H229930   2.958   3.013  17.281  2.8227  2.2444  0.6902
 2839TIP3   OH229931   5.595   3.170  16.052  0.1430 -0.3745 -0.0554
 2839TIP3    H129932   5.564   3.149  15.963  0.1541 -0.8007  0.0396
 2839TIP3    H229933   5.554   3.254  16.072  0.6177  0.0153 -0.7026
 2840TIP3   OH229934   4.744   5.298  14.192  0.1077  0.1526 -0.4620
 2840TIP3    H129935   4.772   5.334  14.276 -0.7640 -0.0049 -0.1058
 2840TIP3    H229936   4.658   5.338  14.176 -0.0701 -0.4080 -0.9105
 2841TIP3   OH229937   5.204   4.454   4.111  0.2131 -0.9228 -0.6016
 2841TIP3    H129938   5.282   4.442   4.057  2.0884 -0.5101  1.9314
 2841TIP3    H229939   5.202   4.377   4.168 -0.1219  0.0180  0.6843
 2842TIP3   OH229940   2.240   0.590   0.636 -0.8207 -0.3011  0.1025
 2842TIP3    H129941   2.205   0.584   0.725  0.0003 -4.6955  0.2508
 2842TIP3    H229942   2.163   0.588   0.579 -1.2299  0.2345  0.6310
 2843TIP3   OH229943   4.961   5.701   0.817 -0.2101 -0.1686 -0.2649
 2843TIP3    H129944   4.908   5.780   0.829  1.0685  0.5043  1.1351
 2843TIP3    H229945   5.010   5.717   0.737 -0.9356 -0.1275 -0.7111
 2844TIP3   OH229946   3.490   5.245  12.730 -0.0055 -0.6641  0.1919
 2844TIP3    H129947   3.559   5.211  12.786  1.9264  0.6583 -1.3221
 2844TIP3    H229948   3.440   5.168  12.703 -0.5094 -1.3997  3.0667
 2845TIP3   OH229949   6.769   0.321   4.459  0.2317  0.1541 -0.4982
 2845TIP3    H129950   6.748   0.303   4.368  0.4569 -1.0235 -0.3238
 2845TIP3    H229951   6.846   0.267   4.477 -0.8343 -0.9489  0.8692
 2846TIP3   OH229952   3.259   0.426  16.136  0.6571 -0.0920  0.1762
 2846TIP3    H129953   3.354   0.435  16.135  0.4991  1.8789  1.0765
 2846TIP3    H229954   3.243   0.336  16.108  2.8179 -0.7503  0.9985
 2847TIP3   OH229955   4.912   6.614  14.789  0.6446 -0.0508  0.1673
 2847TIP3    H129956   5.002   6.588  14.769 -0.2743 -2.5699 -0.9278
 2847TIP3    H229957   4.911   6.624  14.884  2.5475  1.9832  0.0256
 2848TIP3   OH229958   6.330   1.929   3.757  0.0431  0.5584 -0.6135
 2848TIP3    H129959   6.392   1.950   3.687  0.2283  2.7684  0.1815
 2848TIP3    H229960   6.343   1.835   3.773  4.5196  1.3141  0.7955
 2849TIP3   OH229961   3.882   3.643  13.613 -0.5846  0.1639  1.1130
 2849TIP3    H129962   3.811   3.580  13.602 -0.6172  0.6133 -1.4640
 2849TIP3    H229963   3.962   3.594  13.593 -0.3204  0.1881  2.0435
 2850TIP3   OH229964   2.609   1.952  17.002  0.2968  0.1866 -0.4551
 2850TIP3    H129965   2.540   1.938  16.937  0.5183  1.2426 -0.9294
 2850TIP3    H229966   2.562   1.984  17.079 -0.1722 -2.7476  0.5223
 2851TIP3   OH229967   2.404   3.328  12.539 -0.0812 -0.5477 -0.4831
 2851TIP3    H129968   2.495   3.300  12.524  0.3397  0.6462 -0.2402
 2851TIP3    H229969   2.380   3.285  12.621 -0.5612 -2.7643 -1.7531
 2852TIP3   OH229970   3.793   0.656  12.037  0.5042 -0.0509  0.0331
 2852TIP3    H129971   3.848   0.734  12.029  3.0400 -1.8014 -0.2512
 2852TIP3    H229972   3.814   0.621  12.124 -2.7074  1.0673  1.3236
 2853TIP3   OH229973   4.852   1.394   0.339  0.4094  0.2544 -0.1161
 2853TIP3    H129974   4.907   1.399   0.417  1.8926  0.5058 -1.1597
 2853TIP3    H229975   4.793   1.469   0.347 -1.3449 -1.2960  2.1434
 2854TIP3   OH229976   2.358   2.645   5.608  0.2817  0.1796 -0.1045
 2854TIP3    H129977   2.446   2.641   5.570 -0.6873  0.1912 -2.4393
 2854TIP3    H229978   2.299   2.641   5.532 -1.7420 -0.3825  1.4608
 2855TIP3   OH229979   5.537   2.744  11.082 -0.4622  0.6255  0.2415
 2855TIP3    H129980   5.600   2.682  11.046 -0.4469  0.3445  0.7490
 2855TIP3    H229981   5.534   2.723  11.176 -2.8969 -0.8071 -0.1062
 2856TIP3   OH229982   6.375   3.601  16.145 -0.0452  0.4334 -0.6573
 2856TIP3    H129983   6.426   3.531  16.105  0.6523  1.2179 -1.1552
 2856TIP3    H229984   6.298   3.611  16.088 -0.8837 -0.8936  0.2121
 2857TIP3   OH229985   1.498   2.416  10.667 -0.0242  0.2702 -0.1110
 2857TIP3    H129986   1.457   2.335  10.698 -0.2794  0.3048 -0.3577
 2857TIP3    H229987   1.539   2.392  10.584 -1.1728  0.6927 -0.8132
 2858TIP3   OH229988   3.928   4.259   0.087 -1.0402 -0.2495 -0.4278
 2858TIP3    H129989   3.911   4.320   0.159 -1.2225  0.6778 -1.2381
 2858TIP3    H229990   3.953   4.316   0.014  0.1573 -1.2451 -0.8008
 2859TIP3   OH229991   3.489   1.279   3.779  0.1979 -0.6667 -0.0227
 2859TIP3    H129992   3.411   1.229   3.755 -0.0384 -0.3620  0.1096
 2859TIP3    H229993   3.456   1.366   3.803  0.4194 -0.9383  1.3249
 2860TIP3   OH229994   3.126   5.523   1.778 -0.3052 -0.1224  0.3814
 2860TIP3    H129995   3.103   5.521   1.871 -0.6640  3.0251  0.3993
 2860TIP3    H229996   3.149   5.432   1.757 -2.2136 -1.2692  3.0207
 2861TIP3   OH229997   3.647   5.230  12.982  0.7002  0.5440 -0.3663
 2861TIP3    H129998   3.631   5.265  13.070  2.6951  0.2470  0.1234
 2861TIP3    H229999   3.680   5.141  12.998 -0.0445  0.0556 -1.4660
 2862TIP3   OH230000   5.948   3.118   2.750  0.4443 -0.0377  0.2608
 2862TIP3    H130001   5.872   3.110   2.692 -0.0873 -0.2875  0.9713
 2862TIP3    H230002   6.017   3.156   2.696 -0.0788 -0.1643 -0.4960
 2863TIP3   OH230003   0.588   2.172   4.583 -0.5682 -0.2943  0.0871
 2863TIP3    H130004   0.578   2.256   4.628  0.6403 -0.5517  0.8543
 2863TIP3    H230005   0.679   2.147   4.598 -0.8889 -1.6973 -0.2211
 2864TIP3   OH230006   3.318   2.129   1.086 -0.1889 -0.0615 -0.2820
 2864TIP3    H130007   3.241   2.178   1.115 -0.2155  0.4017 -1.1309
 2864TIP3    H230008   3.286   2.073   1.016  0.1072 -0.3586 -0.1788
 2865TIP3   OH230009   1.567   4.342   3.680 -0.1426 -0.2872  0.3643
 2865TIP3    H130010   1.632   4.276   3.703 -1.4287 -1.8140 -0.3322
 2865TIP3    H230011   1.554   4.332   3.585 -0.2557  1.0600  0.2186
 2866TIP3   OH230012   4.554   0.943   5.789  0.5252 -0.2369 -0.0451
 2866TIP3    H130013   4.591   0.879   5.849  1.1278 -0.3319 -0.5227
 2866TIP3    H230014   4.600   1.025   5.810 -0.7890  0.2416  1.1041
 2867TIP3   OH230015   2.487   4.487  12.112  0.5446 -0.6836  0.6637
 2867TIP3    H130016   2.511   4.438  12.033  0.7133  1.2948 -0.5510
 2867TIP3    H230017   2.554   4.556  12.119 -0.1066 -0.1546  1.9057
 2868TIP3   OH230018   5.132   2.574  13.061 -0.3930 -0.0556  0.3503
 2868TIP3    H130019   5.192   2.579  13.135 -0.2636 -1.0771  0.3111
 2868TIP3    H230020   5.185   2.602  12.986  0.1818 -1.4309  0.2326
 2869TIP3   OH230021   3.424   0.666   2.296  0.6167 -0.1350  0.3511
 2869TIP3    H130022   3.491   0.620   2.246 -0.2056  0.4245 -1.2985
 2869TIP3    H230023   3.413   0.750   2.250 -0.9157 -0.0504  0.8339
 2870TIP3   OH230024   4.383   1.206  13.250 -0.6391 -0.3526 -0.4387
 2870TIP3    H130025   4.363   1.288  13.206 -2.6676  0.5865  2.1051
 2870TIP3    H230026   4.463   1.224  13.299 -0.9216  0.0421 -0.1142
 2871TIP3   OH230027   5.027   3.722  16.471 -0.3423 -0.4637  0.7016
 2871TIP3    H130028   5.033   3.692  16.562 -1.1721 -2.5453  0.1006
 2871TIP3    H230029   4.975   3.803  16.476  0.2008 -0.1885  2.1433
 2872TIP3   OH230030   0.297   5.426  15.363 -0.3911  0.4374  0.2640
 2872TIP3    H130031   0.352   5.416  15.285 -0.5918 -0.4981  0.2470
 2872TIP3    H230032   0.353   5.398  15.436  0.3862  2.8991  0.6788
 2873TIP3   OH230033   5.577   6.150   4.584  0.3510 -0.8423  0.1950
 2873TIP3    H130034   5.667   6.178   4.600 -0.3181  1.9117 -0.6769
 2873TIP3    H230035   5.556   6.093   4.658  1.7390  1.0414  2.0914
 2874TIP3   OH230036   6.721   3.491  15.848  0.1058  0.2997 -0.1332
 2874TIP3    H130037   6.668   3.469  15.925  1.7514 -2.1738  0.3264
 2874TIP3    H230038   6.656   3.512  15.780 -1.5583 -3.5128  0.1611
 2875TIP3   OH230039   5.051   3.960   4.068 -0.1376  0.6000 -0.4433
 2875TIP3    H130040   5.009   3.875   4.079 -1.7376  1.2556 -1.3550
 2875TIP3    H230041   5.120   3.962   4.134  1.4826 -2.3651 -1.9746
 2876TIP3   OH230042   0.265   6.485  12.066  0.6333  0.2105  0.1681
 2876TIP3    H130043   0.173   6.504  12.088  0.1086 -1.7739 -0.2338
 2876TIP3    H230044   0.290   6.554  12.005 -1.5782 -0.9650 -2.1788
 2877TIP3   OH230045   1.061   5.831  14.532  0.2706  0.2024  0.0757
 2877TIP3    H130046   1.155   5.817  14.538  0.0751 -1.3812 -0.3941
 2877TIP3    H230047   1.025   5.745  14.508 -1.3152  0.7126  0.5454
 2878TIP3   OH230048   5.231   1.738   4.943  0.6077  0.3563  0.4613
 2878TIP3    H130049   5.282   1.788   4.879  1.5874  0.3650  1.2393
 2878TIP3    H230050   5.148   1.785   4.950  0.2314 -0.0209 -1.3028
 2879TIP3   OH230051   6.191   4.853   3.175  0.3028 -0.5508 -0.0199
 2879TIP3    H130052   6.196   4.895   3.261  2.7451 -1.2409  0.2194
 2879TIP3    H230053   6.101   4.868   3.146 -0.2844  0.5227  2.2308
 2880TIP3   OH230054   4.751   2.212  11.997  0.2475  0.0076  0.2564
 2880TIP3    H130055   4.735   2.120  11.976 -0.6721  0.4421 -1.0252
 2880TIP3    H230056   4.667   2.255  11.980  0.6707  1.0844  0.8499
 2881TIP3   OH230057   5.704   2.990   4.460  0.4461 -0.0166 -0.3407
 2881TIP3    H130058   5.768   3.057   4.438  2.9367 -2.2680 -0.2928
 2881TIP3    H230059   5.746   2.939   4.530 -1.7318 -1.0808  0.2517
 2882TIP3   OH230060   1.688   0.811  11.238  0.2255  0.0065 -0.1065
 2882TIP3    H130061   1.755   0.743  11.228  0.9355  0.6372  0.3255
 2882TIP3    H230062   1.676   0.846  11.150  0.1504 -0.3984 -0.2607
 2883TIP3   OH230063   6.304   6.421   3.354  0.3316 -0.2232 -0.0616
 2883TIP3    H130064   6.241   6.390   3.288  0.3745  0.0050 -0.2093
 2883TIP3    H230065   6.287   6.515   3.360  0.7173 -0.1504 -0.1577
 2884TIP3   OH230066   1.572   0.792  14.378  0.1698  0.3695 -0.2182
 2884TIP3    H130067   1.527   0.710  14.356  1.0667 -0.2673  0.2507
 2884TIP3    H230068   1.505   0.860  14.370 -1.5693 -0.8458  2.8749
 2885TIP3   OH230069   5.798   1.677  17.044  0.0812  0.3175 -0.1158
 2885TIP3    H130070   5.791   1.602  17.103 -2.6110  0.8872  0.3386
 2885TIP3    H230071   5.728   1.664  16.980  0.0855  2.0449 -0.4873
 2886TIP3   OH230072   4.330   0.767  16.438 -0.0860  0.2460 -0.6243
 2886TIP3    H130073   4.409   0.807  16.402 -2.1110  2.3013 -2.9949
 2886TIP3    H230074   4.305   0.701  16.374 -1.6224  1.2934 -1.1152
 2887TIP3   OH230075   0.114   3.876   1.138 -0.4231 -0.2449  0.4158
 2887TIP3    H130076   0.071   3.835   1.063  0.9147 -1.9153  0.5395
 2887TIP3    H230077   0.154   3.956   1.102 -2.5748  0.7124  0.0651
 2888TIP3   OH230078   6.067   5.846   4.349 -0.5739  0.3582  0.5605
 2888TIP3    H130079   6.124   5.845   4.272 -1.1768 -1.6392  0.1089
 2888TIP3    H230080   6.029   5.934   4.349  0.5942  0.8734 -0.5651
 2889TIP3   OH230081   1.827   3.769  16.912 -0.0876  0.0507  0.4097
 2889TIP3    H130082   1.909   3.725  16.888 -0.1752 -0.6706  1.4134
 2889TIP3    H230083   1.758   3.716  16.873 -0.0778  0.7393 -0.5599
 2890TIP3   OH230084   1.668   6.538  12.125  0.1177  0.0735 -0.0040
 2890TIP3    H130085   1.675   6.596  12.201  0.6136 -0.5083  0.4032
 2890TIP3    H230086   1.577   6.508  12.126 -0.1568  0.8856 -0.2526
 2891TIP3   OH230087   1.304   2.505  14.504 -0.6708 -0.2783  0.4513
 2891TIP3    H130088   1.374   2.565  14.478 -1.5873  0.1984 -0.9449
 2891TIP3    H230089   1.329   2.422  14.463  0.5366 -0.8525  2.2896
 2892TIP3   OH230090   3.469   3.080  11.822  0.0250 -0.0129  0.2619
 2892TIP3    H130091   3.555   3.037  11.826 -0.2321 -0.6459 -0.8545
 2892TIP3    H230092   3.419   3.027  11.760 -0.4821  1.5885 -0.7017
 2893TIP3   OH230093   0.823   6.070   4.692 -0.5330  0.4103  0.0842
 2893TIP3    H130094   0.838   6.068   4.597  0.1423  1.2788  0.1703
 2893TIP3    H230095   0.911   6.070   4.730 -0.7782 -2.0898  0.7680
 2894TIP3   OH230096   6.623   0.579  16.392 -0.0113 -0.0872 -0.2918
 2894TIP3    H130097   6.651   0.669  16.410 -0.4383 -0.1994  1.0246
 2894TIP3    H230098   6.529   0.585  16.375  0.0164 -0.2469 -0.5037
 2895TIP3   OH230099   4.039   2.741   0.959  0.0962 -0.3010 -0.3437
 2895TIP3    H130100   3.965   2.801   0.971  1.3429  1.4234 -1.1163
 2895TIP3    H230101   4.061   2.713   1.048 -1.5905 -0.9883 -0.1194
 2896TIP3   OH230102   4.737   6.275   1.782  0.1572  0.1899  0.7071
 2896TIP3    H130103   4.743   6.276   1.878 -0.1349 -2.9234  0.8332
 2896TIP3    H230104   4.660   6.221   1.764 -1.3587  2.9107 -1.2999
 2897TIP3   OH230105   6.450   2.306  15.195 -0.2767  0.4499 -0.1419
 2897TIP3    H130106   6.490   2.302  15.282 -0.7639  2.7820  0.2311
 2897TIP3    H230107   6.514   2.354  15.142 -0.3042 -0.3209 -0.8707
 2898TIP3   OH230108   0.732   0.094   3.220 -0.1669  0.4453  0.5746
 2898TIP3    H130109   0.639   0.118   3.223 -0.3313 -0.1068  0.1108
 2898TIP3    H230110   0.749   0.077   3.128  0.5091  0.9631  0.6059
 2899TIP3   OH230111   6.158   1.508  13.233 -0.5335  0.1123 -0.3512
 2899TIP3    H130112   6.175   1.537  13.144 -0.3183 -0.7517 -0.5973
 2899TIP3    H230113   6.098   1.434  13.223 -1.5555  0.8449  0.3030
 2900TIP3   OH230114   2.745   3.394  11.180  0.0289 -0.6831 -0.5147
 2900TIP3    H130115   2.783   3.341  11.249 -0.1566 -0.7064 -0.4298
 2900TIP3    H230116   2.809   3.391  11.109  0.3827 -0.3546 -0.2092
 2901TIP3   OH230117   0.226   4.570   1.052  0.5517 -0.3621 -0.9824
 2901TIP3    H130118   0.186   4.489   1.082  1.9743 -1.9745 -3.2989
 2901TIP3    H230119   0.165   4.605   0.987  1.0711 -0.8819 -1.7691
 2902TIP3   OH230120   6.285   2.602   2.135 -0.5816  0.5022  0.0064
 2902TIP3    H130121   6.222   2.646   2.079 -1.4648 -1.4477 -0.5673
 2902TIP3    H230122   6.247   2.605   2.223 -1.9213 -1.4135 -0.4770
 2903TIP3   OH230123   1.033   4.789   5.750 -0.5121  0.0442 -0.3932
 2903TIP3    H130124   1.039   4.844   5.829 -0.0849 -0.8803  0.2289
 2903TIP3    H230125   1.081   4.838   5.683  0.6054  0.0302  0.3836
 2904TIP3   OH230126   5.891   1.785   3.663  0.1509 -0.4945  0.1410
 2904TIP3    H130127   5.959   1.851   3.652 -1.5785  1.3842  0.4487
 2904TIP3    H230128   5.818   1.815   3.608 -0.5059 -2.3887 -0.0770
 2905TIP3   OH230129   5.064   2.298   0.785  0.1231  0.1486 -0.2380
 2905TIP3    H130130   5.123   2.242   0.835 -0.9610  0.1067  1.0369
 2905TIP3    H230131   5.067   2.382   0.830 -0.1986  0.3617 -0.6129
 2906TIP3   OH230132   2.097   6.564   1.684 -0.1722  0.2321 -0.4472
 2906TIP3    H130133   2.056   6.477   1.687  1.1076 -0.3768  0.5424
 2906TIP3    H230134   2.186   6.548   1.715 -0.2704  2.1075  0.8679
 2907TIP3   OH230135   6.513   3.973  15.300  0.5141 -0.6915 -0.0507
 2907TIP3    H130136   6.429   4.008  15.269 -0.3556 -2.4173  0.2882
 2907TIP3    H230137   6.577   4.040  15.277 -0.8153  0.1933 -1.2489
 2908TIP3   OH230138   3.984   1.781  13.578  0.3492 -0.4614 -0.1597
 2908TIP3    H130139   3.938   1.864  13.588  0.6983 -0.3093  0.2375
 2908TIP3    H230140   3.915   1.717  13.561  0.0738 -0.0999 -0.4225
 2909TIP3   OH230141   3.826   6.441  16.227 -0.1035  0.0740 -0.7225
 2909TIP3    H130142   3.799   6.399  16.309 -0.3986 -2.2880 -2.0011
 2909TIP3    H230143   3.786   6.528  16.232 -0.1221 -0.0253  1.6359
 2910TIP3   OH230144   6.437   4.513   5.468 -0.4827 -0.3339 -0.3194
 2910TIP3    H130145   6.376   4.467   5.411 -2.1800  0.0912  1.1161
 2910TIP3    H230146   6.382   4.575   5.517  1.0667 -0.0351  1.0878
 2911TIP3   OH230147   6.269   0.491  16.987 -0.1448  0.3194  0.0593
 2911TIP3    H130148   6.201   0.482  17.053  0.9849 -0.2786  1.1637
 2911TIP3    H230149   6.274   0.405  16.945 -0.8164  0.6795 -0.7812
 2912TIP3   OH230150   0.570   3.196   1.010  0.0090  0.0756  0.6831
 2912TIP3    H130151   0.590   3.272   1.064 -0.1677  1.0313 -0.5630
 2912TIP3    H230152   0.520   3.232   0.936 -1.2019 -1.4463  0.7605
 2913TIP3   OH230153   6.246   6.738  15.685 -0.2380  0.0120  0.5126
 2913TIP3    H130154   6.327   6.788  15.688 -1.5995  2.3346  0.1776
 2913TIP3    H230155   6.197   6.776  15.612 -2.1084 -0.5313  1.4350
 2914TIP3   OH230156   0.620   3.781   4.518  0.0669 -0.2901 -0.1123
 2914TIP3    H130157   0.676   3.855   4.494 -1.8188  0.7163 -1.6019
 2914TIP3    H230158   0.631   3.772   4.612  0.5833  1.7161  0.0478
 2915TIP3   OH230159   0.283   5.870  11.973 -0.0406 -0.0118 -0.4211
 2915TIP3    H130160   0.257   5.836  11.888 -2.5447  0.3918  0.1448
 2915TIP3    H230161   0.279   5.966  11.963  0.4863  0.0513 -0.0762
 2916TIP3   OH230162   1.825   4.500  11.605 -0.6985  0.0844  0.3810
 2916TIP3    H130163   1.805   4.532  11.517  0.5389 -2.4959 -0.9181
 2916TIP3    H230164   1.921   4.496  11.606 -0.6554  1.2797  2.3203
 2917TIP3   OH230165   1.554   5.029  13.678 -0.4533 -0.0739 -0.3060
 2917TIP3    H130166   1.536   4.935  13.682 -0.8628  0.0269  0.4209
 2917TIP3    H230167   1.467   5.070  13.681 -0.2060  0.3787  1.4802
 2918TIP3   OH230168   1.970   1.350  13.769  0.5061 -0.1601 -0.4197
 2918TIP3    H130169   1.912   1.404  13.714  1.1039 -0.2616 -1.1569
 2918TIP3    H230170   1.985   1.271  13.717  3.5520  1.0627 -1.4714
 2919TIP3   OH230171   4.732   4.612   6.681  0.5724 -0.0376 -0.1642
 2919TIP3    H130172   4.817   4.594   6.641  0.6449 -0.7675  0.3069
 2919TIP3    H230173   4.749   4.610   6.775  0.0067 -0.3302 -0.0669
 2920TIP3   OH230174   2.082   4.528   6.359 -0.0944  0.4231 -0.3993
 2920TIP3    H130175   2.101   4.472   6.434 -1.4457  0.9855  0.3832
 2920TIP3    H230176   2.132   4.489   6.286  1.6086  0.1482  0.8806
 2921TIP3   OH230177   5.064   1.010   4.775  0.7554  0.5638 -0.1142
 2921TIP3    H130178   5.123   1.076   4.813  1.6595 -0.0598 -0.4089
 2921TIP3    H230179   5.104   0.926   4.798 -2.7179 -0.1181  4.0794
 2922TIP3   OH230180   4.720   4.760   3.802 -0.5080 -0.2300  0.3974
 2922TIP3    H130181   4.768   4.829   3.848 -1.8916  0.7090  0.4555
 2922TIP3    H230182   4.786   4.692   3.787  0.8027  0.9433  0.6457
 2923TIP3   OH230183   4.755   1.966   5.422  0.1880  0.5222  0.2955
 2923TIP3    H130184   4.821   1.918   5.471  0.0601  0.2717  0.2197
 2923TIP3    H230185   4.707   2.016   5.488 -0.6097 -0.5540  0.5433
 2924TIP3   OH230186   2.975   6.182   3.992  0.0437  0.2350  0.3206
 2924TIP3    H130187   2.958   6.276   3.999  0.9056  0.5468 -1.4768
 2924TIP3    H230188   3.022   6.172   3.909 -0.0761 -1.7895  0.4659
 2925TIP3   OH230189   4.570   2.696  10.490 -0.2881  0.6327 -0.0882
 2925TIP3    H130190   4.498   2.684  10.428 -0.1797  1.4000 -0.3713
 2925TIP3    H230191   4.597   2.607  10.514 -2.4385  0.3329  1.3158
 2926TIP3   OH230192   6.199   2.572  16.760  0.2251  0.5936 -0.4990
 2926TIP3    H130193   6.163   2.515  16.828 -0.6126  2.3218  0.5598
 2926TIP3    H230194   6.122   2.614  16.721  0.6926 -0.4209 -2.5874
 2927TIP3   OH230195   3.045   4.264  15.444  0.3724  0.1000  0.2582
 2927TIP3    H130196   3.006   4.188  15.402 -2.0712  1.2894  0.2839
 2927TIP3    H230197   3.084   4.314  15.371 -2.2357  1.2167 -0.4598
 2928TIP3   OH230198   2.164   3.885   3.152 -0.2594 -0.2847  0.1186
 2928TIP3    H130199   2.105   3.812   3.172 -2.5626  2.3064  3.1696
 2928TIP3    H230200   2.223   3.890   3.227  0.7074  0.2231 -0.6575
 2929TIP3   OH230201   0.593   4.434  14.124  0.4875  0.4226 -0.1406
 2929TIP3    H130202   0.509   4.425  14.080  1.1164 -0.2627 -1.2428
 2929TIP3    H230203   0.571   4.458  14.214 -0.7787  3.6577 -1.2507
 2930TIP3   OH230204   6.635   2.060   1.601  0.3297  0.2314  0.1703
 2930TIP3    H130205   6.548   2.080   1.566  1.0878  0.6509 -1.4949
 2930TIP3    H230206   6.617   2.023   1.688 -1.4623  1.2603  0.2770
 2931TIP3   OH230207   2.508   6.030  12.541 -0.9307  0.7603 -0.1130
 2931TIP3    H130208   2.532   6.033  12.633  1.5552 -1.9597 -0.5983
 2931TIP3    H230209   2.554   6.104  12.502 -0.3703  0.7286  0.4912
 2932TIP3   OH230210   5.133   1.281   3.262 -0.0930 -0.0120 -0.3052
 2932TIP3    H130211   5.089   1.354   3.306  0.6758 -0.3568  1.0634
 2932TIP3    H230212   5.196   1.324   3.204 -2.2383  0.4888 -2.3582
 2933TIP3   OH230213   2.805   1.485   2.605 -0.7839 -0.3713 -0.0028
 2933TIP3    H130214   2.787   1.395   2.630  0.1056 -0.3360  0.8012
 2933TIP3    H230215   2.805   1.534   2.687  0.3642  0.0647 -0.2524
 2934TIP3   OH230216   5.469   1.780  13.222 -0.2114  0.1304  0.2947
 2934TIP3    H130217   5.407   1.758  13.154  0.1738  2.2368 -0.7913
 2934TIP3    H230218   5.523   1.850  13.184 -0.1273  1.5047  2.7841
 2935TIP3   OH230219   4.097   4.660  16.073 -0.5387 -0.2473  0.1312
 2935TIP3    H130220   4.136   4.675  16.159 -0.3857  1.1666 -0.1832
 2935TIP3    H230221   4.129   4.574  16.047 -1.5556 -1.2497  2.0167
 2936TIP3   OH230222   2.483   1.720   0.146 -0.2822 -0.0410  0.2286
 2936TIP3    H130223   2.565   1.746   0.186 -0.2073 -0.1299  0.1335
 2936TIP3    H230224   2.455   1.643   0.196 -0.8743  0.6489  0.9835
 2937TIP3   OH230225   1.981   0.864  15.466 -0.5910 -0.4934  0.0678
 2937TIP3    H130226   1.989   0.958  15.480 -0.6758 -0.4378 -0.2674
 2937TIP3    H230227   2.071   0.832  15.463 -0.5420 -0.2800 -0.8138
 2938TIP3   OH230228   6.262   0.429   1.030 -0.5463 -0.4645 -0.0495
 2938TIP3    H130229   6.289   0.515   1.062  0.9957 -1.1483  0.5454
 2938TIP3    H230230   6.309   0.367   1.086 -1.1018 -1.6907 -0.9197
 2939TIP3   OH230231   3.110   0.814  11.642 -0.7166  0.0197 -0.0966
 2939TIP3    H130232   3.059   0.870  11.701 -0.6117  0.2598 -0.2326
 2939TIP3    H230233   3.049   0.791  11.572 -0.4528  0.8306 -0.5957
 2940TIP3   OH230234   0.946   5.295   4.552  0.3959 -0.1473  0.0101
 2940TIP3    H130235   0.941   5.366   4.615  1.4820 -0.1844  0.1361
 2940TIP3    H230236   1.004   5.230   4.592 -1.7058 -1.7775  0.5482
 2941TIP3   OH230237   4.542   1.498  10.956 -0.2261  0.1532  0.0346
 2941TIP3    H130238   4.449   1.521  10.957 -0.2287  0.1951 -0.7763
 2941TIP3    H230239   4.547   1.416  10.907  0.3195  0.9033 -1.1913
 2942TIP3   OH230240   1.201   6.095   3.721  0.2083  0.3332 -0.1855
 2942TIP3    H130241   1.190   6.110   3.627 -0.9298 -1.0734 -0.2968
 2942TIP3    H230242   1.287   6.131   3.741  0.7402  0.0673 -1.9022
 2943TIP3   OH230243   6.704   6.612   4.204 -0.1352  0.4162 -0.7207
 2943TIP3    H130244   6.769   6.658   4.257 -0.1744  1.2890 -1.4115
 2943TIP3    H230245   6.721   6.519   4.220  0.2922  0.6584  0.2771
 2944TIP3   OH230246   6.611   4.860   3.293  0.1902 -0.1199 -0.3478
 2944TIP3    H130247   6.517   4.843   3.303 -0.0711  1.1044 -0.5933
 2944TIP3    H230248   6.618   4.955   3.296  1.6466 -0.2675  1.5791
 2945TIP3   OH230249   3.232   1.113   6.345  0.3451 -0.0442 -0.1644
 2945TIP3    H130250   3.285   1.044   6.383  1.8028  0.8730 -0.4954
 2945TIP3    H230251   3.211   1.171   6.418 -0.0094 -0.2854 -0.0749
 2946TIP3   OH230252   5.035   4.782   4.166 -0.0967 -0.3506  0.4569
 2946TIP3    H130253   5.019   4.736   4.083 -1.6066 -1.2479  1.2300
 2946TIP3    H230254   5.064   4.714   4.226  1.6005  0.4042  0.5241
 2947TIP3   OH230255   3.797   1.839   1.451  0.2005  0.2126 -0.1697
 2947TIP3    H130256   3.711   1.798   1.439 -1.4393  3.4239  0.0751
 2947TIP3    H230257   3.813   1.834   1.545 -0.2720  0.6592 -0.0641
 2948TIP3   OH230258   4.220   6.096  13.104  0.2100 -0.1259  0.3696
 2948TIP3    H130259   4.163   6.150  13.049  0.1909  1.6199  2.0372
 2948TIP3    H230260   4.161   6.058  13.169  0.6006 -0.1556  0.7096
 2949TIP3   OH230261   0.598   1.470  14.098  0.2967 -0.2406 -0.0022
 2949TIP3    H130262   0.597   1.433  14.186 -1.9351  0.9055  0.4690
 2949TIP3    H230263   0.512   1.509  14.086  1.5479  2.1914 -1.5964
 2950TIP3   OH230264   6.753   3.397  15.431 -0.2696  0.2813  0.0882
 2950TIP3    H130265   6.709   3.323  15.473  0.0319  0.0762  0.0445
 2950TIP3    H230266   6.737   3.470  15.490  0.1771 -0.0153  0.5814
 2951TIP3   OH230267   4.476   5.514  12.372 -0.1810  0.0812 -0.1307
 2951TIP3    H130268   4.415   5.457  12.418  0.4740  1.0046  1.9192
 2951TIP3    H230269   4.436   5.600  12.375 -0.3295  0.0856 -1.6932
 2952TIP3   OH230270   2.364   2.881   0.674  0.1299  0.3724  0.5048
 2952TIP3    H130271   2.325   2.822   0.609 -0.8555  0.5488  0.9211
 2952TIP3    H230272   2.308   2.958   0.673 -0.4832 -0.0122  2.2490
 2953TIP3   OH230273   6.339   4.588  15.504 -0.0674  0.2603 -0.1237
 2953TIP3    H130274   6.288   4.653  15.554 -1.1493  1.2512 -2.4272
 2953TIP3    H230275   6.425   4.629  15.494 -0.2726  0.6764 -0.2412
 2954TIP3   OH230276   5.757   5.236  17.151 -0.4151 -0.0818  0.1573
 2954TIP3    H130277   5.705   5.288  17.212  0.2087 -1.2632  1.6985
 2954TIP3    H230278   5.724   5.147  17.158 -1.0290 -0.0670 -1.9983
 2955TIP3   OH230279   3.343   6.151   1.935 -0.1731 -0.4025  0.3277
 2955TIP3    H130280   3.382   6.064   1.933  0.5605 -0.0539 -1.9800
 2955TIP3    H230281   3.392   6.197   2.003  0.9054 -1.1373  0.0631
 2956TIP3   OH230282   6.721   1.085  12.132 -0.5979  0.2202 -0.4072
 2956TIP3    H130283   6.680   1.032  12.064  0.6875  0.1111 -1.1126
 2956TIP3    H230284   6.794   1.031  12.163 -0.4293  0.7862  0.1945
 2957TIP3   OH230285   5.611   3.645   1.667 -0.3650  0.7099 -0.0843
 2957TIP3    H130286   5.675   3.704   1.626  0.2666  0.2690  0.2444
 2957TIP3    H230287   5.551   3.621   1.597 -0.1940  1.1654 -0.3891
 2958TIP3   OH230288   4.248   4.991   1.228  0.0482  0.5530  0.5285
 2958TIP3    H130289   4.289   4.959   1.148  0.1540  0.0428  0.7860
 2958TIP3    H230290   4.181   4.925   1.249 -1.1388  1.5443 -0.0788
 2959TIP3   OH230291   4.958   1.384   4.755  0.2458  0.4806  0.2378
 2959TIP3    H130292   4.969   1.311   4.693  1.7807  0.7515  0.1772
 2959TIP3    H230293   4.882   1.431   4.722 -0.6210 -0.9485  0.1300
 2960TIP3   OH230294   4.049   3.880   2.970  0.8093  0.0530  0.0916
 2960TIP3    H130295   4.098   3.866   2.889  1.4938  1.1859  0.3100
 2960TIP3    H230296   4.005   3.796   2.985  1.7454 -0.5997 -0.7217
 2961TIP3   OH230297   2.439   2.342   1.582  0.2909  0.3948 -0.2137
 2961TIP3    H130298   2.385   2.263   1.594  0.3050  0.6279  1.5544
 2961TIP3    H230299   2.376   2.413   1.570  0.2264  0.4794  0.6174
 2962TIP3   OH230300   1.679   5.421   6.742  0.2845  0.3626 -0.0733
 2962TIP3    H130301   1.656   5.470   6.664 -1.0958 -1.7426 -1.0485
 2962TIP3    H230302   1.766   5.385   6.724  0.8874  1.6462  0.2571
 2963TIP3   OH230303   1.122   0.898   3.419 -0.1855  0.0625 -0.0857
 2963TIP3    H130304   1.090   0.821   3.466 -1.2188 -0.2600 -1.3111
 2963TIP3    H230305   1.217   0.895   3.430 -0.3457 -0.4207  1.3395
 2964TIP3   OH230306   3.770   5.139   1.830 -0.3466  0.3650  0.1972
 2964TIP3    H130307   3.745   5.134   1.923  1.3371 -1.4135  0.5771
 2964TIP3    H230308   3.725   5.217   1.798 -1.7126  0.4819  2.2781
 2965TIP3   OH230309   1.359   5.289  17.162 -0.1040  0.3067 -0.3420
 2965TIP3    H130310   1.431   5.232  17.133 -1.3381 -2.9245  2.5742
 2965TIP3    H230311   1.300   5.292  17.086  0.7397 -1.1017 -1.0896
 2966TIP3   OH230312   5.023   6.106   6.022 -0.0213 -0.0421 -0.6633
 2966TIP3    H130313   5.052   6.171   6.086 -0.2785  1.1649 -1.7494
 2966TIP3    H230314   4.978   6.040   6.074  0.6323  0.4170  0.5127
 2967TIP3   OH230315   1.865   4.995   5.924  0.0424 -0.2051  0.6181
 2967TIP3    H130316   1.794   5.044   5.967 -0.9499  0.1759 -1.4204
 2967TIP3    H230317   1.925   5.063   5.893  0.7738 -0.4853  1.3870
 2968TIP3   OH230318   4.410   3.534   1.523 -0.2098 -0.0401  0.7357
 2968TIP3    H130319   4.355   3.485   1.462 -0.7953 -0.4657  1.6041
 2968TIP3    H230320   4.355   3.548   1.600  0.4041  0.8203  1.0266
 2969TIP3   OH230321   1.527   6.521   1.298  0.3018 -0.3038  0.4694
 2969TIP3    H130322   1.485   6.567   1.225 -0.0616  0.3224  1.0608
 2969TIP3    H230323   1.454   6.498   1.356  0.6722 -0.0522  1.0358
 2970TIP3   OH230324   4.398   6.095   0.730  0.5525  0.1762  0.3810
 2970TIP3    H130325   4.309   6.120   0.707  0.3074  0.8702  2.0004
 2970TIP3    H230326   4.448   6.176   0.726  0.8791 -0.0160  0.4958
 2971TIP3   OH230327   2.697   3.297  12.150  0.0778 -0.7228  0.2344
 2971TIP3    H130328   2.693   3.269  12.059 -0.5862 -2.4832  0.7842
 2971TIP3    H230329   2.790   3.290  12.173 -0.1033 -2.8955  0.4577
 2972TIP3   OH230330   1.959   5.880   4.854  0.1999  0.2287 -0.2956
 2972TIP3    H130331   1.870   5.850   4.875 -0.1325  1.4484  0.0960
 2972TIP3    H230332   2.010   5.861   4.933  0.0304  0.5143 -0.1140
 2973TIP3   OH230333   1.371   2.799  17.189 -0.2872 -0.2078 -0.1191
 2973TIP3    H130334   1.349   2.869  17.127 -0.8436 -0.9613 -0.7841
 2973TIP3    H230335   1.363   2.718  17.138  2.6325 -0.6211  0.0128
 2974TIP3   OH230336   3.745   4.032   5.013 -0.2958 -0.2445 -0.2227
 2974TIP3    H130337   3.669   4.030   4.954  0.8300 -0.1912 -1.7099
 2974TIP3    H230338   3.821   4.023   4.954  0.9148  1.1267  1.0926
 2975TIP3   OH230339   4.567   2.486   2.855 -0.2458  0.9783  0.2872
 2975TIP3    H130340   4.509   2.562   2.856 -0.0268  1.2351 -2.2434
 2975TIP3    H230341   4.586   2.472   2.762  1.9407 -0.4717  0.9126
 2976TIP3   OH230342   0.078   4.466   1.731  0.0136  0.1051 -0.3524
 2976TIP3    H130343   0.055   4.549   1.773  0.8145 -0.0973  0.5034
 2976TIP3    H230344   0.173   4.471   1.718  0.1782 -0.9564  0.3424
 2977TIP3   OH230345   2.652   1.042  17.030  0.0978 -0.7525  0.6424
 2977TIP3    H130346   2.685   1.026  17.119  0.8350 -1.0961  0.3063
 2977TIP3    H230347   2.610   0.960  17.005  1.9429 -1.4434 -0.2270
 2978TIP3   OH230348   1.894   1.228  16.157  0.0544  0.0144  0.8328
 2978TIP3    H130349   1.956   1.247  16.228  0.5233 -0.9952  0.6963
 2978TIP3    H230350   1.827   1.296  16.165  1.0431  0.9711  1.1403
 2979TIP3   OH230351   5.318   3.579  15.101  0.8034  0.4742 -0.2891
 2979TIP3    H130352   5.231   3.558  15.132  0.3597  3.0919  0.3361
 2979TIP3    H230353   5.350   3.647  15.161  2.9966  0.0456 -0.9088
 2980TIP3   OH230354   6.395   3.587  10.837 -0.0604  0.3670  0.2343
 2980TIP3    H130355   6.371   3.624  10.752  1.1716  1.0267  0.1559
 2980TIP3    H230356   6.467   3.642  10.867 -1.3234  0.9487  2.3014
 2981TIP3   OH230357   0.810   2.440   0.238  0.1072 -0.0371  0.2524
 2981TIP3    H130358   0.756   2.396   0.303  1.4495 -1.2247  0.5869
 2981TIP3    H230359   0.751   2.458   0.165 -0.9027 -0.6220  0.9177
 2982TIP3   OH230360   4.314   4.981   2.595 -0.2681  0.1683 -0.3486
 2982TIP3    H130361   4.238   5.028   2.631  1.3646  2.1706  0.5614
 2982TIP3    H230362   4.376   4.976   2.668 -0.0998 -2.8267 -0.6330
 2983TIP3   OH230363   5.843   0.183  16.298  0.7408 -0.3009 -1.0345
 2983TIP3    H130364   5.754   0.211  16.274  1.3635  1.4646 -1.3050
 2983TIP3    H230365   5.884   0.162  16.214  0.6343 -0.9821 -0.9203
 2984TIP3   OH230366   4.280   6.518  15.317  0.7148  0.2166  0.3654
 2984TIP3    H130367   4.289   6.424  15.302  3.0936  0.4327  0.2911
 2984TIP3    H230368   4.350   6.557  15.266  0.4398  1.9533  1.2911
 2985TIP3   OH230369   4.432   3.699   3.693  0.1732 -0.1180  0.2552
 2985TIP3    H130370   4.396   3.742   3.616  2.0083  1.0243  0.0277
 2985TIP3    H230371   4.463   3.614   3.661  0.7426  0.2687 -0.2289
 2986TIP3   OH230372   4.371   2.594  13.568 -0.0067 -0.3567 -0.2399
 2986TIP3    H130373   4.324   2.511  13.558 -1.5567  0.5677 -0.7849
 2986TIP3    H230374   4.304   2.656  13.596  1.0967  0.7845 -0.0802
 2987TIP3   OH230375   0.145   2.757   1.494 -0.2184 -0.0426 -0.2990
 2987TIP3    H130376   0.203   2.833   1.483  0.6410 -0.7924 -0.9756
 2987TIP3    H230377   0.136   2.748   1.589 -0.1850  0.7979 -0.2110
 2988TIP3   OH230378   3.986   5.083   5.319  0.4642  0.0801  0.0353
 2988TIP3    H130379   3.998   5.001   5.272  1.4056 -0.4027  1.1044
 2988TIP3    H230380   4.053   5.141   5.284 -0.0966  0.3494 -0.6050
 2989TIP3   OH230381   2.697   6.588  15.337 -0.1873  0.0592  0.3352
 2989TIP3    H130382   2.630   6.533  15.378 -0.0091  0.8918  1.7792
 2989TIP3    H230383   2.774   6.531  15.332 -0.7498 -0.6405 -0.5869
 2990TIP3   OH230384   1.168   5.570  15.045 -0.3246  0.6220  0.0874
 2990TIP3    H130385   1.122   5.546  14.964 -0.5610  0.4566  0.2697
 2990TIP3    H230386   1.221   5.645  15.021  0.6545 -0.2637 -0.5649
 2991TIP3   OH230387   2.292   5.425   3.346  0.1731 -0.1313  0.1148
 2991TIP3    H130388   2.267   5.391   3.432 -1.2249 -0.3650 -0.3817
 2991TIP3    H230389   2.387   5.436   3.352  0.0719 -0.0286  1.7300
 2992TIP3   OH230390   4.156   2.783  13.596  0.0485  0.2654 -0.5166
 2992TIP3    H130391   4.090   2.735  13.547 -0.9996  0.4244  0.7334
 2992TIP3    H230392   4.107   2.848  13.646  1.1147  0.2844  0.5420
 2993TIP3   OH230393   3.570   1.384  14.757  0.1317 -0.5516 -0.0229
 2993TIP3    H130394   3.632   1.436  14.707 -1.1749 -0.0522 -1.1528
 2993TIP3    H230395   3.617   1.302  14.776  1.3587  0.0858 -0.2593
 2994TIP3   OH230396   1.832   2.793  10.875  0.5766  0.1328 -0.0319
 2994TIP3    H130397   1.787   2.739  10.811  1.1759 -1.1420  0.5843
 2994TIP3    H230398   1.842   2.736  10.952 -1.4710  2.0898  1.7758
 2995TIP3   OH230399   6.258   1.091   2.786 -0.4876 -0.4572 -0.5618
 2995TIP3    H130400   6.228   1.017   2.839  2.2471  0.1097  1.8564
 2995TIP3    H230401   6.315   1.052   2.719  0.3249 -0.6228  0.2275
 2996TIP3   OH230402   3.311   4.142   3.196  0.0675 -0.5246 -0.0552
 2996TIP3    H130403   3.405   4.160   3.199  0.1117 -0.9289  0.9643
 2996TIP3    H230404   3.285   4.170   3.108  0.7686  1.3722  0.3194
 2997TIP3   OH230405   4.425   4.968   5.423  0.0114 -0.0629 -0.2002
 2997TIP3    H130406   4.377   5.047   5.396  0.9558  0.8893  0.8199
 2997TIP3    H230407   4.517   4.990   5.404  0.3533 -0.6192  0.7917
 2998TIP3   OH230408   5.584   5.704  13.470 -0.0734  0.4678  0.2374
 2998TIP3    H130409   5.557   5.622  13.429 -1.1040  0.3779  1.0848
 2998TIP3    H230410   5.530   5.710  13.549  0.6409  1.5115  0.6515
 2999TIP3   OH230411   0.990   5.126   3.108  0.2112  0.0872  0.4659
 2999TIP3    H130412   1.057   5.179   3.064  0.0381  0.1482  0.2796
 2999TIP3    H230413   0.908   5.151   3.066  0.2545 -1.0500 -0.3063
 3000TIP3   OH230414   5.848   0.646   0.429  0.0450 -0.5495  0.5910
 3000TIP3    H130415   5.925   0.597   0.400  0.4021 -0.2577  1.0505
 3000TIP3    H230416   5.809   0.591   0.498  0.6856  0.0100  1.4060
 3001TIP3   OH230417   1.963   2.442   0.449  0.0291 -0.2844  0.0440
 3001TIP3    H130418   2.006   2.487   0.522 -0.4266  1.0250 -0.4843
 3001TIP3    H230419   1.876   2.422   0.482  0.3379 -1.0786  0.3903
 3002TIP3   OH230420   5.256   5.885  16.235  0.3755 -0.0825 -0.4744
 3002TIP3    H130421   5.304   5.888  16.318 -1.1594 -1.6740  0.5184
 3002TIP3    H230422   5.209   5.969  16.232 -1.2952 -0.8950  1.3918
 3003TIP3   OH230423   4.870   2.687  15.917  0.0828  0.5782  0.1653
 3003TIP3    H130424   4.816   2.755  15.957  0.1895 -0.5011  2.2041
 3003TIP3    H230425   4.824   2.605  15.936  2.6971 -0.4256  2.5002
 3004TIP3   OH230426   5.249   1.466  13.531 -0.1962 -0.1202  0.3550
 3004TIP3    H130427   5.181   1.465  13.464  1.0243 -1.3920 -0.9000
 3004TIP3    H230428   5.212   1.517  13.603 -2.0299  0.1387 -0.7617
 3005TIP3   OH230429   4.094   1.177  13.741 -0.2091 -0.3113 -0.3110
 3005TIP3    H130430   4.093   1.254  13.683  0.3648  0.1620  0.3131
 3005TIP3    H230431   4.077   1.103  13.682 -0.2320  0.2325 -0.9922
 3006TIP3   OH230432   4.921   5.184   5.730  1.0455 -0.0867  0.0692
 3006TIP3    H130433   4.879   5.101   5.752  0.6366  0.1730  0.2777
 3006TIP3    H230434   4.941   5.224   5.815  0.5563  0.3712 -0.0278
 3007TIP3   OH230435   3.384   1.113  15.880 -0.1042  0.0641  0.2194
 3007TIP3    H130436   3.443   1.159  15.940 -0.3715 -0.7740  1.1364
 3007TIP3    H230437   3.341   1.047  15.934 -1.5928  0.3997 -0.5230
 3008TIP3   OH230438   5.973   5.154  16.036  0.1360  0.2536  0.2096
 3008TIP3    H130439   6.003   5.100  15.963 -0.2442 -0.8897  0.8858
 3008TIP3    H230440   5.994   5.244  16.010  1.8210 -0.3101 -0.4432
 3009TIP3   OH230441   5.394   3.529   4.314 -0.0614  0.5519 -0.0426
 3009TIP3    H130442   5.455   3.456   4.317 -0.9700 -0.2294 -0.1487
 3009TIP3    H230443   5.436   3.593   4.257  1.9323  1.2530  2.1331
 3010TIP3   OH230444   5.858   2.218   4.655  0.1507 -0.3489 -0.1859
 3010TIP3    H130445   5.916   2.158   4.703  0.4705  0.2785  0.2161
 3010TIP3    H230446   5.770   2.186   4.675  0.2866 -0.1662  0.7298
 3011TIP3   OH230447   2.810   6.296  12.763  0.5927  0.4806  0.4255
 3011TIP3    H130448   2.775   6.354  12.831 -1.3388  2.2129 -1.9565
 3011TIP3    H230449   2.810   6.209  12.803  1.2624  1.7249  3.2596
 3012TIP3   OH230450   2.874   1.342   1.569 -0.1417  0.0328  0.0511
 3012TIP3    H130451   2.804   1.358   1.633  0.9540  2.5744  0.6868
 3012TIP3    H230452   2.916   1.262   1.600 -0.5878  0.3957  1.6521
 3013TIP3   OH230453   4.499   1.608  14.395 -0.4142 -0.0217 -0.1002
 3013TIP3    H130454   4.524   1.589  14.485  0.4523 -2.0987 -0.7370
 3013TIP3    H230455   4.567   1.668  14.364  0.9202 -1.5239 -0.1971
 3014TIP3   OH230456   6.730   6.709   3.343  0.2793 -0.1415 -0.0917
 3014TIP3    H130457   6.789   6.661   3.286 -0.5456 -0.8768 -0.3447
 3014TIP3    H230458   6.644   6.700   3.301 -0.3448 -0.7284  1.2868
 3015TIP3   OH230459   1.294   4.805   4.288  0.6006 -0.0751  0.4021
 3015TIP3    H130460   1.320   4.838   4.202 -0.9052  0.5442  0.1767
 3015TIP3    H230461   1.353   4.731   4.304 -1.0312 -2.0552 -2.4483
 3016TIP3   OH230462   4.652   4.213   1.063  0.0613 -0.0635 -0.3258
 3016TIP3    H130463   4.603   4.174   1.135  0.9177  1.0753  0.9270
 3016TIP3    H230464   4.618   4.172   0.984  0.5634 -2.9104  0.8801
 3017TIP3   OH230465   2.512   1.072   5.821 -0.5449  0.2852 -0.1036
 3017TIP3    H130466   2.559   1.065   5.738  1.3216 -2.6150  1.1047
 3017TIP3    H230467   2.447   1.001   5.818 -0.0431 -0.2454  1.1218
 3018TIP3   OH230468   4.687   3.790   4.738  0.0774  0.2838  0.7127
 3018TIP3    H130469   4.688   3.729   4.664  0.8739  1.5153 -0.3164
 3018TIP3    H230470   4.596   3.816   4.747  0.2403  1.4473 -0.9505
 3019TIP3   OH230471   6.064   2.750   1.847 -0.2732  0.4314  0.1530
 3019TIP3    H130472   6.023   2.745   1.761  0.6391  0.8820 -0.3163
 3019TIP3    H230473   6.157   2.763   1.829 -0.2125  1.6414  1.2032
 3020TIP3   OH230474   3.631   4.479  11.187  0.1152 -0.0034 -0.0674
 3020TIP3    H130475   3.631   4.500  11.280 -1.3255  0.4071 -0.1545
 3020TIP3    H230476   3.693   4.542  11.149  0.9037 -0.3408  0.6359
 3021TIP3   OH230477   6.288   2.547  11.224  0.1513  0.0685 -0.7370
 3021TIP3    H130478   6.326   2.625  11.263  1.0121  0.0194 -1.4472
 3021TIP3    H230479   6.196   2.569  11.210  1.0366  2.1639 -3.8591
 3022TIP3   OH230480   4.558   6.349  13.078 -0.0119 -0.0517  0.2167
 3022TIP3    H130481   4.536   6.256  13.086  1.2681 -0.4175 -0.3936
 3022TIP3    H230482   4.547   6.383  13.167 -0.7344 -0.7323  0.3935
 3023TIP3   OH230483   0.414   6.603   0.725 -0.3920 -0.0290 -0.5991
 3023TIP3    H130484   0.498   6.644   0.704 -0.0696 -1.9411 -3.2806
 3023TIP3    H230485   0.349   6.661   0.685 -0.4138  1.6364  1.7729
 3024TIP3   OH230486   0.437   1.376  15.307 -0.4656  0.2321 -0.2073
 3024TIP3    H130487   0.495   1.343  15.239  0.2519  1.4022 -0.1710
 3024TIP3    H230488   0.365   1.312  15.309  0.5464 -0.9541 -0.5922
 3025TIP3   OH230489   5.889   5.910  11.984 -0.1251  0.4969 -0.2079
 3025TIP3    H130490   5.947   5.983  11.960  0.2358  0.3513  0.2116
 3025TIP3    H230491   5.874   5.864  11.901 -0.4664  1.1258 -0.4991
 3026TIP3   OH230492   3.630   4.550  15.122 -0.0004  0.7806  0.5016
 3026TIP3    H130493   3.682   4.598  15.058 -0.5112  2.2917  1.2142
 3026TIP3    H230494   3.624   4.462  15.085  1.7064  0.9982 -0.3606
 3027TIP3   OH230495   1.014   5.791   2.537  0.2654 -0.2238  0.7244
 3027TIP3    H130496   1.017   5.842   2.617 -0.2266  1.3925 -0.2614
 3027TIP3    H230497   0.954   5.839   2.480 -0.0423 -1.7892 -0.3110
 3028TIP3   OH230498   3.909   5.912   2.035 -0.1741 -0.3941 -0.1039
 3028TIP3    H130499   3.936   6.002   2.052 -0.7715 -0.5811  2.0285
 3028TIP3    H230500   3.969   5.881   1.968  1.9169  0.6661  1.2287
 3029TIP3   OH230501   5.192   1.168  15.811 -0.4524 -0.0365  0.4269
 3029TIP3    H130502   5.282   1.174  15.843 -0.7644  0.2429  1.2771
 3029TIP3    H230503   5.177   1.075  15.796  0.7805  0.1301 -2.1039
 3030TIP3   OH230504   3.221   0.554  13.836 -0.5279  0.1381  0.0237
 3030TIP3    H130505   3.231   0.638  13.883 -0.6727  0.4026 -0.4174
 3030TIP3    H230506   3.272   0.565  13.756 -0.8903 -0.0389 -0.2358
 3031TIP3   OH230507   4.049   3.854   4.647  0.6865 -0.2164 -0.1517
 3031TIP3    H130508   4.040   3.945   4.617  1.3974  0.5448  1.8606
 3031TIP3    H230509   4.130   3.824   4.606  1.1928  0.5248  0.2827
 3032TIP3   OH230510   5.240   3.394   0.016  0.6799 -0.4556 -0.2469
 3032TIP3    H130511   5.318   3.352  -0.022  0.6338  1.0767 -2.1095
 3032TIP3    H230512   5.273   3.441   0.093  1.2627 -1.3356  0.0502
 3033TIP3   OH230513   6.522   2.392   3.378  0.2051  0.5619  0.6082
 3033TIP3    H130514   6.590   2.378   3.443  0.7576  1.2632  0.1920
 3033TIP3    H230515   6.454   2.442   3.425  0.3944  0.6665  0.7716
 3034TIP3   OH230516   4.468   6.752   1.738  0.2500  0.5285  0.1920
 3034TIP3    H130517   4.483   6.721   1.827  1.8991  1.3001  0.1839
 3034TIP3    H230518   4.374   6.739   1.724  0.6919 -3.6310  0.4886
 3035TIP3   OH230519   6.130   2.608  14.126 -0.3296  0.7991 -0.1142
 3035TIP3    H130520   6.038   2.587  14.113 -0.0897 -0.4798  0.2329
 3035TIP3    H230521   6.133   2.704  14.123 -1.4432  0.8136 -1.6394
 3036TIP3   OH230522   1.669   1.453  16.447 -0.3298  0.1277  0.2220
 3036TIP3    H130523   1.738   1.409  16.496  0.8426  1.9279  0.2230
 3036TIP3    H230524   1.588   1.415  16.481  0.5538 -0.2728  1.9424
 3037TIP3   OH230525   3.943   3.539   3.821  0.1658 -0.0537  0.1143
 3037TIP3    H130526   4.010   3.515   3.758 -1.1508  0.1504 -1.3854
 3037TIP3    H230527   3.919   3.629   3.798  0.8393  0.6358  1.9524
 3038TIP3   OH230528   6.251   2.250   4.656 -0.1203 -0.0971  0.5981
 3038TIP3    H130529   6.344   2.227   4.646  0.4863  2.2632  0.4830
 3038TIP3    H230530   6.236   2.317   4.590 -1.9600 -0.5153  0.5601
 3039TIP3   OH230531   1.003   1.922  16.393  0.2371 -0.1672 -0.0739
 3039TIP3    H130532   1.043   1.842  16.358 -1.1736 -0.9483  0.0624
 3039TIP3    H230533   1.048   1.936  16.476  2.4463  0.7615 -1.3746
 3040TIP3   OH230534   0.928   5.493   0.977 -0.1645  0.0856  0.2267
 3040TIP3    H130535   0.875   5.560   1.020  0.9985  1.6659 -0.7414
 3040TIP3    H230536   1.012   5.535   0.961  0.1344 -1.1522 -1.6734
 3041TIP3   OH230537   6.114   5.701  11.035 -0.2805  0.0255 -0.0201
 3041TIP3    H130538   6.122   5.612  11.070  0.5337 -0.2273 -0.8433
 3041TIP3    H230539   6.022   5.708  11.011  0.0759 -1.3509 -1.9161
 3042TIP3   OH230540   3.573   0.312   4.217 -0.0650  0.0339 -0.3648
 3042TIP3    H130541   3.541   0.279   4.301 -1.2528 -0.8932 -1.1683
 3042TIP3    H230542   3.572   0.408   4.226 -2.4178  0.0090 -0.1168
 3043TIP3   OH230543   0.843   4.195  15.885  0.0556 -0.0329  0.7185
 3043TIP3    H130544   0.843   4.277  15.836 -2.1858 -0.7486 -0.5785
 3043TIP3    H230545   0.760   4.195  15.933  0.2574 -1.3021  1.0991
 3044TIP3   OH230546   6.726   6.047   2.978  0.4093 -0.2094 -0.3545
 3044TIP3    H130547   6.726   6.135   3.014 -0.4828 -1.3699  2.6822
 3044TIP3    H230548   6.664   5.998   3.033  0.9339 -2.7386 -1.9041
 3045TIP3   OH230549   6.126   1.700   0.831 -0.0584 -0.0128 -0.0446
 3045TIP3    H130550   6.047   1.650   0.810  0.5535 -1.3251  0.6961
 3045TIP3    H230551   6.104   1.747   0.911 -0.0146 -0.5612  0.2910
 3046TIP3   OH230552   6.345   4.996   5.065 -0.5214  0.0942  0.0135
 3046TIP3    H130553   6.404   5.033   4.999  0.0133 -1.3729 -0.3361
 3046TIP3    H230554   6.388   5.014   5.148 -0.1759  0.1100 -0.1677
 3047TIP3   OH230555   5.314   1.939   2.897 -0.0615 -0.1141  0.5191
 3047TIP3    H130556   5.257   2.004   2.939  0.6772  2.0904 -1.6876
 3047TIP3    H230557   5.254   1.886   2.843 -0.5953 -0.8868  1.8574
 3048TIP3   OH230558   3.463   1.697   5.881  0.0453 -0.3176 -0.4802
 3048TIP3    H130559   3.433   1.740   5.961  0.1782  0.0937 -0.6465
 3048TIP3    H230560   3.558   1.690   5.893 -0.2103 -2.4331  0.4412
 3049TIP3   OH230561   5.841   0.873  12.805 -0.0004 -0.6912  0.0321
 3049TIP3    H130562   5.845   0.963  12.771  1.1161  0.3853  2.8648
 3049TIP3    H230563   5.931   0.842  12.800  0.0624 -0.7355  1.4112
 3050TIP3   OH230564   0.702   6.519  11.939 -0.0010  0.1839  0.2852
 3050TIP3    H130565   0.725   6.557  12.024 -2.4784  1.8331  0.2623
 3050TIP3    H230566   0.667   6.593  11.889 -1.7970 -1.4665 -0.9440
 3051TIP3   OH230567   3.690   0.030   3.137  0.5326 -0.1064  0.1814
 3051TIP3    H130568   3.627   0.097   3.113  0.0694 -0.5199  0.2195
 3051TIP3    H230569   3.642  -0.028   3.197  1.0659 -0.2015  0.5286
 3052TIP3   OH230570   5.163   4.965  16.139  0.2044 -0.6807 -0.3432
 3052TIP3    H130571   5.119   4.881  16.125 -0.5117 -0.7221  2.0233
 3052TIP3    H230572   5.253   4.949  16.113 -0.1665 -1.8710 -0.9463
 3053TIP3   OH230573   1.590   6.283  16.440 -0.2944  0.0562  0.2755
 3053TIP3    H130574   1.561   6.194  16.458 -1.6404  0.4331  0.0230
 3053TIP3    H230575   1.615   6.283  16.347 -0.3747 -0.0402  0.2562
 3054TIP3   OH230576   4.573   4.281   5.113 -0.5765 -0.0771  0.1337
 3054TIP3    H130577   4.553   4.327   5.032  1.4720 -0.9886 -0.9162
 3054TIP3    H230578   4.652   4.323   5.146 -2.0740  1.1186  2.3489
 3055TIP3   OH230579   1.180   3.991  14.579 -0.0097 -0.5655  0.1450
 3055TIP3    H130580   1.118   4.061  14.598  2.0722  0.9216  1.6166
 3055TIP3    H230581   1.204   4.004  14.487 -0.7215 -0.2637 -0.0037
 3056TIP3   OH230582   5.987   4.168  11.824  0.0664 -0.6185  0.4271
 3056TIP3    H130583   6.032   4.093  11.863 -0.8260 -1.4169 -0.0901
 3056TIP3    H230584   6.057   4.220  11.785  0.8102 -0.5983  1.7568
 3057TIP3   OH230585   5.554   5.962  13.297  0.3363 -0.0894  0.3067
 3057TIP3    H130586   5.550   5.878  13.343  1.5381 -0.4500 -0.2391
 3057TIP3    H230587   5.645   5.970  13.270  0.7189  2.3176  2.1156
 3058TIP3   OH230588   0.097   6.114   5.987  0.1579  0.2309  0.4245
 3058TIP3    H130589   0.118   6.160   5.905  0.7560 -0.9701 -0.1149
 3058TIP3    H230590   0.003   6.098   5.982  0.6574 -2.5541 -1.5080
 3059TIP3   OH230591   4.611   1.514   5.124 -0.1319 -0.2652 -0.5899
 3059TIP3    H130592   4.655   1.588   5.081  0.7076 -0.1522  0.4544
 3059TIP3    H230593   4.681   1.464   5.165 -1.1843  2.7146  5.5154
 3060TIP3   OH230594   4.868   5.551  16.290  0.1057  0.0601  0.2718
 3060TIP3    H130595   4.779   5.554  16.254 -1.0622  0.5254  3.0543
 3060TIP3    H230596   4.892   5.643  16.303  1.0886 -0.0543 -0.6290
 3061TIP3   OH230597   0.110   5.936   5.739  0.1972  0.1177 -0.2661
 3061TIP3    H130598   0.117   6.032   5.744  0.8492  0.0032  1.1580
 3061TIP3    H230599   0.200   5.905   5.745 -0.0286 -0.6047 -0.5605
 3062TIP3   OH230600   4.025   6.580  10.650  0.0454  0.5117  0.0770
 3062TIP3    H130601   3.948   6.529  10.674 -0.4131  1.3113  0.3261
 3062TIP3    H230602   4.090   6.515  10.624 -0.8953 -0.1356 -0.6842
 3063TIP3   OH230603   6.122   5.272  16.400  0.2054 -0.3791  0.2523
 3063TIP3    H130604   6.033   5.309  16.405  0.3650  0.1791 -0.8211
 3063TIP3    H230605   6.110   5.188  16.355  0.7124  1.6471 -3.9915
 3064TIP3   OH230606   4.336   6.321   1.922 -0.1649 -0.5321 -0.0109
 3064TIP3    H130607   4.246   6.312   1.890 -0.2578  0.0171  0.0975
 3064TIP3    H230608   4.330   6.387   1.991  0.2337 -0.8726  0.3495
 3065TIP3   OH230609   4.688   3.180   4.533  0.2502 -0.6555  0.1547
 3065TIP3    H130610   4.730   3.157   4.450 -0.7921 -3.3746  0.3328
 3065TIP3    H230611   4.719   3.114   4.595  1.0747  1.3781  1.9912
 3066TIP3   OH230612   6.522   3.111   6.539 -0.3560 -0.0134  0.3210
 3066TIP3    H130613   6.616   3.125   6.540 -0.4575  0.6583  0.2390
 3066TIP3    H230614   6.512   3.017   6.519  0.2924 -0.1544  0.6624
 3067TIP3   OH230615   1.259   6.549  17.169 -0.7764 -0.1811 -0.1179
 3067TIP3    H130616   1.301   6.475  17.213  1.7902  1.9610  1.1851
 3067TIP3    H230617   1.206   6.591  17.236 -0.4570  0.4352 -0.2398
 3068TIP3   OH230618   5.106   1.330   5.228  0.5719  0.7477  0.4658
 3068TIP3    H130619   5.063   1.268   5.287 -0.0549  1.1041  0.3840
 3068TIP3    H230620   5.179   1.364   5.279  2.5491 -2.0449 -0.3935
 3069TIP3   OH230621   2.908   1.363  16.165  0.2250  0.0789  0.0600
 3069TIP3    H130622   2.964   1.291  16.195  0.3356  0.2528  0.2794
 3069TIP3    H230623   2.947   1.391  16.082 -0.1611 -0.4954 -0.3094
 3070TIP3   OH230624   0.094   3.030  12.468  0.2658 -0.1588  0.6233
 3070TIP3    H130625   0.079   3.097  12.400  2.2675 -0.4456 -0.1477
 3070TIP3    H230626   0.036   3.055  12.539 -0.5205  1.2348 -0.4725
 3071TIP3   OH230627   2.266   6.783   5.667  0.1414 -0.3775 -0.5829
 3071TIP3    H130628   2.208   6.710   5.642 -1.5971  0.6827  0.2275
 3071TIP3    H230629   2.331   6.743   5.724 -0.2299 -1.4731 -0.9022
 3072TIP3   OH230630   0.106   6.388   0.141  0.0111  0.1148  0.2759
 3072TIP3    H130631   0.150   6.303   0.135  1.2713  0.8549 -1.6927
 3072TIP3    H230632   0.175   6.449   0.166 -0.1732  1.0519 -1.4119
 3073TIP3   OH230633   5.852   4.920  12.836 -0.3496 -0.4930 -0.2398
 3073TIP3    H130634   5.834   4.850  12.898 -1.0948  1.8809  2.3251
 3073TIP3    H230635   5.945   4.912  12.816 -0.3442 -1.9166  0.3520
 3074TIP3   OH230636   5.114   4.882   1.650  0.3619 -0.8708  0.7767
 3074TIP3    H130637   5.193   4.861   1.602  0.3923 -1.1926  0.9686
 3074TIP3    H230638   5.054   4.810   1.632 -0.6570  0.3752 -1.0647
 3075TIP3   OH230639   3.126   3.708   1.496  0.0664 -0.3352 -0.7380
 3075TIP3    H130640   3.061   3.649   1.458  1.2231 -1.1987 -1.4114
 3075TIP3    H230641   3.145   3.771   1.426  0.1760 -0.2711 -0.6512
 3076TIP3   OH230642   6.678   2.229  11.057 -0.2849 -0.4615 -0.8010
 3076TIP3    H130643   6.675   2.220  11.152  0.7388 -0.0315 -0.7175
 3076TIP3    H230644   6.669   2.140  11.024  0.1671 -0.7009 -0.2762
 3077TIP3   OH230645   6.002   4.828   2.354 -0.7781 -0.6575 -0.4216
 3077TIP3    H130646   6.075   4.776   2.387 -0.8388 -0.0814  0.6353
 3077TIP3    H230647   5.945   4.841   2.430 -2.3844 -1.7785 -1.4202
 3078TIP3   OH230648   4.445   5.074  13.834 -0.3071  0.3562  0.7597
 3078TIP3    H130649   4.366   5.052  13.785  0.7219 -1.0722 -0.3080
 3078TIP3    H230650   4.475   5.157  13.796 -2.2062  1.8016  2.3316
 3079TIP3   OH230651   3.848   6.180  12.575  0.5064 -0.0936 -0.2993
 3079TIP3    H130652   3.865   6.130  12.655  1.0733 -1.3661 -1.1848
 3079TIP3    H230653   3.781   6.129  12.529  0.5485  0.3508 -0.8630
 3080TIP3   OH230654   1.824   0.114   5.459  0.2388 -0.0793  0.0370
 3080TIP3    H130655   1.743   0.087   5.502  0.7791  0.2290  1.2680
 3080TIP3    H230656   1.823   0.210   5.465  0.1775 -0.0247 -0.8866
 3081TIP3   OH230657   4.744   3.515  13.516  0.4582 -0.1389  0.4677
 3081TIP3    H130658   4.828   3.505  13.471  0.8067  2.0701  0.5817
 3081TIP3    H230659   4.764   3.566  13.594 -0.6748 -1.3216  1.5558
 3082TIP3   OH230660   3.776   4.311   2.291  0.2717  0.2177 -0.5623
 3082TIP3    H130661   3.727   4.336   2.213 -0.2727  0.5238 -0.1181
 3082TIP3    H230662   3.824   4.390   2.316 -0.2123  0.3648 -0.0929
 3083TIP3   OH230663   3.373   5.009   3.148 -0.0620 -0.1353 -0.0568
 3083TIP3    H130664   3.391   4.987   3.056 -0.2893 -0.2630 -0.0703
 3083TIP3    H230665   3.424   4.945   3.198 -0.5900 -0.5861 -0.0957
 3084TIP3   OH230666   5.938   0.456  12.947  0.1761 -0.1030 -0.0739
 3084TIP3    H130667   5.855   0.502  12.958  2.6026  4.3754  0.5979
 3084TIP3    H230668   5.946   0.442  12.853  0.1929  2.6014 -0.5134
 3085TIP3   OH230669   4.517   5.845  13.781  0.1496  0.5921 -0.3472
 3085TIP3    H130670   4.523   5.870  13.689  0.9759  3.0001  0.3087
 3085TIP3    H230671   4.425   5.856  13.804  0.0223  0.3997 -0.7790
 3086TIP3   OH230672   3.813   1.507   3.859 -0.0204 -0.3312 -0.1171
 3086TIP3    H130673   3.772   1.546   3.936 -0.2407 -2.0570  0.6487
 3086TIP3    H230674   3.747   1.513   3.790  0.4758  1.9973 -0.4555
 3087TIP3   OH230675   3.271   6.561  11.211 -0.1530  0.0514  0.3887
 3087TIP3    H130676   3.216   6.563  11.132  0.5431  2.1677 -0.0853
 3087TIP3    H230677   3.343   6.621  11.191  1.2953 -1.1978  1.7513
 3088TIP3   OH230678   2.268   1.872   0.730 -0.3768 -0.2884  0.1182
 3088TIP3    H130679   2.233   1.800   0.782  0.0040  0.2348  1.0969
 3088TIP3    H230680   2.344   1.903   0.779  0.7242 -0.5858 -1.3618
 3089TIP3   OH230681   4.681   5.191  15.585  0.0166 -0.6215 -0.6463
 3089TIP3    H130682   4.649   5.217  15.671  0.2571  0.6517 -0.9379
 3089TIP3    H230683   4.617   5.126  15.554  0.4292 -1.7878  0.8701
 3090TIP3   OH230684   3.358   2.321   3.818  0.1220  0.2187 -0.2371
 3090TIP3    H130685   3.314   2.308   3.902 -0.5869  1.9869 -0.3246
 3090TIP3    H230686   3.447   2.290   3.832  0.3768  1.7197  1.5601
 3091TIP3   OH230687   0.949   0.273   3.286 -0.1231 -0.0275  0.6917
 3091TIP3    H130688   0.864   0.230   3.299  0.4345 -1.6225 -0.8035
 3091TIP3    H230689   1.012   0.215   3.328  0.3062  0.9408  1.4263
 3092TIP3   OH230690   1.677   2.710   3.808 -0.1984  0.4101 -0.2668
 3092TIP3    H130691   1.718   2.736   3.726 -1.0636  2.1800 -0.1636
 3092TIP3    H230692   1.590   2.679   3.783 -0.2209  0.3295 -0.0889
 3093TIP3   OH230693   1.285   0.610   5.471  0.5656 -0.0441 -0.4912
 3093TIP3    H130694   1.210   0.667   5.487  0.0388 -1.0558  0.6297
 3093TIP3    H230695   1.247   0.530   5.434  0.7603 -1.7643  2.9225
 3094TIP3   OH230696   0.773   3.112  13.857  0.0664 -0.3922 -0.3986
 3094TIP3    H130697   0.839   3.105  13.927  1.1585  1.2710 -1.2282
 3094TIP3    H230698   0.780   3.030  13.810  1.1847 -0.4520 -0.1473
 3095TIP3   OH230699   4.738   0.594   2.434 -0.1486 -0.1749  0.4122
 3095TIP3    H130700   4.739   0.559   2.523 -0.2735 -1.4635 -0.0685
 3095TIP3    H230701   4.796   0.669   2.437 -1.8348  1.1106  2.0919
 3096TIP3   OH230702   3.856   0.194  14.915 -0.1460  0.0587 -0.2148
 3096TIP3    H130703   3.942   0.167  14.883 -0.8271 -0.9690 -1.2412
 3096TIP3    H230704   3.835   0.272  14.864  0.2076  0.3430  0.0784
 3097TIP3   OH230705   6.160   4.159   0.957 -0.2407 -0.0144 -0.5525
 3097TIP3    H130706   6.216   4.153   0.879  0.1750 -0.2624 -0.2329
 3097TIP3    H230707   6.138   4.069   0.978 -0.3339  0.0522 -0.3644
 3098TIP3   OH230708   4.534   6.437   0.356  0.1438  0.2291  0.1202
 3098TIP3    H130709   4.578   6.455   0.439  0.5590 -1.4558  0.2783
 3098TIP3    H230710   4.507   6.346   0.362  0.7250 -0.0927 -1.8444
 3099TIP3   OH230711   1.950   6.144  12.811 -0.3323  0.2682 -0.9182
 3099TIP3    H130712   1.901   6.198  12.748 -2.1237 -2.2955 -1.7862
 3099TIP3    H230713   1.894   6.068  12.826  1.2940 -0.4401  1.7569
 3100TIP3   OH230714   1.913   6.377   5.388 -0.6203 -0.3523 -0.0355
 3100TIP3    H130715   1.861   6.457   5.395 -0.9599 -0.4650 -1.1965
 3100TIP3    H230716   1.914   6.357   5.295  0.0258 -1.3353  0.1756
 3101TIP3   OH230717   5.630   4.706  11.193 -0.2294 -0.2550  0.1969
 3101TIP3    H130718   5.633   4.614  11.167 -0.5209  0.1016 -1.1537
 3101TIP3    H230719   5.715   4.721  11.235  0.2544 -0.8715 -0.5271
 3102TIP3   OH230720   6.463   4.861   4.035  0.0800  0.2525 -0.2253
 3102TIP3    H130721   6.473   4.943   3.986  1.0103  0.7108  0.7068
 3102TIP3    H230722   6.515   4.798   3.985  2.5103  1.1315  1.0842
 3103TIP3   OH230723   2.961   3.707   4.441 -0.2897 -0.2685  0.0210
 3103TIP3    H130724   2.962   3.619   4.403  1.6914 -0.3167  0.0942
 3103TIP3    H230725   3.007   3.761   4.378  2.0087 -0.1203  1.7311
 3104TIP3   OH230726   5.975   5.265  13.435  0.6858  0.5934 -0.0184
 3104TIP3    H130727   6.052   5.235  13.483 -0.4677 -3.3913 -0.4761
 3104TIP3    H230728   6.003   5.267  13.344  0.7149  0.8271 -0.0050
 3105TIP3   OH230729   2.762   3.984   2.586  0.1721  0.2679  0.1098
 3105TIP3    H130730   2.766   3.911   2.523  0.0646 -0.3639  0.8297
 3105TIP3    H230731   2.846   4.029   2.575  0.2542  0.0200 -0.3115
 3106TIP3   OH230732   0.130   4.563  11.904  0.1759 -0.5085 -0.2138
 3106TIP3    H130733   0.034   4.564  11.908  0.2558  0.7042  1.8555
 3106TIP3    H230734   0.159   4.568  11.995  2.2003  1.6781 -0.8981
 3107TIP3   OH230735   0.946   4.268  12.268  0.9401 -0.6748 -0.4178
 3107TIP3    H130736   0.918   4.319  12.192  2.4259  0.5875 -0.1489
 3107TIP3    H230737   0.900   4.306  12.342  2.2629  0.5106 -0.1750
 3108TIP3   OH230738   5.448   6.160  14.636 -0.5188 -0.4180  0.3232
 3108TIP3    H130739   5.505   6.227  14.673  0.5012 -1.9753  1.6723
 3108TIP3    H230740   5.472   6.155  14.544 -0.6121  1.0620  0.2128
 3109TIP3   OH230741   6.229   3.526   5.192 -0.1852  0.6329  0.0277
 3109TIP3    H130742   6.179   3.526   5.274  1.1832  1.5070  0.8968
 3109TIP3    H230743   6.207   3.443   5.150 -1.0584  0.2654  1.1915
 3110TIP3   OH230744   3.486   4.055  11.551 -0.0153  0.1454  0.0630
 3110TIP3    H130745   3.473   4.080  11.643  0.7062 -1.1564  0.5294
 3110TIP3    H230746   3.573   4.016  11.549  0.4325  1.1604 -1.4021
 3111TIP3   OH230747   1.814   2.053  11.338  0.4020 -0.0587  0.2024
 3111TIP3    H130748   1.834   1.983  11.399 -0.1889  0.4661  1.0030
 3111TIP3    H230749   1.832   2.134  11.387 -1.4024  0.3850  0.1600
 3112TIP3   OH230750   2.058   4.107  10.685  0.0090 -0.9362 -0.2057
 3112TIP3    H130751   2.064   4.148  10.772 -0.0669 -1.3632  0.0045
 3112TIP3    H230752   1.979   4.054  10.690 -0.6804  0.0093 -0.9605
 3113TIP3   OH230753   5.371   4.276  16.526  0.3310 -0.3329 -0.1495
 3113TIP3    H130754   5.292   4.267  16.580  0.5141 -1.0626  0.0063
 3113TIP3    H230755   5.440   4.235  16.578  0.6549 -0.3903 -0.6264
 3114TIP3   OH230756   4.483   5.167  11.151  0.3596  0.3145  0.2875
 3114TIP3    H130757   4.491   5.088  11.098  1.2024 -0.0349  0.9348
 3114TIP3    H230758   4.501   5.238  11.089  0.2536 -0.0269 -0.1404
 3115TIP3   OH230759   4.972   1.818   4.322 -0.2341  0.0347  0.6713
 3115TIP3    H130760   5.003   1.888   4.380  1.0814 -0.1256  0.1779
 3115TIP3    H230761   4.979   1.739   4.376 -0.3370  0.0807  0.7528
 3116TIP3   OH230762   6.786   2.917  12.904 -0.5234  0.2524  0.1111
 3116TIP3    H130763   6.773   2.999  12.951  0.3234  0.3644  0.1583
 3116TIP3    H230764   6.867   2.931  12.854 -0.8161 -0.2601 -0.5156
 3117TIP3   OH230765   0.386   1.965   1.231  0.2076 -0.1681 -0.3993
 3117TIP3    H130766   0.426   1.999   1.312 -0.5118 -0.1526 -0.0381
 3117TIP3    H230767   0.407   1.872   1.231 -0.2598 -0.2796  0.1005
 3118TIP3   OH230768   2.617   1.048  12.562  0.3317 -0.4480 -0.1272
 3118TIP3    H130769   2.561   0.976  12.532 -0.7549  0.2350  0.2285
 3118TIP3    H230770   2.615   1.042  12.658 -0.8746  0.8647 -0.0496
 3119TIP3   OH230771   2.039   0.723  14.489  0.3168 -0.1999  0.0651
 3119TIP3    H130772   1.984   0.718  14.567  0.5402  0.3731  0.2676
 3119TIP3    H230773   2.113   0.778  14.516  0.2676  0.2113 -0.6228
 3120TIP3   OH230774   2.345   0.442   1.489 -0.0198 -0.7213  0.0049
 3120TIP3    H130775   2.355   0.506   1.560  1.8818 -1.1148  0.1085
 3120TIP3    H230776   2.433   0.433   1.452 -0.5687 -2.1776 -0.9857
 3121TIP3   OH230777   1.731   1.051   4.200 -0.1927  0.0378 -0.3549
 3121TIP3    H130778   1.818   1.036   4.237 -1.4786  0.1186  2.8868
 3121TIP3    H230779   1.738   1.021   4.109  3.0604 -0.4017 -0.0259
 3122TIP3   OH230780   5.821   5.255   1.767  0.0356 -0.7407 -0.2412
 3122TIP3    H130781   5.807   5.293   1.854  1.4284 -1.5073  0.3355
 3122TIP3    H230782   5.855   5.167   1.784 -2.1894 -1.8992 -1.5678
 3123TIP3   OH230783   2.441   4.446  15.766 -0.1660  0.5595 -0.4649
 3123TIP3    H130784   2.443   4.460  15.861  0.5611  0.2491 -0.4365
 3123TIP3    H230785   2.377   4.510  15.734 -0.4715  0.6105  0.2428
 3124TIP3   OH230786   0.650   1.467   4.616 -0.3438 -0.4553 -0.3201
 3124TIP3    H130787   0.618   1.483   4.705 -2.6054 -1.3493 -0.9292
 3124TIP3    H230788   0.718   1.533   4.603 -2.1184  1.7238  0.9718
 3125TIP3   OH230789   0.640   0.712  10.377  0.5031 -0.3912 -0.1498
 3125TIP3    H130790   0.598   0.629  10.399  2.1458 -1.5903 -1.4142
 3125TIP3    H230791   0.601   0.776  10.437 -3.5510 -1.2957 -1.6476
 3126TIP3   OH230792   2.118   1.165   0.294  0.9277 -0.4982 -0.0238
 3126TIP3    H130793   2.088   1.079   0.326  1.0564 -1.5259 -2.5866
 3126TIP3    H230794   2.043   1.222   0.307 -0.3525 -1.8132 -1.4183
 3127TIP3   OH230795   2.600   5.877   0.504  0.4044  0.2097 -0.4565
 3127TIP3    H130796   2.531   5.903   0.441 -0.6496 -0.2256  0.4980
 3127TIP3    H230797   2.579   5.925   0.583  1.1988  0.0477 -0.1502
 3128TIP3   OH230798   6.023   0.900   0.670  0.2282  0.1351 -0.3394
 3128TIP3    H130799   6.083   0.973   0.656  0.9737 -0.4450 -0.2039
 3128TIP3    H230800   6.073   0.822   0.645 -0.6474 -0.3101 -0.7348
 3129TIP3   OH230801   4.690   4.801   6.005 -0.5243  0.2386 -0.0729
 3129TIP3    H130802   4.600   4.831   6.012 -1.3025 -2.0264 -0.0802
 3129TIP3    H230803   4.693   4.720   6.058  1.0567 -0.6200 -1.4314
 3130TIP3   OH230804   4.709   1.937   2.882 -0.2146  0.3541  0.4594
 3130TIP3    H130805   4.789   1.892   2.910 -0.9198 -0.6328  0.9533
 3130TIP3    H230806   4.714   1.937   2.786 -0.1332 -0.6898  0.4484
 3131TIP3   OH230807   3.121   3.854   3.790 -0.1719 -0.1605 -0.4348
 3131TIP3    H130808   3.181   3.928   3.790 -0.0945 -0.2175 -1.3545
 3131TIP3    H230809   3.055   3.877   3.855  0.5466  0.1416  0.1971
 3132TIP3   OH230810   5.225   1.437   2.700 -0.3204  0.0472 -0.7475
 3132TIP3    H130811   5.237   1.464   2.609 -0.5106 -1.2688 -1.1785
 3132TIP3    H230812   5.210   1.342   2.695  2.0202 -0.4581  0.8368
 3133TIP3   OH230813   2.486   0.066   6.295 -0.6122  0.5062 -0.5166
 3133TIP3    H130814   2.442   0.077   6.211 -1.1180 -1.4995 -0.5417
 3133TIP3    H230815   2.433   0.000   6.341  0.3464  0.6929  0.8778
 3134TIP3   OH230816   4.113   4.748  15.191  0.1778 -0.2996 -0.1230
 3134TIP3    H130817   4.131   4.821  15.131  0.3211 -1.0150 -0.9631
 3134TIP3    H230818   4.174   4.680  15.164 -0.8728 -1.2050 -0.2179
 3135TIP3   OH230819   0.976   0.952   2.330 -0.1798  0.3105 -0.1673
 3135TIP3    H130820   0.919   0.976   2.403 -0.5388 -0.7773 -0.0695
 3135TIP3    H230821   1.036   0.887   2.368  0.2176  0.4093 -0.6210
 3136TIP3   OH230822   4.709   3.854  15.761 -0.1728  0.2882 -0.0404
 3136TIP3    H130823   4.682   3.781  15.817 -0.7026  0.2646 -0.3219
 3136TIP3    H230824   4.799   3.833  15.735 -0.0091  0.1865  0.6115
 3137TIP3   OH230825   2.704   0.931   6.030 -0.1825 -0.4989 -0.4604
 3137TIP3    H130826   2.664   0.845   6.047  0.0557 -0.6251 -0.5373
 3137TIP3    H230827   2.647   0.970   5.964 -0.7527 -0.2640  0.1659
 3138TIP3   OH230828   6.651   3.621   4.438 -0.3708 -0.0409  0.0570
 3138TIP3    H130829   6.614   3.709   4.438  0.3499  0.2669  0.7111
 3138TIP3    H230830   6.592   3.570   4.382  0.4282  1.3608 -2.1095
 3139TIP3   OH230831   4.153   0.563   1.700 -0.8098 -0.0709  0.3412
 3139TIP3    H130832   4.094   0.636   1.681 -0.0271  0.4458 -0.1401
 3139TIP3    H230833   4.141   0.502   1.627 -2.8407 -1.3296  1.6776
 3140TIP3   OH230834   4.877   5.835  15.566  0.5525 -0.0543  0.5789
 3140TIP3    H130835   4.940   5.897  15.602  1.9323 -1.0561 -0.0600
 3140TIP3    H230836   4.881   5.848  15.472 -0.5163  0.1589  0.5540
 3141TIP3   OH230837   0.166   1.723   1.229 -0.0791 -0.2231  0.1460
 3141TIP3    H130838   0.240   1.703   1.171  0.6598 -0.9529  1.3269
 3141TIP3    H230839   0.174   1.660   1.300 -0.3831  1.3424  1.5860
 3142TIP3   OH230840   0.720   2.998  14.622  0.4783  0.1519 -0.1930
 3142TIP3    H130841   0.778   3.012  14.547 -0.6628  0.3103 -1.0582
 3142TIP3    H230842   0.716   2.903  14.632  0.9800  0.1444 -0.0567
 3143TIP3   OH230843   1.582   1.546  14.983 -0.1287  0.3285  0.6908
 3143TIP3    H130844   1.535   1.612  14.932  0.9006  1.5068  1.2537
 3143TIP3    H230845   1.613   1.483  14.917 -0.0204  1.0855  0.0164
 3144TIP3   OH230846   1.661   3.201   1.794 -0.1821 -0.1011  0.7637
 3144TIP3    H130847   1.569   3.193   1.768 -0.1307  1.7726 -0.0887
 3144TIP3    H230848   1.673   3.135   1.862 -2.1782 -0.3236  0.9162
 3145TIP3   OH230849   4.349   2.934  13.669 -0.1535 -0.2707 -0.6109
 3145TIP3    H130850   4.338   3.016  13.620  0.5236 -0.0966 -0.4861
 3145TIP3    H230851   4.282   2.876  13.634 -0.2170  0.1280 -1.1686
 3146TIP3   OH230852   6.376   4.344   1.796 -0.3022  0.0561 -0.0517
 3146TIP3    H130853   6.456   4.294   1.814  0.7569  0.5308 -3.0701
 3146TIP3    H230854   6.369   4.406   1.869  1.1350 -1.1180  1.1124
 3147TIP3   OH230855   0.703   5.461   0.100 -0.0282 -0.1335  0.4005
 3147TIP3    H130856   0.650   5.532   0.063  1.6659  0.5331 -0.8305
 3147TIP3    H230857   0.661   5.381   0.067 -0.6014  0.3628 -0.1039
 3148TIP3   OH230858   2.459   1.812   6.918 -0.4735  0.1751 -0.0800
 3148TIP3    H130859   2.498   1.785   6.834  0.2392 -0.0890  0.3275
 3148TIP3    H230860   2.511   1.888   6.944 -1.0378  0.5835 -0.1285
 3149TIP3   OH230861   5.012   1.405  13.977 -0.3529  0.6210 -0.1739
 3149TIP3    H130862   5.007   1.500  13.974  0.5630  0.6849  0.2653
 3149TIP3    H230863   4.926   1.375  13.945 -1.2028  1.5915  1.1984
 3150TIP3   OH230864   1.375   3.873   3.151 -0.8261  0.3857  0.0480
 3150TIP3    H130865   1.458   3.832   3.176 -1.1209 -0.4377 -0.3078
 3150TIP3    H230866   1.392   3.967   3.158  0.2803  0.2367 -0.4857
 3151TIP3   OH230867   4.542   0.362  12.767  0.4477  0.4961 -0.5534
 3151TIP3    H130868   4.462   0.312  12.757  0.7163  0.0683 -0.5543
 3151TIP3    H230869   4.606   0.316  12.712  0.5687  1.1030 -0.9276
 3152TIP3   OH230870   5.254   0.079  14.892 -0.1093 -0.3964 -0.2528
 3152TIP3    H130871   5.273   0.085  14.799  0.2723 -0.6456 -0.1918
 3152TIP3    H230872   5.301   0.153  14.931  2.7403 -2.3688  0.2047
 3153TIP3   OH230873   1.202   3.577   5.118 -0.2367  0.1004  0.1151
 3153TIP3    H130874   1.143   3.560   5.044 -0.3288  1.2006 -0.0720
 3153TIP3    H230875   1.146   3.618   5.184  0.0035 -0.2086  0.5030
 3154TIP3   OH230876   2.543   2.182  15.010  0.1292  0.0343 -0.4885
 3154TIP3    H130877   2.545   2.228  15.094 -0.5207 -0.7496 -0.0429
 3154TIP3    H230878   2.499   2.100  15.029 -0.2031 -0.0544 -1.6481
 3155TIP3   OH230879   4.396   5.200   4.823 -0.6160 -0.3172  0.1324
 3155TIP3    H130880   4.401   5.280   4.876 -0.3509 -1.6881  2.2308
 3155TIP3    H230881   4.315   5.158   4.851 -0.3144 -1.2163 -0.3436
 3156TIP3   OH230882   4.615   6.396  15.124  0.2642 -0.6082  0.3859
 3156TIP3    H130883   4.653   6.484  15.118  0.7146 -0.9177 -1.5668
 3156TIP3    H230884   4.570   6.383  15.041  0.9937 -2.5817  0.2578
 3157TIP3   OH230885   2.924   3.112   5.380  0.3410 -0.0080 -0.0629
 3157TIP3    H130886   2.841   3.145   5.416  0.2229  0.7493 -1.0131
 3157TIP3    H230887   2.905   3.094   5.288  0.7019 -1.7374  0.1877
 3158TIP3   OH230888   5.500   3.253   2.914  0.3752  0.1228  0.6089
 3158TIP3    H130889   5.510   3.160   2.936  1.2030  0.1676  0.4128
 3158TIP3    H230890   5.494   3.297   2.999 -1.6947 -0.2783  0.7058
 3159TIP3   OH230891   5.086   1.013  12.159 -0.5083  0.9245  0.2803
 3159TIP3    H130892   5.107   1.064  12.238  1.6411  0.2184  0.1920
 3159TIP3    H230893   5.136   0.933  12.168 -0.0844  0.9132 -1.9098
 3160TIP3   OH230894   3.586   4.881  14.067  0.0068 -0.0983  0.9925
 3160TIP3    H130895   3.611   4.826  13.993 -0.4126 -0.6353  1.2529
 3160TIP3    H230896   3.667   4.894  14.116 -0.4465 -2.9087  2.5543
 3161TIP3   OH230897   1.411   3.256   1.712 -0.5109 -0.4692  0.0287
 3161TIP3    H130898   1.395   3.347   1.736 -1.1853 -0.4103 -0.6143
 3161TIP3    H230899   1.328   3.212   1.732 -0.6212 -0.6820 -0.8939
 3162TIP3   OH230900   0.255   3.311  13.218  0.0725  0.1479  0.5146
 3162TIP3    H130901   0.343   3.299  13.254  0.5311 -2.4066 -1.3024
 3162TIP3    H230902   0.201   3.251  13.270 -0.1731  0.0105  0.0947
 3163TIP3   OH230903   1.701   5.675   6.264 -0.0240 -0.3971 -0.2516
 3163TIP3    H130904   1.663   5.758   6.295  0.0371 -0.4112 -0.1338
 3163TIP3    H230905   1.778   5.701   6.214  1.3488 -0.4727  1.7544
 3164TIP3   OH230906   6.423   3.867  14.902  0.0359 -0.6428 -0.3667
 3164TIP3    H130907   6.369   3.946  14.906 -1.3135 -1.5931  0.6521
 3164TIP3    H230908   6.364   3.796  14.926  1.6029 -1.7901  0.2042
 3165TIP3   OH230909   0.677   4.419   2.537  0.0998 -0.8097  0.0612
 3165TIP3    H130910   0.678   4.339   2.486 -1.9794 -1.9891  1.7736
 3165TIP3    H230911   0.616   4.401   2.609  0.0888  2.0707  0.8448
 3166TIP3   OH230912   6.041   5.546   2.562 -0.4775  0.0740 -0.1539
 3166TIP3    H130913   6.023   5.454   2.542 -1.3768  0.8764 -3.2160
 3166TIP3    H230914   5.961   5.577   2.604  0.0859 -0.6786  1.5444
 3167TIP3   OH230915   6.053   3.863   6.455  0.2412 -0.1171 -0.1503
 3167TIP3    H130916   6.122   3.824   6.401  1.6275  1.0382  0.7648
 3167TIP3    H230917   5.977   3.808   6.439  1.8725 -2.6113  0.3121
 3168TIP3   OH230918   6.429   5.625   6.430  0.0242 -0.7628 -0.4772
 3168TIP3    H130919   6.357   5.591   6.377  1.2543 -0.8722 -2.1297
 3168TIP3    H230920   6.454   5.706   6.386 -0.8617  0.7012  1.6604
 3169TIP3   OH230921   0.408   3.766   1.648 -0.1944 -0.2642  0.1026
 3169TIP3    H130922   0.383   3.761   1.741 -0.0005 -0.9653  0.1143
 3169TIP3    H230923   0.439   3.856   1.637 -0.5363 -0.0785  0.6395
 3170TIP3   OH230924   4.612   6.102   3.597 -0.0608 -1.1269  0.2025
 3170TIP3    H130925   4.574   6.147   3.673 -2.3590 -2.2248 -0.2681
 3170TIP3    H230926   4.705   6.124   3.601 -0.2591 -0.5689  2.9315
 3171TIP3   OH230927   6.344   2.444   0.219  0.1049  0.3145  0.4317
 3171TIP3    H130928   6.384   2.525   0.187  0.3490  0.0218 -0.0048
 3171TIP3    H230929   6.414   2.379   0.214 -1.1436 -0.8635 -2.9743
 3172TIP3   OH230930   0.508   3.078   1.707  0.0400  0.7583 -0.5126
 3172TIP3    H130931   0.544   2.991   1.727  0.3790  1.4182  1.8491
 3172TIP3    H230932   0.584   3.135   1.698 -0.2103  0.9704 -1.3200
 3173TIP3   OH230933   2.031   3.772  12.703 -0.2210 -0.2317  0.7849
 3173TIP3    H130934   2.047   3.844  12.642 -1.1007 -0.9046 -0.2543
 3173TIP3    H230935   1.938   3.779  12.725 -0.1829 -0.7155  1.1170
 3174TIP3   OH230936   2.507   6.011  12.863  0.3260  0.3786  0.3560
 3174TIP3    H130937   2.466   6.083  12.912 -0.5620 -0.3382  0.6793
 3174TIP3    H230938   2.595   6.004  12.901  0.4528  1.3551  0.2574
 3175TIP3   OH230939   6.564   1.480   2.124  0.1858  0.3291 -0.0822
 3175TIP3    H130940   6.597   1.550   2.181  0.8901 -0.9490  1.1066
 3175TIP3    H230941   6.522   1.418   2.184 -0.1456 -0.4267 -1.0832
 3176TIP3   OH230942   1.378   0.989  14.378 -0.0756  0.4379  0.0213
 3176TIP3    H130943   1.445   1.044  14.419  1.7287  0.0360 -2.2719
 3176TIP3    H230944   1.374   1.020  14.288 -1.4570 -1.0066 -0.4348
 3177TIP3   OH230945   4.981   0.629   6.782  0.0487 -0.4380 -0.5947
 3177TIP3    H130946   5.018   0.558   6.730 -1.6129 -0.7700 -1.3771
 3177TIP3    H230947   4.979   0.704   6.723  1.4480  0.1608  0.1119
 3178TIP3   OH230948   5.018   6.749  15.914  0.2181 -0.4476  0.1568
 3178TIP3    H130949   5.089   6.698  15.876  0.1634 -0.5800  0.2334
 3178TIP3    H230950   4.949   6.748  15.848  0.2329 -0.4398  0.1413
 3179TIP3   OH230951   0.076   2.319  15.365 -0.8218 -1.1046  0.4752
 3179TIP3    H130952   0.153   2.284  15.320 -0.6856  2.7661 -2.6089
 3179TIP3    H230953   0.002   2.273  15.324 -0.4266 -0.7612 -0.6630
 3180TIP3   OH230954   5.082   1.713  11.682  0.5458  0.8568  0.2115
 3180TIP3    H130955   4.990   1.734  11.665  1.1651  2.7629 -0.9202
 3180TIP3    H230956   5.079   1.626  11.722 -1.6802  0.4808 -0.6715
 3181TIP3   OH230957   1.367   6.399  13.246  0.2978  0.5419  0.0471
 3181TIP3    H130958   1.389   6.489  13.268 -1.4936  1.3037 -1.0703
 3181TIP3    H230959   1.321   6.406  13.162  0.6421 -1.4763 -0.3451
 3182TIP3   OH230960   1.698   2.454   0.881 -0.4921 -0.1189 -0.7790
 3182TIP3    H130961   1.662   2.402   0.953  0.1308  1.3395  0.6292
 3182TIP3    H230962   1.621   2.490   0.837 -0.8549  1.3873  1.0083
 3183TIP3   OH230963   1.209   6.779   2.585  0.0590 -0.1071 -0.6895
 3183TIP3    H130964   1.156   6.714   2.631  0.4016 -0.5575 -0.9174
 3183TIP3    H230965   1.153   6.809   2.514 -0.8543  1.3450  0.6094
 3184TIP3   OH230966   6.164   3.236   2.644  0.4558 -0.2350  0.1819
 3184TIP3    H130967   6.195   3.279   2.564  1.1199  2.1514  1.6574
 3184TIP3    H230968   6.243   3.196   2.681  0.9285  1.8955  1.5549
 3185TIP3   OH230969   3.196   1.914   2.757 -0.0392  0.1366  0.1214
 3185TIP3    H130970   3.222   1.953   2.841  0.2063  2.2980 -0.9364
 3185TIP3    H230971   3.241   1.829   2.756 -0.5726 -0.2239  2.4563
 3186TIP3   OH230972   2.015   5.706   0.328  0.5383 -0.5126 -0.3604
 3186TIP3    H130973   1.925   5.686   0.354  0.1330  1.2481 -0.3379
 3186TIP3    H230974   2.070   5.664   0.394 -0.3900  1.8681  2.0169
 3187TIP3   OH230975   5.796   4.002  12.116 -0.2158 -0.0986  0.5634
 3187TIP3    H130976   5.892   3.999  12.122 -0.2508 -0.0082  1.2443
 3187TIP3    H230977   5.770   4.058  12.189 -0.7275  0.7312 -0.2464
 3188TIP3   OH230978   0.342   4.245  14.516 -0.6113  0.5597 -0.2821
 3188TIP3    H130979   0.272   4.278  14.461 -1.0320 -0.2246 -0.2333
 3188TIP3    H230980   0.328   4.150  14.519 -0.7811  0.6123  1.4191
 3189TIP3   OH230981   6.584   6.051  11.058  0.0297 -0.0762 -0.2866
 3189TIP3    H130982   6.634   5.982  11.102 -1.3283 -0.5348  0.5755
 3189TIP3    H230983   6.644   6.085  10.991  1.4676 -0.6514  0.6711
 3190TIP3   OH230984   1.524   6.185  14.687 -0.0939 -0.0180 -0.0215
 3190TIP3    H130985   1.549   6.224  14.604  0.4493  0.7843  0.5186
 3190TIP3    H230986   1.602   6.137  14.716 -0.7091 -1.4163 -0.6148
 3191TIP3   OH230987   5.163   1.388   3.583  0.9846 -0.0853  0.8193
 3191TIP3    H130988   5.246   1.379   3.536  0.8210  0.1494  0.4751
 3191TIP3    H230989   5.101   1.415   3.515  0.3201 -1.5973  0.8109
 3192TIP3   OH230990   4.529   1.073   2.764 -0.4471 -0.0181 -0.1897
 3192TIP3    H130991   4.494   0.983   2.771 -1.6541  0.2936 -1.9463
 3192TIP3    H230992   4.521   1.095   2.672  2.4706  0.9019 -0.2568
 3193TIP3   OH230993   5.870   1.813   5.096  0.4167 -0.0313  0.0461
 3193TIP3    H130994   5.917   1.864   5.162 -1.6317  2.3478 -0.2801
 3193TIP3    H230995   5.930   1.810   5.021  1.3998  0.1092  0.8191
 3194TIP3   OH230996   1.610   6.218   2.000 -0.0988 -0.1123 -0.1026
 3194TIP3    H130997   1.683   6.158   1.985 -1.1434 -1.8068  1.4157
 3194TIP3    H230998   1.638   6.273   2.073 -0.0143 -0.2241 -0.0511
 3195TIP3   OH230999   6.081   4.873   1.572 -0.0271 -0.1548  0.1041
 3195TIP3    H131000   5.991   4.840   1.571  0.6032 -1.8906 -0.1688
 3195TIP3    H231001   6.126   4.819   1.636  0.4844  1.6802  1.3356
 3196TIP3   OH231002   5.081   5.005   2.302  0.3998  0.0865  0.7179
 3196TIP3    H131003   5.049   5.070   2.239 -0.4878  0.9713  2.0532
 3196TIP3    H231004   5.176   5.010   2.295  0.3114 -0.1775 -0.8880
 3197TIP3   OH231005   4.717   0.828  15.157  0.5463  0.3349 -0.3087
 3197TIP3    H131006   4.779   0.898  15.134 -1.3214  1.8368 -0.8877
 3197TIP3    H231007   4.744   0.754  15.103  0.6360  1.6027 -2.0780
 3198TIP3   OH231008   2.891   2.612  16.996 -0.3467  0.8864  0.0478
 3198TIP3    H131009   2.870   2.546  16.930 -0.7764  0.4887  0.5819
 3198TIP3    H231010   2.820   2.607  17.059  1.1688 -0.2345  1.6918
 3199TIP3   OH231011   6.732   1.388   3.325 -0.0258 -0.0297  0.2420
 3199TIP3    H131012   6.809   1.434   3.292 -0.1538  0.9836  1.3538
 3199TIP3    H231013   6.710   1.432   3.407 -0.7587 -1.4218  0.8101
 3200TIP3   OH231014   1.107   4.655  12.454  0.1300  0.1523 -0.4693
 3200TIP3    H131015   1.089   4.621  12.541  0.3111  0.9179 -0.1247
 3200TIP3    H231016   1.190   4.614  12.428  1.4274  1.8793  0.7958
 3201TIP3   OH231017   2.141   2.935  16.558  0.1911  0.8928  0.3177
 3201TIP3    H131018   2.160   3.027  16.538  1.3168  0.9988  1.7298
 3201TIP3    H231019   2.225   2.891  16.546 -0.3502  0.0306 -0.3638
 3202TIP3   OH231020   0.273   0.148  13.278 -0.1004  0.4600  0.0544
 3202TIP3    H131021   0.272   0.056  13.252 -0.3020  0.1138  1.2523
 3202TIP3    H231022   0.354   0.183  13.240  0.1948 -0.3225 -0.0392
 3203TIP3   OH231023   0.189   5.955  15.745 -0.1116  0.2932  0.1587
 3203TIP3    H131024   0.149   5.873  15.774 -0.9754  0.8948  0.6975
 3203TIP3    H231025   0.282   5.946  15.767 -0.7117  0.6671  2.9738
 3204TIP3   OH231026   2.072   6.414  12.880  0.1556 -0.8500  0.2075
 3204TIP3    H131027   2.004   6.457  12.828  0.4087 -1.5703 -0.7263
 3204TIP3    H231028   2.062   6.321  12.861  0.3673 -1.1154  1.3199
 3205TIP3   OH231029   4.839   5.375  11.136 -0.2731  0.2556 -0.6635
 3205TIP3    H131030   4.833   5.338  11.225  2.5716  0.0669 -0.4923
 3205TIP3    H231031   4.755   5.419  11.123 -0.3574  1.2271  2.5580
 3206TIP3   OH231032   3.092   3.800  16.723  0.0501  0.4007 -0.0538
 3206TIP3    H131033   3.171   3.756  16.692 -0.9398 -1.6582  0.2914
 3206TIP3    H231034   3.110   3.893  16.710  1.8184 -0.1374 -1.6446
 3207TIP3   OH231035   6.716   0.811   5.402 -0.2481 -0.0714  0.4663
 3207TIP3    H131036   6.719   0.743   5.469  1.9022 -0.8603 -0.3841
 3207TIP3    H231037   6.681   0.766   5.324  1.0698 -0.1981 -0.0641
 3208TIP3   OH231038   5.845   5.768   5.672 -0.0631 -0.2820  0.4190
 3208TIP3    H131039   5.919   5.709   5.660  0.2791  0.4159 -0.9509
 3208TIP3    H231040   5.828   5.805   5.585  0.1293  2.1247  1.3514
 3209TIP3   OH231041   2.059   3.988  11.982  0.0870  0.1760 -0.0603
 3209TIP3    H131042   2.154   3.992  11.973 -0.0424 -0.7397 -1.9970
 3209TIP3    H231043   2.025   4.023  11.900 -1.2734  1.3921  0.9935
 3210TIP3   OH231044   1.990   2.193  12.434 -0.7794  0.8054  0.1776
 3210TIP3    H131045   2.062   2.186  12.496 -0.3807  0.3279 -0.3318
 3210TIP3    H231046   1.911   2.189  12.488 -0.4236  1.5330  0.7545
 3211TIP3   OH231047   3.342   3.610  15.181  0.1915 -0.2824  0.2104
 3211TIP3    H131048   3.436   3.622  15.197  0.5862 -2.3540 -0.3880
 3211TIP3    H231049   3.321   3.678  15.117  1.8543 -1.2805 -1.4733
 3212TIP3   OH231050   6.101   3.419   6.138 -0.0672  0.4010  0.4293
 3212TIP3    H131051   6.077   3.383   6.052 -0.5722 -1.0179  1.1364
 3212TIP3    H231052   6.130   3.508   6.120  1.4287 -0.4269 -1.4341
 3213TIP3   OH231053   5.248   0.974  11.542 -0.3886  0.1897 -0.4110
 3213TIP3    H131054   5.259   1.021  11.625  4.5515  0.7059 -1.1659
 3213TIP3    H231055   5.245   1.043  11.476 -0.2310 -0.3344 -0.9682
 3214TIP3   OH231056   0.390   4.180  15.034 -0.5072  0.0627 -0.0026
 3214TIP3    H131057   0.360   4.199  14.945 -0.9805  0.1345  0.1713
 3214TIP3    H231058   0.461   4.241  15.049 -0.8756  0.5159 -0.0874
 3215TIP3   OH231059   3.700   4.999   4.944  0.2288  0.3629 -0.4214
 3215TIP3    H131060   3.700   4.903   4.936  0.7065  0.2609  0.7991
 3215TIP3    H231061   3.611   5.024   4.920  0.3038 -0.3172 -1.4832
 3216TIP3   OH231062   6.686   4.031  14.661 -0.2608  0.0883 -0.0043
 3216TIP3    H131063   6.779   4.044  14.680  0.0076  0.6568 -1.6121
 3216TIP3    H231064   6.646   4.115  14.683  0.3869  1.4899 -3.8311
 3217TIP3   OH231065   3.051   4.633   1.010 -0.0876  0.0719 -0.4371
 3217TIP3    H131066   2.984   4.565   1.012 -0.4265  0.3804 -1.2180
 3217TIP3    H231067   3.132   4.585   0.990 -0.2677 -0.1537 -0.6358
 3218TIP3   OH231068   4.508   3.949   3.781  0.0973 -0.4049 -0.1458
 3218TIP3    H131069   4.421   3.986   3.771 -0.3820 -0.7632  2.4183
 3218TIP3    H231070   4.495   3.855   3.768  0.1241 -0.4544  0.2003
 3219TIP3   OH231071   4.276   2.290  12.699  0.2557  0.2205  0.3220
 3219TIP3    H131072   4.252   2.210  12.652 -0.6872 -0.0296  1.2079
 3219TIP3    H231073   4.195   2.342  12.701  0.4241  0.4643  1.1720
 3220TIP3   OH231074   0.015   3.092  16.923 -0.3214 -0.2342  0.4857
 3220TIP3    H131075  -0.070   3.053  16.903 -0.5946  0.1796  0.8328
 3220TIP3    H231076  -0.006   3.175  16.966  0.2463  0.8755 -1.3225
 3221TIP3   OH231077   5.730   1.896  15.008  0.1313 -0.8806  0.3015
 3221TIP3    H131078   5.817   1.893  15.047 -0.4099 -1.2292  1.4893
 3221TIP3    H231079   5.674   1.934  15.075 -0.5350 -0.1265 -0.6617
 3222TIP3   OH231080   4.836   2.389  15.204 -0.3539  0.1606 -0.5515
 3222TIP3    H131081   4.857   2.451  15.273 -1.5185 -1.5542  1.4057
 3222TIP3    H231082   4.764   2.430  15.156 -0.4646  0.7500  0.1116
 3223TIP3   OH231083   2.536   3.443   3.875 -0.1406 -0.1716 -0.6836
 3223TIP3    H131084   2.494   3.474   3.956  0.8100  4.0265 -1.6645
 3223TIP3    H231085   2.617   3.402   3.905  0.1404  1.2297  0.5155
 3224TIP3   OH231086   0.216   5.049  16.271  0.5425  0.0676  0.8390
 3224TIP3    H131087   0.249   4.959  16.265  0.0413 -0.1429  1.2289
 3224TIP3    H231088   0.163   5.050  16.350 -0.0787  0.5064  0.4273
 3225TIP3   OH231089   0.475   2.861  11.274 -0.3254  0.1872 -0.5235
 3225TIP3    H131090   0.446   2.949  11.296 -0.1905 -0.1983  1.3087
 3225TIP3    H231091   0.560   2.852  11.319 -0.4087 -0.9144 -0.5758
 3226TIP3   OH231092   4.618   2.588  13.103 -0.1007 -0.1319  0.0421
 3226TIP3    H131093   4.707   2.622  13.113 -0.0656  0.1996 -1.3262
 3226TIP3    H231094   4.574   2.654  13.050 -1.1715 -0.2990  0.7104
 3227TIP3   OH231095   6.462   3.007  11.604 -0.1958  0.1013 -0.1881
 3227TIP3    H131096   6.369   3.031  11.605 -0.1211  0.3855  0.3891
 3227TIP3    H231097   6.497   3.050  11.526 -0.3201  0.8989  0.1882
 3228TIP3   OH231098   5.560   6.525   4.829  1.1011  0.2367  0.6414
 3228TIP3    H131099   5.479   6.558   4.867  0.4433 -1.7447  1.0397
 3228TIP3    H231100   5.550   6.538   4.735  0.0047 -0.5858  0.6250
 3229TIP3   OH231101   4.491   3.085   2.338  0.2823  0.3433  0.4489
 3229TIP3    H131102   4.438   3.070   2.416  1.1068  0.8023  1.1059
 3229TIP3    H231103   4.496   3.000   2.295  1.2977 -0.3278  1.8444
 3230TIP3   OH231104   0.244   6.136  13.813  0.0629 -0.2730 -0.1675
 3230TIP3    H131105   0.202   6.220  13.794 -1.2477 -0.4910  1.6080
 3230TIP3    H231106   0.237   6.086  13.731 -2.6908 -0.1011 -0.0725
 3231TIP3   OH231107   2.714   1.070  16.102  0.5658 -0.4511  0.3128
 3231TIP3    H131108   2.761   1.078  16.019 -0.0347 -1.4098 -0.1256
 3231TIP3    H231109   2.760   1.000  16.149  1.0204  0.2138  0.8853
 3232TIP3   OH231110   5.803   3.544   4.878  0.5767 -0.2067  0.2168
 3232TIP3    H131111   5.813   3.488   4.956 -1.8030 -1.0791 -0.0610
 3232TIP3    H231112   5.866   3.615   4.892 -0.2633  0.0123  3.2680
 3233TIP3   OH231113   3.150   0.777  12.531  0.5393  0.1434 -0.0362
 3233TIP3    H131114   3.077   0.717  12.515 -0.3148  0.4162  2.6772
 3233TIP3    H231115   3.158   0.826  12.449  0.4815 -2.7998 -1.8872
 3234TIP3   OH231116   2.168   2.465   3.804  0.5131 -0.4068 -0.4166
 3234TIP3    H131117   2.125   2.386   3.836  0.6862  0.0861  1.0793
 3234TIP3    H231118   2.259   2.455   3.829  0.6801 -0.0718 -0.8807
 3235TIP3   OH231119   1.587   5.517  13.510  0.0094  0.4356 -1.0227
 3235TIP3    H131120   1.668   5.554  13.545  0.4578  0.2761 -1.8759
 3235TIP3    H231121   1.594   5.423  13.527 -1.9602  0.8619  2.8419
 3236TIP3   OH231122   6.136   0.157   3.718 -0.2363 -0.2335  0.1758
 3236TIP3    H131123   6.182   0.240   3.712 -1.3020  0.4228  0.8678
 3236TIP3    H231124   6.126   0.142   3.812  0.9363 -1.7047  0.0864
 3237TIP3   OH231125   4.777   1.342  10.812  0.0482 -0.3613 -0.1231
 3237TIP3    H131126   4.791   1.325  10.718 -1.1385 -1.8116 -0.0675
 3237TIP3    H231127   4.704   1.284  10.835 -0.3872  0.8075  1.4515
 3238TIP3   OH231128   1.234   6.605  11.379 -0.4622 -0.2503 -0.2295
 3238TIP3    H131129   1.251   6.566  11.293 -1.9910 -0.9783 -0.2346
 3238TIP3    H231130   1.267   6.694  11.372  0.8653 -0.7895 -1.0513
 3239TIP3   OH231131   2.707   6.252   6.101 -0.0198  0.8057 -0.2908
 3239TIP3    H131132   2.688   6.159   6.089  0.9930  0.4646  0.5866
 3239TIP3    H231133   2.793   6.265   6.060 -1.3312  1.9452 -2.7467
 3240TIP3   OH231134   4.458   6.436  12.386 -0.0706  0.1132 -0.0708
 3240TIP3    H131135   4.396   6.363  12.383 -1.0991  0.9471  0.5259
 3240TIP3    H231136   4.410   6.509  12.349  0.9839  0.4879 -0.7338
 3241TIP3   OH231137   0.025   5.393   5.715 -0.3875  0.0030  0.0883
 3241TIP3    H131138   0.028   5.468   5.655  0.0631  0.8811  1.1957
 3241TIP3    H231139  -0.067   5.365   5.713 -0.1915 -0.5955 -1.7437
 3242TIP3   OH231140   1.438   6.617   3.161 -0.2490 -0.2359  0.6573
 3242TIP3    H131141   1.373   6.555   3.195 -0.0270 -0.5022  0.5949
 3242TIP3    H231142   1.507   6.619   3.227 -1.7247  2.3462  2.2105
 3243TIP3   OH231143   5.151   2.805   3.688  0.0965 -0.1125  0.1075
 3243TIP3    H131144   5.222   2.784   3.628 -0.5889  0.9055 -1.1172
 3243TIP3    H231145   5.189   2.865   3.751  0.7279 -0.8726  0.4519
 3244TIP3   OH231146   6.236   4.228   0.031 -0.2868  0.4170 -0.7655
 3244TIP3    H131147   6.229   4.281   0.110 -0.1402  0.4221 -0.7557
 3244TIP3    H231148   6.302   4.273  -0.023  0.3095 -0.1054 -0.4755
 3245TIP3   OH231149   1.676   0.176   0.283  0.5110 -0.2186  0.4420
 3245TIP3    H131150   1.639   0.237   0.346  0.0536 -1.2704  1.2058
 3245TIP3    H231151   1.664   0.090   0.323  1.3455 -0.7919 -0.5185
 3246TIP3   OH231152   0.133   4.398  12.419  0.2283 -0.5285 -0.1570
 3246TIP3    H131153   0.223   4.430  12.415 -0.7200  2.4303  0.9522
 3246TIP3    H231154   0.128   4.349  12.501  1.4944 -2.9621 -1.4924
 3247TIP3   OH231155   5.702   0.253   1.093  0.1079 -0.1501 -0.2839
 3247TIP3    H131156   5.633   0.253   1.027  1.0351  0.3188 -1.2756
 3247TIP3    H231157   5.723   0.160   1.105  1.3933 -0.1625 -2.2528
 3248TIP3   OH231158   4.956   1.056  14.174 -0.5798  0.1601  0.0330
 3248TIP3    H131159   4.936   1.119  14.243 -0.5748 -1.6175  1.7241
 3248TIP3    H231160   4.875   1.049  14.123 -1.7492 -1.0367  1.9708
 3249TIP3   OH231161   0.796   1.771  13.751  0.0566 -0.8281  0.5699
 3249TIP3    H131162   0.731   1.708  13.782 -1.8545  0.2395 -1.1533
 3249TIP3    H231163   0.786   1.846  13.810  0.3200 -0.9886  0.8222
 3250TIP3   OH231164   3.702   2.443   1.736 -0.2677  0.4459  0.0584
 3250TIP3    H131165   3.643   2.445   1.661 -1.4072  0.2442  0.9361
 3250TIP3    H231166   3.738   2.532   1.740  0.2200  0.3022 -1.0446
 3251TIP3   OH231167   1.640   2.238   4.213 -0.1408 -0.3980  0.5691
 3251TIP3    H131168   1.656   2.206   4.302  0.9019  0.9262  0.8708
 3251TIP3    H231169   1.609   2.328   4.224  1.8577  0.4588 -0.4516
 3252TIP3   OH231170   5.126   1.132  16.696  0.0268  0.4795  0.4239
 3252TIP3    H131171   5.049   1.167  16.740 -0.1454  2.1592 -1.1753
 3252TIP3    H231172   5.091   1.074  16.628  0.1049  1.9378 -0.8939
 3253TIP3   OH231173   5.344   1.500  12.174  0.1186  0.0366 -0.0251
 3253TIP3    H131174   5.409   1.438  12.141  0.7598 -0.4102  2.0069
 3253TIP3    H231175   5.348   1.574  12.113  0.4430 -1.2472 -1.5932
 3254TIP3   OH231176   1.544   4.630   0.129 -0.1429  0.4110  0.2429
 3254TIP3    H131177   1.481   4.569   0.165  1.4446 -2.1822 -1.1801
 3254TIP3    H231178   1.532   4.710   0.179 -1.1725 -1.5691  3.2762
 3255TIP3   OH231179   4.840   0.568  15.020 -0.4867  0.2711 -0.1121
 3255TIP3    H131180   4.833   0.473  15.033 -1.5133  0.4259  0.5212
 3255TIP3    H231181   4.819   0.580  14.927  0.1236 -0.1582 -0.3152
 3256TIP3   OH231182   3.678   6.688  16.381  0.3454 -0.3360  0.2745
 3256TIP3    H131183   3.665   6.644  16.465 -0.7493  0.4320  0.5158
 3256TIP3    H231184   3.596   6.673  16.334  1.4206 -1.8792 -1.1921
 3257TIP3   OH231185   5.503   5.657  16.285 -0.2712  0.4373  0.0807
 3257TIP3    H131186   5.467   5.744  16.296 -2.4252 -0.5742  1.3290
 3257TIP3    H231187   5.427   5.598  16.290  0.9789 -1.4255 -1.8980
 3258TIP3   OH231188   1.773   1.807  11.824  0.0041 -0.2245 -0.2850
 3258TIP3    H131189   1.855   1.826  11.870  2.3128 -1.5964 -3.6030
 3258TIP3    H231190   1.733   1.893  11.809  1.3732  0.5549  0.4738
 3259TIP3   OH231191   3.458   0.202   3.229  0.1781  0.2116 -0.2058
 3259TIP3    H131192   3.401   0.138   3.186  0.4321 -0.3706  0.3143
 3259TIP3    H231193   3.492   0.156   3.306  0.3582  0.9762  0.1790
 3260TIP3   OH231194   5.576   1.620   2.695  0.4556  0.4448 -0.4486
 3260TIP3    H131195   5.495   1.649   2.652 -1.2600 -0.1132  2.2378
 3260TIP3    H231196   5.608   1.697   2.741 -0.7095 -0.2823  1.6423
 3261TIP3   OH231197   0.186   0.395   3.374 -0.2185 -0.3429 -0.0542
 3261TIP3    H131198   0.160   0.367   3.286 -0.8084  0.1504 -0.0414
 3261TIP3    H231199   0.252   0.463   3.359  1.0985 -1.6010 -0.0862
 3262TIP3   OH231200   2.235   2.228  14.538  0.0064  0.6290  0.0398
 3262TIP3    H131201   2.287   2.231  14.618  0.0979  0.7153 -0.0229
 3262TIP3    H231202   2.147   2.254  14.565 -0.1398 -0.0995  0.2596
 3263TIP3   OH231203   6.109   3.946  11.891  0.1665 -0.6874 -0.3810
 3263TIP3    H131204   6.122   3.932  11.984  0.2518  0.7028 -0.1629
 3263TIP3    H231205   6.054   3.873  11.863 -1.6110 -0.0213  1.2040
 3264TIP3   OH231206   1.296   5.446  16.084 -0.2938  0.0889 -0.3590
 3264TIP3    H131207   1.277   5.374  16.025  1.4086 -0.0748 -0.7275
 3264TIP3    H231208   1.359   5.410  16.147 -1.2638  0.5643  0.9241
 3265TIP3   OH231209   3.161   6.152   1.071 -0.1889  0.3743 -0.1044
 3265TIP3    H131210   3.126   6.163   1.159 -2.0079 -0.8244 -0.6420
 3265TIP3    H231211   3.197   6.238   1.048 -0.1160  0.8171  1.6125
 3266TIP3   OH231212   4.322   2.326   0.937  0.0735  0.3061  0.5903
 3266TIP3    H131213   4.256   2.330   1.006  0.7227  0.3607  1.2121
 3266TIP3    H231214   4.402   2.297   0.981 -0.0448 -1.8517 -0.5444
 3267TIP3   OH231215   0.780   5.512   4.980  0.4120 -0.0281 -0.6435
 3267TIP3    H131216   0.738   5.443   5.031  2.8846  0.0227  1.5733
 3267TIP3    H231217   0.831   5.466   4.913  0.2288 -0.2560 -0.6267
 3268TIP3   OH231218   2.908   0.090  17.101  0.0876  0.5263  0.3858
 3268TIP3    H131219   2.917  -0.005  17.113 -1.2165  0.4419  0.7859
 3268TIP3    H231220   2.997   0.121  17.086  0.3920 -0.9167 -0.8833
 3269TIP3   OH231221   1.086   5.047   4.638  0.6011  0.1765 -0.4180
 3269TIP3    H131222   1.050   5.002   4.714 -0.3493  0.0244 -0.9556
 3269TIP3    H231223   1.168   5.085   4.670  1.5244 -2.0642 -0.0159
 3270TIP3   OH231224   4.981   4.759  13.663 -0.1919  0.7221  0.3499
 3270TIP3    H131225   4.993   4.704  13.586 -1.2433  0.1525  0.5897
 3270TIP3    H231226   4.904   4.813  13.643  0.0245  1.1559  0.6652
 3271TIP3   OH231227   5.959   3.589   4.383 -0.2730  0.1284  0.2253
 3271TIP3    H131228   5.925   3.554   4.466  0.5223 -1.6453 -0.1751
 3271TIP3    H231229   5.896   3.657   4.358 -1.0447  0.0064  1.7893
 3272TIP3   OH231230   4.624   2.062  11.091  0.3850 -0.1356  0.2477
 3272TIP3    H131231   4.591   1.977  11.121 -0.2876 -0.4259 -1.2657
 3272TIP3    H231232   4.573   2.081  11.012  1.9071  0.7386 -0.5443
 3273TIP3   OH231233   2.020   3.737  11.496 -0.1561 -0.0966  0.3563
 3273TIP3    H131234   1.961   3.746  11.421  2.2229 -0.9808 -1.6862
 3273TIP3    H231235   2.054   3.648  11.490 -1.0758 -0.7027  3.4127
 3274TIP3   OH231236   4.535   5.336   1.321  0.9339 -0.1606  0.1337
 3274TIP3    H131237   4.578   5.347   1.237  0.7590 -0.2607  0.0317
 3274TIP3    H231238   4.571   5.253   1.355 -0.2252 -0.9589 -0.5791
 3275TIP3   OH231239   4.587   1.755   1.898  1.0710 -0.1936 -0.3310
 3275TIP3    H131240   4.508   1.708   1.875 -0.9088  2.5506  0.5936
 3275TIP3    H231241   4.599   1.819   1.828  1.0173  1.0879  0.8076
 3276TIP3   OH231242   6.299   4.090   2.682  0.5274 -1.0723  0.0579
 3276TIP3    H131243   6.310   4.181   2.707 -0.2936 -1.2031  0.9143
 3276TIP3    H231244   6.386   4.062   2.654  0.9278 -0.2176  0.4436
 3277TIP3   OH231245   1.395   6.336   2.311  0.6105  0.5105  0.0223
 3277TIP3    H131246   1.473   6.281   2.303  0.7740  0.6348  0.7335
 3277TIP3    H231247   1.328   6.290   2.260  0.7924 -0.2723  0.4788
 3278TIP3   OH231248   1.294   4.698  14.085  0.6175  0.5635  0.3987
 3278TIP3    H131249   1.210   4.653  14.089  0.0258  1.0733 -3.6057
 3278TIP3    H231250   1.357   4.636  14.120 -1.0288 -0.9471  0.7448
 3279TIP3   OH231251   3.195   5.016   1.803  0.0193 -0.0443 -0.0366
 3279TIP3    H131252   3.226   4.932   1.768  1.1532  0.3682 -0.0185
 3279TIP3    H231253   3.270   5.075   1.796 -1.9307  2.1482 -3.7891
 3280TIP3   OH231254   6.105   0.806  12.777  0.5608  0.3293  0.3986
 3280TIP3    H131255   6.106   0.751  12.699 -1.8041  0.7511  0.0489
 3280TIP3    H231256   6.147   0.888  12.749 -1.1055  0.8216 -0.7148
 3281TIP3   OH231257   4.343   3.724   3.996 -0.5561 -0.1126  0.3020
 3281TIP3    H131258   4.378   3.722   3.907 -1.3635 -1.6901  0.0166
 3281TIP3    H231259   4.284   3.799   3.997  1.9685  1.9624  0.4920
 3282TIP3   OH231260   6.080   4.931  11.467 -0.2864 -0.7014  0.0895
 3282TIP3    H131261   6.158   4.918  11.522  1.3580  1.0726 -1.7292
 3282TIP3    H231262   6.092   4.872  11.393 -1.2899 -1.3079  0.4015
 3283TIP3   OH231263   2.487   2.642   2.263 -0.3052 -0.1218 -0.4104
 3283TIP3    H131264   2.513   2.644   2.171 -0.2941 -2.5269 -0.4855
 3283TIP3    H231265   2.392   2.631   2.261 -0.4611  1.0657 -0.1121
 3284TIP3   OH231266   1.745   0.262   3.320 -0.3327  0.1600 -0.2671
 3284TIP3    H131267   1.783   0.321   3.254  0.6761 -0.2571 -0.0671
 3284TIP3    H231268   1.794   0.280   3.400 -0.2480 -0.7191 -0.1199
 3285TIP3   OH231269   1.407   3.680   4.591 -0.1276  0.5188 -0.3475
 3285TIP3    H131270   1.494   3.717   4.609 -0.0458 -0.9070  2.3404
 3285TIP3    H231271   1.351   3.757   4.581  1.0241  1.4414  0.0255
 3286TIP3   OH231272   4.341   0.429   4.503  0.2132 -0.1368  0.1116
 3286TIP3    H131273   4.266   0.479   4.535 -0.3239 -0.4930 -0.5789
 3286TIP3    H231274   4.353   0.457   4.412  1.6174  0.7331  0.5445
 3287TIP3   OH231275   1.722   5.450   6.422  0.2275 -0.0376 -0.3381
 3287TIP3    H131276   1.775   5.388   6.373  2.8042  2.2328 -0.5830
 3287TIP3    H231277   1.716   5.527   6.365 -1.4888  0.5682  0.6218
 3288TIP3   OH231278   3.792   6.489   1.129 -0.1127 -0.1582 -0.0290
 3288TIP3    H131279   3.853   6.433   1.081 -0.2662 -0.3179 -0.0326
 3288TIP3    H231280   3.812   6.473   1.221 -0.9538 -1.0799 -0.0104
 3289TIP3   OH231281   3.922   1.797   0.505  0.6002  0.5673 -0.9602
 3289TIP3    H131282   3.975   1.850   0.445  1.5192  1.2431  0.4362
 3289TIP3    H231283   3.915   1.850   0.584  0.4047 -0.8319 -0.0265
 3290TIP3   OH231284   5.117   0.902   3.948 -0.0310 -0.1619 -0.3603
 3290TIP3    H131285   5.129   0.845   3.873  1.2978 -0.8261  0.3412
 3290TIP3    H231286   5.205   0.913   3.985 -0.5163  0.9585  0.5143
 3291TIP3   OH231287   0.545   5.643  17.186  0.1081 -0.0197 -0.0290
 3291TIP3    H131288   0.468   5.660  17.133 -0.3528  3.2826  1.6024
 3291TIP3    H231289   0.617   5.687  17.139  0.0669  1.1398  0.9585
 3292TIP3   OH231290   0.466   0.751  11.131  0.2692  0.0847 -0.3096
 3292TIP3    H131291   0.557   0.740  11.104  0.3260 -0.2914  0.0374
 3292TIP3    H231292   0.420   0.772  11.050  0.4521 -0.9761 -0.6900
 3293TIP3   OH231293   3.789   0.648   2.707 -0.1060  0.4378 -0.2018
 3293TIP3    H131294   3.819   0.716   2.647 -1.4855  1.1247 -0.1201
 3293TIP3    H231295   3.695   0.642   2.693 -0.1236 -0.8852  0.3812
 3294TIP3   OH231296   2.194   5.972   5.890 -0.3247 -0.3554  0.1230
 3294TIP3    H131297   2.123   6.030   5.914  0.3418  0.6201 -0.2478
 3294TIP3    H231298   2.150   5.889   5.867 -1.2916  0.0876  0.3522
 3295TIP3   OH231299   3.104   2.641  11.736  0.0491  0.2794 -0.2265
 3295TIP3    H131300   3.156   2.561  11.745 -0.7851 -0.1370  0.9399
 3295TIP3    H231301   3.092   2.651  11.641  3.0213  0.9012 -0.5642
 3296TIP3   OH231302   6.009   4.498  14.728  0.5940  0.1629  0.2962
 3296TIP3    H131303   5.937   4.490  14.665  0.7482 -0.8268  0.2303
 3296TIP3    H231304   6.052   4.580  14.705 -0.0411  0.3735 -0.1610
 3297TIP3   OH231305   1.948   0.580   1.415 -0.0195 -0.8115  0.3905
 3297TIP3    H131306   1.986   0.644   1.475  0.1306  0.4140 -0.9975
 3297TIP3    H231307   1.996   0.591   1.334  1.0749 -3.7986  0.5845
 3298TIP3   OH231308   0.464   0.475   4.739  0.3417  0.0730  0.0649
 3298TIP3    H131309   0.448   0.550   4.796 -0.0446  0.2599 -0.2844
 3298TIP3    H231310   0.554   0.486   4.709  0.8958 -0.5621  1.4290
 3299TIP3   OH231311   5.052   5.478  17.155 -0.1101 -0.1638  0.1064
 3299TIP3    H131312   5.139   5.489  17.192 -0.4532  0.7557  0.6541
 3299TIP3    H231313   5.025   5.390  17.184  1.6499 -1.5439 -2.2406
 3300TIP3   OH231314   2.733   0.644  15.924  0.7803 -0.1355  0.3968
 3300TIP3    H131315   2.792   0.704  15.969  0.6143  0.2231  0.1427
 3300TIP3    H231316   2.741   0.561  15.972  0.7571  0.1848  0.9573
 3301TIP3   OH231317   1.801   6.730  15.980  0.3344 -0.2887  0.2575
 3301TIP3    H131318   1.792   6.667  15.909 -0.3229 -0.4625  0.4901
 3301TIP3    H231319   1.735   6.797  15.961 -0.1788 -0.5888  0.9658
 3302TIP3   OH231320   4.770   6.460  12.922  0.2544 -0.5350 -0.4256
 3302TIP3    H131321   4.701   6.453  12.989  0.6049 -0.4033 -0.0457
 3302TIP3    H231322   4.727   6.503  12.848  0.0701  0.0558  0.0154
 3303TIP3   OH231323   6.329   5.693   0.212 -0.2879 -0.3031 -0.5541
 3303TIP3    H131324   6.249   5.648   0.186  0.3063 -1.5254 -0.3223
 3303TIP3    H231325   6.305   5.746   0.287 -0.6895 -1.3464  0.0604
 3304TIP3   OH231326   0.049   1.117  12.658 -0.1865  0.3726  0.6754
 3304TIP3    H131327   0.050   1.031  12.698  0.9021 -0.1660 -0.4467
 3304TIP3    H231328   0.037   1.178  12.731 -1.6388 -0.7597  1.3876
 3305TIP3   OH231329   1.493   4.187  16.505 -0.0878 -0.2901  0.3860
 3305TIP3    H131330   1.567   4.247  16.510 -0.3723  0.1973 -0.8836
 3305TIP3    H231331   1.504   4.128  16.580  3.1007 -1.9923 -1.3220
 3306TIP3   OH231332   5.624   3.366  10.474 -0.1041  0.3854  0.5917
 3306TIP3    H131333   5.689   3.377  10.404  0.3084  0.1978  0.9437
 3306TIP3    H231334   5.626   3.272  10.494  0.6101  0.6130  1.6456
 3307TIP3   OH231335   2.937   3.819  12.535 -0.0657 -0.2425 -1.0350
 3307TIP3    H131336   2.959   3.749  12.597 -2.0777 -0.9894 -1.1389
 3307TIP3    H231337   2.956   3.899  12.582  0.4495 -0.8378 -0.2151
 3308TIP3   OH231338   3.425   1.050  14.933  0.0009 -0.0032 -0.0543
 3308TIP3    H131339   3.508   1.055  14.886  0.9229  0.3007  1.5935
 3308TIP3    H231340   3.441   1.094  15.016 -1.0160 -2.3093  1.4136
 3309TIP3   OH231341   0.063   3.817  11.096  0.2721 -0.5655 -0.0705
 3309TIP3    H131342   0.105   3.903  11.091  1.5228 -1.0373  1.5476
 3309TIP3    H231343   0.115   3.761  11.039  0.7808 -0.7323  0.5457
 3310TIP3   OH231344   0.181   4.624   4.046 -0.2573  0.6655  0.1744
 3310TIP3    H131345   0.262   4.574   4.057 -0.6360 -0.3805 -1.6259
 3310TIP3    H231346   0.187   4.694   4.111  1.1910 -0.5543  1.3859
 3311TIP3   OH231347   6.010   2.430  11.643  0.2226  0.6867  0.4581
 3311TIP3    H131348   5.953   2.394  11.576  2.8903  1.5014 -2.3868
 3311TIP3    H231349   5.960   2.501  11.683 -1.9765 -0.8123  0.4490
 3312TIP3   OH231350   4.527   2.412   4.681 -0.0551  0.1939  0.1483
 3312TIP3    H131351   4.588   2.398   4.753 -0.3759  0.4314  0.4679
 3312TIP3    H231352   4.577   2.460   4.616 -0.0102  0.7193  0.5660
 3313TIP3   OH231353   2.565   6.161  16.397  0.9632 -0.1057 -0.3239
 3313TIP3    H131354   2.470   6.147  16.397  0.9525 -0.1073  0.9866
 3313TIP3    H231355   2.576   6.252  16.426  1.3553 -0.0283 -0.7106
 3314TIP3   OH231356   0.574   2.418  11.831  0.8180 -0.0831  0.1783
 3314TIP3    H131357   0.503   2.472  11.864  3.2942  2.7606  1.0638
 3314TIP3    H231358   0.574   2.433  11.736 -0.3373 -0.8676  0.0414
 3315TIP3   OH231359   1.806   4.773  10.874  0.3297  0.4685  0.2799
 3315TIP3    H131360   1.798   4.779  10.779  1.9735  1.6022  0.2006
 3315TIP3    H231361   1.794   4.862  10.905 -1.4146 -0.0862  1.2576
 3316TIP3   OH231362   1.308   4.187  15.932  0.4052 -0.3221 -0.3045
 3316TIP3    H131363   1.336   4.179  15.841 -0.8118  0.6034 -0.7674
 3316TIP3    H231364   1.388   4.207  15.981  0.9817 -0.3742 -1.2285
 3317TIP3   OH231365   1.730   2.367  11.934 -0.0205  0.2370 -0.4829
 3317TIP3    H131366   1.774   2.334  12.012 -0.1245  1.5018  0.1208
 3317TIP3    H231367   1.782   2.333  11.861  1.2720  0.7366  0.1986
 3318TIP3   OH231368   0.946   5.408   2.982  0.6985  0.3669  0.1068
 3318TIP3    H131369   1.037   5.392   3.007  0.4254  1.7562  2.1592
 3318TIP3    H231370   0.918   5.478   3.041 -1.4106  0.6159 -1.1586
 3319TIP3   OH231371   2.678   5.039   2.977  0.3085 -0.0975 -0.0210
 3319TIP3    H131372   2.743   4.970   2.989  0.1629 -0.2254  0.0399
 3319TIP3    H231373   2.677   5.086   3.061 -0.9941 -1.2404  0.6287
 3320TIP3   OH231374   2.831   5.235  12.611 -0.4463  0.4086 -0.2347
 3320TIP3    H131375   2.869   5.321  12.625  1.2387 -0.2025 -0.9926
 3320TIP3    H231376   2.736   5.249  12.621 -0.1679  2.2732 -0.0504
 3321TIP3   OH231377   2.557   2.836   1.160 -0.4810 -0.5806  0.0674
 3321TIP3    H131378   2.470   2.831   1.198 -0.2467 -0.9774  0.5426
 3321TIP3    H231379   2.541   2.845   1.066 -1.0094 -1.7335  0.0485
 3322TIP3   OH231380   0.091   4.278  11.870  0.7197  0.3275  0.0114
 3322TIP3    H131381   0.017   4.246  11.921  0.1054  0.6078 -0.6900
 3322TIP3    H231382   0.120   4.357  11.915 -0.2591  0.9610 -0.4465
 3323TIP3   OH231383   1.207   0.568   0.575  0.7986  0.0375 -0.3977
 3323TIP3    H131384   1.113   0.588   0.575  0.6913 -0.4514 -0.2031
 3323TIP3    H231385   1.211   0.474   0.558  1.1477 -0.4712  2.2766
 3324TIP3   OH231386   4.324   0.512  12.433  0.0284 -0.3152  0.1787
 3324TIP3    H131387   4.343   0.462  12.512  0.8080  0.6218  0.5970
 3324TIP3    H231388   4.397   0.493  12.374 -0.6874 -1.2190 -0.4198
 3325TIP3   OH231389   4.175   4.056  14.165 -0.0340  0.2397 -0.1839
 3325TIP3    H131390   4.191   4.052  14.259  1.4787 -0.0853 -0.4427
 3325TIP3    H231391   4.111   3.987  14.148 -0.5228  0.4855  0.6429
 3326TIP3   OH231392   3.014   3.667   0.068 -0.1543 -0.4911  0.4319
 3326TIP3    H131393   3.100   3.627   0.081  0.2689  0.1919 -0.2110
 3326TIP3    H231394   2.988   3.638  -0.019 -1.5344 -2.4273  1.4559
 3327TIP3   OH231395   3.733   4.283  17.086 -0.0786  0.1160  0.2397
 3327TIP3    H131396   3.775   4.199  17.068  0.5407  0.4101  0.2872
 3327TIP3    H231397   3.652   4.260  17.132 -1.1265 -0.5884 -1.8785
 3328TIP3   OH231398   0.583   2.480  12.217  0.1706  0.2304  0.7285
 3328TIP3    H131399   0.530   2.492  12.297 -0.4009  0.4655  0.3201
 3328TIP3    H231400   0.527   2.429  12.159  1.4763 -1.9011  1.3295
 3329TIP3   OH231401   0.419   5.497  15.089 -0.3913  0.1593 -0.2379
 3329TIP3    H131402   0.462   5.464  15.010  0.6343 -0.9258  0.7541
 3329TIP3    H231403   0.453   5.585  15.101  0.5852 -0.2211 -0.1865
 3330TIP3   OH231404   1.663   5.926  11.421  0.0065 -0.4547  0.8374
 3330TIP3    H131405   1.742   5.972  11.394 -2.1232  2.8246 -0.0950
 3330TIP3    H231406   1.624   5.894  11.340 -0.7983 -0.0461  1.0588
 3331TIP3   OH231407   4.558   5.378  12.866  0.1612  0.3095 -0.1592
 3331TIP3    H131408   4.539   5.462  12.824 -0.8958  0.1211 -0.0774
 3331TIP3    H231409   4.492   5.371  12.935  0.0760 -0.7070 -0.3370
 3332TIP3   OH231410   3.665   2.764   3.248 -0.5769 -0.0552 -0.3195
 3332TIP3    H131411   3.628   2.711   3.318 -0.4493  0.8859  0.4675
 3332TIP3    H231412   3.683   2.848   3.289  2.6244 -0.5461 -0.6119
 3333TIP3   OH231413   2.331   2.164  16.361 -0.1040  0.1321  0.7760
 3333TIP3    H131414   2.398   2.200  16.419 -1.1688  1.1632  1.4016
 3333TIP3    H231415   2.373   2.161  16.275  1.4233 -1.2230  1.5490
 3334TIP3   OH231416   3.355   3.132  14.787 -0.2088  0.1332  0.7381
 3334TIP3    H131417   3.439   3.119  14.830 -0.3913  0.7425  1.2988
 3334TIP3    H231418   3.293   3.083  14.841 -0.4838  1.1307  1.3438
 3335TIP3   OH231419   1.196   6.231  11.369 -0.0752  0.0873 -0.1309
 3335TIP3    H131420   1.239   6.148  11.347  0.9551  0.1179  1.6842
 3335TIP3    H231421   1.208   6.241  11.463 -1.5420  1.5573 -0.0677
 3336TIP3   OH231422   2.973   1.407  13.889 -0.6306  0.2974 -0.3070
 3336TIP3    H131423   3.047   1.402  13.829 -0.7009  0.4789 -0.4095
 3336TIP3    H231424   2.991   1.484  13.943  0.1805 -0.7274  0.8987
 3337TIP3   OH231425   0.228   0.294   5.667 -0.2247  0.1822  0.0843
 3337TIP3    H131426   0.231   0.383   5.703  1.2781  0.4582 -0.6763
 3337TIP3    H231427   0.289   0.244   5.722  0.0175 -0.0286 -0.3713
 3338TIP3   OH231428   0.560   5.056   1.062 -0.2681 -0.5060 -0.3539
 3338TIP3    H131429   0.480   5.021   1.021 -1.6182  2.9781 -0.9181
 3338TIP3    H231430   0.622   5.063   0.989  0.0472 -1.7866 -0.2159
 3339TIP3   OH231431   4.510   0.856   3.667  0.5933 -0.0719  0.7821
 3339TIP3    H131432   4.557   0.925   3.713  0.2425  1.0722 -0.5380
 3339TIP3    H231433   4.516   0.880   3.575 -1.8360 -0.3455  0.5112
 3340TIP3   OH231434   5.424   4.255  13.559 -0.3483  0.1842  0.0251
 3340TIP3    H131435   5.510   4.214  13.546 -0.5319  0.2049 -1.3447
 3340TIP3    H231436   5.379   4.197  13.620  0.3336 -0.2831  0.0934
 3341TIP3   OH231437   1.270   0.041   2.186 -0.2519 -0.1870  0.5102
 3341TIP3    H131438   1.316   0.125   2.191 -1.2227  0.3247  0.9400
 3341TIP3    H231439   1.335  -0.023   2.216  0.8908  0.2423 -0.9653
 3342TIP3   OH231440   2.277   5.638  12.569  0.0421  0.2700  0.3884
 3342TIP3    H131441   2.336   5.564  12.578  0.2106  0.2826 -0.5286
 3342TIP3    H231442   2.329   5.714  12.595  0.8504  0.4386 -1.6016
 3343TIP3   OH231443   4.527   2.991   2.003  0.1336 -0.0952  0.0914
 3343TIP3    H131444   4.436   3.016   1.986 -0.1467 -1.2662 -0.1688
 3343TIP3    H231445   4.571   3.002   1.919 -0.0817 -0.8391 -0.1252
 3344TIP3   OH231446   1.044   5.315   5.219 -0.2351  0.6071 -0.5975
 3344TIP3    H131447   0.954   5.323   5.252  0.6810 -0.2180  2.1868
 3344TIP3    H231448   1.040   5.354   5.131 -3.5104 -0.2498 -0.9177
 3345TIP3   OH231449   2.097   3.964  12.937 -0.4332 -0.1015  0.6785
 3345TIP3    H131450   2.132   3.916  12.861  0.4828 -0.0780  1.0777
 3345TIP3    H231451   2.004   3.973  12.918 -0.3418 -0.7092 -0.1218
 3346TIP3   OH231452   5.706   1.733   3.048  0.2673  0.5163  0.0611
 3346TIP3    H131453   5.612   1.750   3.047  0.6803  3.0122  0.1983
 3346TIP3    H231454   5.745   1.809   3.006  2.2906 -0.0849  0.7780
 3347TIP3   OH231455   2.624   1.258  14.847  0.1547 -0.1270 -0.6234
 3347TIP3    H131456   2.577   1.188  14.893  0.1845 -0.0459 -0.4683
 3347TIP3    H231457   2.605   1.242  14.755  0.3263 -0.4564 -0.6029
 3348TIP3   OH231458   4.806   0.855   3.876  0.3095 -0.2382 -0.3259
 3348TIP3    H131459   4.840   0.895   3.796 -1.5263 -0.3613 -1.2008
 3348TIP3    H231460   4.838   0.910   3.946 -0.0173  1.2616 -1.3314
 3349TIP3   OH231461   6.718   6.407   2.193 -0.1698  0.1558  0.2721
 3349TIP3    H131462   6.685   6.488   2.231 -1.3421 -0.0687 -0.2081
 3349TIP3    H231463   6.759   6.433   2.110 -3.3265 -0.0370 -1.4489
 3350TIP3   OH231464   4.531   3.436  14.520 -0.9631  0.5289  0.0746
 3350TIP3    H131465   4.467   3.451  14.590 -0.6330 -0.0165  0.5016
 3350TIP3    H231466   4.608   3.485  14.548 -0.0681 -1.4362  1.2030
 3351TIP3   OH231467   5.929   5.533   0.705 -0.4000 -0.1474 -0.5011
 3351TIP3    H131468   5.911   5.500   0.794 -0.9664  1.2903 -0.0609
 3351TIP3    H231469   5.917   5.628   0.713  0.4390  0.0771 -1.9147
 3352TIP3   OH231470   5.590   6.283  14.903  0.2728  0.0044 -0.5738
 3352TIP3    H131471   5.675   6.308  14.939 -1.1363  1.0516  2.1528
 3352TIP3    H231472   5.578   6.193  14.930  0.9962 -0.5328 -1.9729
 3353TIP3   OH231473   5.068   3.084  12.132  0.3108 -0.4913  0.0939
 3353TIP3    H131474   5.110   3.130  12.204 -0.6713  1.7688 -0.7248
 3353TIP3    H231475   4.993   3.039  12.172  1.1274 -1.2012  0.8495
 3354TIP3   OH231476   2.389   4.447   2.881 -0.3032 -0.8626 -0.2108
 3354TIP3    H131477   2.461   4.478   2.937 -1.6568  0.9380  0.5706
 3354TIP3    H231478   2.393   4.352   2.888  0.6222 -0.7105  1.6110
 3355TIP3   OH231479   1.864   4.375  13.076  0.0807 -0.1323  0.0765
 3355TIP3    H131480   1.880   4.392  13.169 -0.3289 -1.7571  0.4696
 3355TIP3    H231481   1.943   4.332  13.045 -0.7523 -1.8815  0.3146
 3356TIP3   OH231482   1.977   0.156  13.985 -0.0694  0.4486  0.4518
 3356TIP3    H131483   2.020   0.235  14.017  2.1446 -0.9043  0.8941
 3356TIP3    H231484   2.048   0.100  13.954 -1.6219 -1.2334 -0.1919
 3357TIP3   OH231485   6.320   6.137  12.205 -0.4638  0.4252 -0.2105
 3357TIP3    H131486   6.248   6.075  12.194 -2.1005  2.2435 -0.1099
 3357TIP3    H231487   6.317   6.160  12.298 -0.0568  0.8592 -0.3027
 3358TIP3   OH231488   4.572   3.447  15.293  0.0312 -0.0124 -0.3963
 3358TIP3    H131489   4.544   3.474  15.380 -0.0160  0.8886 -0.6933
 3358TIP3    H231490   4.666   3.467  15.290  0.4939 -1.9693  0.1843
 3359TIP3   OH231491   6.493   0.138   1.984 -1.0120  0.9700  0.8002
 3359TIP3    H131492   6.399   0.140   1.967 -1.0829  1.4048  1.2620
 3359TIP3    H231493   6.509   0.208   2.047 -0.4778  0.4698  1.2327
 3360TIP3   OH231494   1.306   1.253   3.854  0.1403 -0.0389  0.5125
 3360TIP3    H131495   1.268   1.176   3.810  1.1242 -0.0120 -0.4208
 3360TIP3    H231496   1.334   1.220   3.939 -0.4535 -0.4558  0.5520
 3361TIP3   OH231497   4.289   0.509  13.845 -0.5097 -0.1562 -0.4830
 3361TIP3    H131498   4.220   0.457  13.886  1.0253 -1.7111  0.1783
 3361TIP3    H231499   4.262   0.600  13.860 -1.4546 -0.7263  1.4271
 3362TIP3   OH231500   3.105   4.111  13.331  0.2441 -0.5218 -0.1861
 3362TIP3    H131501   3.124   4.122  13.238  0.2076  0.4080 -0.0878
 3362TIP3    H231502   3.112   4.017  13.345 -0.1887 -0.7221 -1.2251
 3363TIP3   OH231503   1.303   0.853  15.079 -0.2016 -0.3847 -0.2387
 3363TIP3    H131504   1.265   0.923  15.025  0.7659  1.0487  0.9164
 3363TIP3    H231505   1.355   0.899  15.144 -0.5978 -2.1478  1.3494
 3364TIP3   OH231506   3.095   5.447  16.921  0.1398  0.6349 -0.0766
 3364TIP3    H131507   3.136   5.376  16.971  0.6723  1.2336  0.3431
 3364TIP3    H231508   3.088   5.519  16.983 -1.2745  0.6503 -0.2370
 3365TIP3   OH231509   4.838   3.810   2.711  0.6235 -0.0225  0.4801
 3365TIP3    H131510   4.756   3.820   2.760  0.7797  2.9424  0.1967
 3365TIP3    H231511   4.811   3.812   2.619  0.7257 -1.9557  0.3914
 3366TIP3   OH231512   0.938   1.787   1.265  0.2202 -0.3569 -0.2593
 3366TIP3    H131513   0.996   1.771   1.339 -0.3549  1.0833  0.5288
 3366TIP3    H231514   0.869   1.722   1.274  0.7243 -0.8801 -0.1490
 3367TIP3   OH231515   4.187   2.106  11.548 -0.2605  0.4599 -0.8834
 3367TIP3    H131516   4.186   2.023  11.595 -2.2030 -0.4933 -2.5150
 3367TIP3    H231517   4.223   2.084  11.462  0.4354  1.5888 -0.8951
 3368TIP3   OH231518   6.168   3.042  16.346  0.2027  0.2229  0.0652
 3368TIP3    H131519   6.076   3.045  16.372  0.0687  0.9747 -0.4669
 3368TIP3    H231520   6.214   3.009  16.423 -0.4292  0.5468  0.5884
 3369TIP3   OH231521   5.094   5.977   1.314  0.1290  0.2942 -0.4869
 3369TIP3    H131522   5.089   5.929   1.396 -1.4900  0.7322 -0.3131
 3369TIP3    H231523   5.183   6.012   1.312  0.1258  0.4466  1.1823
 3370TIP3   OH231524   5.769   2.196  11.429  0.7395  0.1066 -0.2415
 3370TIP3    H131525   5.767   2.157  11.516 -1.0728  2.0604  0.6451
 3370TIP3    H231526   5.730   2.129  11.372  0.9898 -0.7729  0.6086
 3371TIP3   OH231527   3.798   1.619  14.983 -0.1636 -0.6136  0.1980
 3371TIP3    H131528   3.838   1.705  14.989 -1.6451  0.1971 -1.2222
 3371TIP3    H231529   3.868   1.562  14.949  0.6389  0.1360  0.5808
 3372TIP3   OH231530   6.340   3.212  14.739 -0.1447 -0.2844 -0.3087
 3372TIP3    H131531   6.382   3.252  14.816 -0.9198 -2.4501  1.2871
 3372TIP3    H231532   6.392   3.133  14.723 -2.5708 -2.1318  0.6882
 3373TIP3   OH231533   4.393   4.799  15.384 -0.5021  0.0281 -0.6249
 3373TIP3    H131534   4.408   4.798  15.478 -1.3121  0.8829 -0.4758
 3373TIP3    H231535   4.298   4.807  15.375 -0.7093 -2.9528 -1.5203
 3374TIP3   OH231536   2.100   4.619   0.162  0.3415  0.4416 -0.3221
 3374TIP3    H131537   2.060   4.674   0.229  1.0029  1.6272 -0.8728
 3374TIP3    H231538   2.027   4.581   0.114 -0.1222  0.6713  0.2059
 3375TIP3   OH231539   5.254   0.370   2.823  0.5662 -0.0083  0.0620
 3375TIP3    H131540   5.185   0.307   2.807  1.1613 -0.7399  0.3537
 3375TIP3    H231541   5.335   0.319   2.822  1.0992  0.8243 -0.2077
 3376TIP3   OH231542   1.364   0.981  15.799 -0.4120  0.3355 -0.4210
 3376TIP3    H131543   1.360   0.898  15.847 -0.3055  1.2680  1.2191
 3376TIP3    H231544   1.435   1.029  15.840 -1.0142  1.5740 -0.8269
 3377TIP3   OH231545   1.821   0.811   3.761  0.0849 -0.3101  0.1359
 3377TIP3    H131546   1.787   0.859   3.837  2.5099 -1.1269  1.7737
 3377TIP3    H231547   1.837   0.879   3.695  0.6164  0.7545  1.3476
 3378TIP3   OH231548   3.872   6.671  14.997 -0.0707  0.5522  0.2643
 3378TIP3    H131549   3.910   6.625  15.072  1.1342  1.5735  0.2995
 3378TIP3    H231550   3.892   6.616  14.922 -0.1675  0.1519  0.5325
 3379TIP3   OH231551   1.020   3.697   0.282  0.2558 -0.0476  0.0180
 3379TIP3    H131552   1.088   3.655   0.335 -1.3113 -0.1984  1.9906
 3379TIP3    H231553   1.002   3.634   0.212  1.7519 -0.2455 -0.1941
 3380TIP3   OH231554   2.296   4.797   0.258  0.3198 -0.7988 -0.3061
 3380TIP3    H131555   2.209   4.761   0.241  0.3487 -0.2599 -1.5895
 3380TIP3    H231556   2.318   4.847   0.180  1.7055 -0.7650  0.0881
 3381TIP3   OH231557   2.913   1.982   1.616 -0.4708  0.4755 -0.5619
 3381TIP3    H131558   2.954   2.067   1.629  1.3949 -0.3339 -1.0661
 3381TIP3    H231559   2.892   1.952   1.705  0.6976  0.5728 -0.2472
 3382TIP3   OH231560   4.185   1.270  12.217 -0.1755  0.4967  0.4886
 3382TIP3    H131561   4.140   1.187  12.201 -0.8383  0.9652 -0.1136
 3382TIP3    H231562   4.270   1.245  12.252 -1.3671 -0.3935  2.8932
 3383TIP3   OH231563   2.900   1.168  11.302  0.6248 -0.0189  0.2240
 3383TIP3    H131564   2.850   1.198  11.226 -2.6446  2.0357  3.0223
 3383TIP3    H231565   2.903   1.073  11.292 -0.9096  0.0987 -1.7821
 3384TIP3   OH231566   2.299   0.875  13.287  0.2889 -0.0048  0.1386
 3384TIP3    H131567   2.211   0.906  13.267  1.1496  2.1627 -0.4021
 3384TIP3    H231568   2.328   0.831  13.207 -0.1697 -0.4562  0.2162
 3385TIP3   OH231569   1.062   4.130  13.990  0.1682  0.2479 -0.1332
 3385TIP3    H131570   1.105   4.044  13.983 -2.0557 -0.9119 -0.1200
 3385TIP3    H231571   1.065   4.165  13.902  1.3014  0.2786 -0.0955
 3386TIP3   OH231572   2.229   2.046  13.849 -0.1682 -0.2287 -0.5309
 3386TIP3    H131573   2.204   2.131  13.885  2.7436  0.3962  0.1726
 3386TIP3    H231574   2.268   1.999  13.922 -0.1073 -1.4774 -1.3406
 3387TIP3   OH231575   4.898   3.710  12.917  0.1728 -0.4928  0.4846
 3387TIP3    H131576   4.929   3.621  12.935  1.1529  0.2956  3.0468
 3387TIP3    H231577   4.944   3.736  12.838 -0.4406 -2.3873 -0.5412
 3388TIP3   OH231578   4.716   2.119  15.503 -0.3077 -0.7267  0.3807
 3388TIP3    H131579   4.746   2.209  15.513 -1.3625 -0.5418  2.1493
 3388TIP3    H231580   4.716   2.104  15.409  0.9826  0.7381  0.1257
 3389TIP3   OH231581   4.009   2.846  15.725 -0.3204 -0.3887 -0.4550
 3389TIP3    H131582   4.021   2.903  15.801 -1.8337 -1.0310  0.2680
 3389TIP3    H231583   4.097   2.811  15.708  0.6273  2.0223 -0.8359
 3390TIP3   OH231584   4.732   4.433  13.087  0.2088  0.0727 -0.0112
 3390TIP3    H131585   4.703   4.416  13.177  0.2573 -0.2289 -0.0528
 3390TIP3    H231586   4.735   4.347  13.046  2.6269 -0.0681  0.4129
 3391TIP3   OH231587   0.475   6.780  15.669  0.2741  0.3167 -0.2772
 3391TIP3    H131588   0.534   6.851  15.645  0.7053  0.4092  0.9761
 3391TIP3    H231589   0.500   6.708  15.611  1.1711  0.5709 -0.2163
 3392TIP3   OH231590   4.901   3.716  12.597 -0.1475 -0.7564  0.6520
 3392TIP3    H131591   4.893   3.811  12.592 -1.0146 -0.7631  1.8580
 3392TIP3    H231592   4.990   3.698  12.565 -0.5320  0.3145 -1.0992
 3393TIP3   OH231593   5.620   1.364  14.165 -0.5510 -0.1041 -0.0114
 3393TIP3    H131594   5.650   1.311  14.092 -0.3053 -0.3193  0.2444
 3393TIP3    H231595   5.603   1.450  14.127  2.7222  0.7363  0.2756
 3394TIP3   OH231596   4.940   6.101   1.863 -0.3117 -0.0044  0.3565
 3394TIP3    H131597   4.983   6.097   1.778 -0.9285 -0.5947  0.0614
 3394TIP3    H231598   4.871   6.167   1.852 -0.8384 -0.5741  0.1788
 3395TIP3   OH231599   4.012   3.818  17.220 -0.2733  0.5206  1.1431
 3395TIP3    H131600   3.917   3.810  17.234 -0.1620  1.4502  2.6318
 3395TIP3    H231601   4.042   3.728  17.208 -1.5833  0.3558 -1.0974
 3396TIP3   OH231602   2.690   4.162   2.179  0.2999  0.0710 -0.6137
 3396TIP3    H131603   2.664   4.251   2.155  0.0495  0.1521 -0.0368
 3396TIP3    H231604   2.627   4.136   2.246  2.6584  0.8302  1.9616
 3397TIP3   OH231605   6.702   6.405  13.071 -0.0185 -0.1227 -0.4366
 3397TIP3    H131606   6.626   6.347  13.068  0.4910 -0.7266 -2.3663
 3397TIP3    H231607   6.771   6.353  13.112 -0.2179 -0.0833 -0.0493
 3398TIP3   OH231608   5.568   0.338   0.836  0.4675  0.0904  0.3063
 3398TIP3    H131609   5.498   0.401   0.817  0.0776 -0.2741  0.5254
 3398TIP3    H231610   5.522   0.258   0.862  0.9667 -0.1487  0.4620
 3399TIP3   OH231611   0.319   2.852   3.553  0.2892 -0.1057 -0.3247
 3399TIP3    H131612   0.272   2.807   3.622 -0.7226  1.9625  0.3890
 3399TIP3    H231613   0.347   2.935   3.592  1.2103  0.3509 -1.8750
 3400TIP3   OH231614   1.910   1.263   2.561  0.2993 -0.3394 -0.4227
 3400TIP3    H131615   1.922   1.178   2.604  0.0399  0.0976  0.5305
 3400TIP3    H231616   1.898   1.325   2.633 -0.6896  0.3274 -1.1493
 3401TIP3   OH231617   1.818   3.730   5.873 -0.2570  0.6255 -0.2671
 3401TIP3    H131618   1.874   3.720   5.796  0.1787  2.0456 -0.1592
 3401TIP3    H231619   1.872   3.702   5.946  0.0751  1.2862 -0.2505
 3402TIP3   OH231620   4.972   0.466  13.752  0.0907 -0.0579 -0.0041
 3402TIP3    H131621   4.883   0.494  13.770  0.9460  2.1884  0.9177
 3402TIP3    H231622   4.982   0.477  13.657 -1.0837 -1.8233 -0.3501
 3403TIP3   OH231623   1.964   3.321   2.516 -0.1555 -0.7433 -0.0888
 3403TIP3    H131624   1.938   3.232   2.492 -0.5028 -0.2414 -1.6152
 3403TIP3    H231625   1.889   3.355   2.564  0.0930 -1.3698  0.7519
 3404TIP3   OH231626   4.331   0.540  11.942  0.1374  0.1086 -0.0336
 3404TIP3    H131627   4.392   0.538  11.868  1.0163 -1.9325  0.6904
 3404TIP3    H231628   4.274   0.464  11.928 -0.8935  0.7921  0.4104
 3405TIP3   OH231629   3.657   3.205  14.739 -0.4178 -0.0386  0.2985
 3405TIP3    H131630   3.743   3.166  14.749  0.1140  0.9628 -0.2447
 3405TIP3    H231631   3.656   3.278  14.800 -0.3984  0.7257 -0.5964
 3406TIP3   OH231632   0.974   3.549  11.617  0.1660 -0.7660 -0.0949
 3406TIP3    H131633   0.890   3.592  11.600 -0.5184 -2.0254 -0.0047
 3406TIP3    H231634   1.000   3.514  11.532  0.1704 -1.1199  0.0523
 3407TIP3   OH231635   1.537   3.034   5.772  0.2884  0.0507 -0.4255
 3407TIP3    H131636   1.544   3.123   5.806  0.1595  1.3003 -3.5573
 3407TIP3    H231637   1.603   3.029   5.702  1.9069 -3.0650  1.1684
 3408TIP3   OH231638   1.267   5.665  15.269  0.2645  0.0913  0.3971
 3408TIP3    H131639   1.266   5.580  15.312 -1.6660 -0.1607 -0.0842
 3408TIP3    H231640   1.240   5.647  15.179  1.0710  1.0383 -0.0406
 3409TIP3   OH231641   0.217   2.961  11.680  0.3839  0.4286 -0.2042
 3409TIP3    H131642   0.184   2.893  11.621  3.3603 -1.7862  0.5439
 3409TIP3    H231643   0.210   2.922  11.767 -2.8851  3.2152  0.8671
 3410TIP3   OH231644   4.833   0.179  12.729 -0.1569  0.0039 -0.2107
 3410TIP3    H131645   4.791   0.168  12.814  1.8820 -1.7371  0.6297
 3410TIP3    H231646   4.778   0.129  12.668 -0.3731 -0.6665  0.5301
 3411TIP3   OH231647   1.040   2.103   5.649 -0.1354 -0.5083  0.0096
 3411TIP3    H131648   1.101   2.112   5.722  0.2487  0.1709 -0.3948
 3411TIP3    H231649   0.954   2.100   5.691  0.1176 -0.6515  0.5279
 3412TIP3   OH231650   4.050   2.732   1.458  0.7091  0.1743 -0.0678
 3412TIP3    H131651   4.016   2.646   1.481  1.3927 -0.1474 -0.2454
 3412TIP3    H231652   4.105   2.757   1.533  0.3922  0.5229  0.0511
 3413TIP3   OH231653   1.082   0.595   3.068 -0.3447  0.5136 -0.2522
 3413TIP3    H131654   1.013   0.541   3.030 -0.5519 -0.7350  1.8312
 3413TIP3    H231655   1.060   0.600   3.161  2.3145  0.1649  0.4311
 3414TIP3   OH231656   6.031   1.734  12.746  0.4096 -0.2064  0.6149
 3414TIP3    H131657   6.054   1.760  12.835  1.3382  0.3640  0.2097
 3414TIP3    H231658   6.111   1.745  12.695 -0.5917  1.3174 -0.6922
 3415TIP3   OH231659   4.804   4.888  16.438  0.3956 -0.1795  0.0088
 3415TIP3    H131660   4.882   4.834  16.453  0.0153 -0.6603  0.2779
 3415TIP3    H231661   4.816   4.964  16.494  0.8590 -0.0653 -0.2410
 3416TIP3   OH231662   6.507   4.004  11.609 -0.3145  0.4134 -0.4389
 3416TIP3    H131663   6.477   3.914  11.607 -1.8734  0.9461 -1.1161
 3416TIP3    H231664   6.591   4.003  11.562 -0.6975 -0.5281 -1.0991
 3417TIP3   OH231665   0.466   3.266  13.374 -0.4926 -0.5886 -0.3049
 3417TIP3    H131666   0.421   3.181  13.370 -2.2184  0.2446  0.5801
 3417TIP3    H231667   0.536   3.254  13.438  0.9942 -2.0913 -2.1478
 3418TIP3   OH231668   0.751   6.202   3.128 -0.7203 -0.0517  0.3712
 3418TIP3    H131669   0.686   6.137   3.100 -0.8523 -0.4750  1.6005
 3418TIP3    H231670   0.716   6.285   3.097 -1.6194 -0.3352  0.5887
 3419TIP3   OH231671   3.330   3.791  13.038  0.0718  0.4799 -0.2604
 3419TIP3    H131672   3.265   3.725  13.063  1.2408 -1.6663 -2.6886
 3419TIP3    H231673   3.407   3.769  13.090  0.6422 -0.4454 -1.4764
 3420TIP3   OH231674   2.945   1.418  15.063 -0.4565  0.4081  0.3959
 3420TIP3    H131675   2.929   1.391  14.972  0.9680 -0.0905  0.2892
 3420TIP3    H231676   2.950   1.337  15.112  0.0402  0.6299  0.7162
 3421TIP3   OH231677   5.856   4.522   2.288 -0.8719 -0.0429 -0.2283
 3421TIP3    H131678   5.804   4.599   2.310 -1.5015 -0.9055  1.3518
 3421TIP3    H231679   5.849   4.465   2.365 -1.3905 -2.2150 -1.8390
 3422TIP3   OH231680   0.792   1.310   3.095 -0.6888 -0.1647 -0.4059
 3422TIP3    H131681   0.786   1.389   3.040 -0.3115  0.1811  0.0546
 3422TIP3    H231682   0.862   1.259   3.055  1.6043  1.4175  1.4444
 3423TIP3   OH231683   4.396   6.649  10.922  0.1675 -0.4113  0.0012
 3423TIP3    H131684   4.388   6.676  10.831 -0.7750 -1.9961 -0.3920
 3423TIP3    H231685   4.360   6.560  10.925 -0.8721  0.0423  2.1387
 3424TIP3   OH231686   3.314   4.793   4.242 -0.3354  0.3540 -0.3444
 3424TIP3    H131687   3.307   4.881   4.205  0.5158  1.0252  1.0452
 3424TIP3    H231688   3.292   4.734   4.169 -0.3860  1.6879 -1.4243
 3425TIP3   OH231689   4.432   6.134   0.465  0.4344  0.4112  0.0679
 3425TIP3    H131690   4.436   6.040   0.479  1.9370  0.4922  0.2173
 3425TIP3    H231691   4.517   6.167   0.494 -0.3981  1.9333  0.8895
 3426TIP3   OH231692   5.728   1.515  13.794 -0.1855  0.2451  0.2850
 3426TIP3    H131693   5.738   1.610  13.795 -1.5348  0.4065  1.7175
 3426TIP3    H231694   5.671   1.497  13.869 -1.2585 -1.5423 -0.9404
 3427TIP3   OH231695   4.379   3.729   1.323 -0.1651  0.2841  0.4824
 3427TIP3    H131696   4.418   3.673   1.390 -0.8632  1.0888  1.5779
 3427TIP3    H231697   4.288   3.741   1.352 -0.1110  1.7052  0.0836
 3428TIP3   OH231698   3.606   5.953   1.333  1.0095 -0.1634  0.1524
 3428TIP3    H131699   3.594   5.868   1.377 -0.5733  0.3766  0.8054
 3428TIP3    H231700   3.531   5.961   1.275  2.1739 -0.0641 -1.3554
 3429TIP3   OH231701   1.562   5.237   1.889 -0.3039  0.8403 -0.2724
 3429TIP3    H131702   1.623   5.310   1.886 -0.0074  0.5810 -0.4994
 3429TIP3    H231703   1.476   5.278   1.905  0.0392  1.1360  0.8678
 3430TIP3   OH231704   3.764   4.085   2.862  0.0270 -0.5051 -0.2450
 3430TIP3    H131705   3.800   4.070   2.949  0.5163 -0.4956 -0.4434
 3430TIP3    H231706   3.758   3.997   2.823 -2.4201 -0.7756  0.6582
 3431TIP3   OH231707   5.519   2.313   0.472  0.1850 -0.3211 -0.4530
 3431TIP3    H131708   5.487   2.362   0.547 -0.0540 -0.1231 -0.6851
 3431TIP3    H231709   5.490   2.363   0.396  0.5599 -0.4361 -0.6752
 3432TIP3   OH231710   4.356   4.391   1.826 -0.0379  0.0989  0.5384
 3432TIP3    H131711   4.278   4.420   1.780 -0.5247 -0.0696  1.2601
 3432TIP3    H231712   4.428   4.409   1.765 -0.4504  1.8303  0.5589
 3433TIP3   OH231713   2.667   3.832   3.797  0.2003 -0.4737  0.2231
 3433TIP3    H131714   2.591   3.890   3.797  0.0492 -0.6323  2.3598
 3433TIP3    H231715   2.739   3.887   3.825  0.9698 -0.2440 -2.1280
 3434TIP3   OH231716   0.878   4.728   1.507  0.0242  0.0029  0.4059
 3434TIP3    H131717   0.882   4.648   1.561 -1.5571 -0.0668  0.4514
 3434TIP3    H231718   0.816   4.784   1.554 -1.7380 -0.2407 -1.5523
 3435TIP3   OH231719   1.670   1.061  16.168 -0.4263  0.4699 -0.1164
 3435TIP3    H131720   1.714   0.985  16.206 -0.2932  0.8054  0.4062
 3435TIP3    H231721   1.733   1.132  16.176 -0.3219  0.4986 -1.1568
 3436TIP3   OH231722   6.661   3.730  12.830  0.1661 -0.2025 -0.6261
 3436TIP3    H131723   6.593   3.668  12.855  2.3600 -2.3268  0.3322
 3436TIP3    H231724   6.678   3.781  12.909  2.4830 -2.4549  0.4053
 3437TIP3   OH231725   0.236   0.570   5.767 -0.9320  0.2216  0.4086
 3437TIP3    H131726   0.174   0.612   5.826 -0.5007  0.1351  0.9248
 3437TIP3    H231727   0.238   0.627   5.690 -2.4646 -0.3493 -0.0609
 3438TIP3   OH231728   3.883   2.208  15.759 -0.0827  0.5253 -0.0192
 3438TIP3    H131729   3.880   2.205  15.854  0.0769  0.3509 -0.0194
 3438TIP3    H231730   3.947   2.141  15.735  0.9030  1.5097 -0.1777
 3439TIP3   OH231731   4.230   1.955  15.895  0.0528  0.7209  0.4136
 3439TIP3    H131732   4.274   1.871  15.880 -1.0816 -0.1595  1.9365
 3439TIP3    H231733   4.296   2.009  15.937  1.5088  1.3782 -2.5613
 3440TIP3   OH231734   0.668   1.367   5.420 -0.1000 -0.0462  0.7251
 3440TIP3    H131735   0.647   1.351   5.512 -0.5644 -0.0120  0.6267
 3440TIP3    H231736   0.683   1.280   5.383 -0.7587 -0.1284  0.6350
 3441TIP3   OH231737   6.073   5.719  15.773  0.3518 -0.3435 -0.0105
 3441TIP3    H131738   5.997   5.674  15.809 -0.2697  1.0346  0.4255
 3441TIP3    H231739   6.118   5.756  15.849 -0.0910  1.2218 -0.4907
 3442TIP3   OH231740   4.263   3.357  12.867  0.2755 -0.5187  0.1077
 3442TIP3    H131741   4.309   3.322  12.943 -0.3626 -0.7159  0.4078
 3442TIP3    H231742   4.333   3.378  12.804  0.9787  1.9548  1.6716
 3443TIP3   OH231743   2.171   6.581   0.507  0.4419  0.1791 -0.1167
 3443TIP3    H131744   2.224   6.598   0.430 -0.1523 -0.1948 -0.6091
 3443TIP3    H231745   2.139   6.492   0.496 -0.1957  0.3584  0.2300
 3444TIP3   OH231746   2.120   4.192  14.744  0.1436  0.2685 -0.4765
 3444TIP3    H131747   2.170   4.159  14.819  0.8599  0.4862 -0.8472
 3444TIP3    H231748   2.137   4.129  14.674 -0.7306 -0.0717 -0.3822
 3445TIP3   OH231749   1.862   1.095   0.415  0.4272  0.2904 -0.1280
 3445TIP3    H131750   1.831   1.005   0.410 -1.0602  0.8823 -2.0861
 3445TIP3    H231751   1.820   1.139   0.341  0.3600  2.8119  1.3492
 3446TIP3   OH231752   6.528   0.796  12.254 -0.1863  0.2986  0.1077
 3446TIP3    H131753   6.481   0.854  12.194 -2.0137 -1.2688 -0.0311
 3446TIP3    H231754   6.577   0.737  12.197  0.2656  0.5724  0.2115
 3447TIP3   OH231755   0.385   5.487  16.250  0.0152 -0.7214 -0.1431
 3447TIP3    H131756   0.362   5.441  16.331 -0.4773 -0.7817 -0.3210
 3447TIP3    H231757   0.327   5.562  16.247  0.4070 -0.4164 -0.1696
 3448TIP3   OH231758   3.683   3.279   4.609 -0.1475 -0.3425  0.2402
 3448TIP3    H131759   3.588   3.268   4.614 -0.3230  1.0389 -0.0557
 3448TIP3    H231760   3.708   3.237   4.527 -0.5582 -0.3290  0.1063
 3449TIP3   OH231761   1.291   3.951  14.149 -0.3594 -0.2144  0.4703
 3449TIP3    H131762   1.211   3.906  14.179 -1.8606  1.2598 -1.2343
 3449TIP3    H231763   1.313   3.907  14.067  0.3751 -0.3662  0.7495
 3450TIP3   OH231764   1.691   1.504   2.377 -0.1187 -0.0443  0.4814
 3450TIP3    H131765   1.656   1.416   2.396 -0.7122 -0.3775 -1.9318
 3450TIP3    H231766   1.683   1.551   2.460 -1.8720 -1.6007  1.2510
 3451TIP3   OH231767   2.283   2.812   2.472 -0.4655  0.3798  0.4077
 3451TIP3    H131768   2.310   2.807   2.381  0.8344 -1.0251  0.8461
 3451TIP3    H231769   2.366   2.822   2.521 -0.9440 -1.3292  1.5946
 3452TIP3   OH231770   4.407   3.796  16.560 -0.0588  0.0149  0.0594
 3452TIP3    H131771   4.352   3.792  16.482 -0.1938 -0.7801  0.1845
 3452TIP3    H231772   4.348   3.773  16.632  0.4606 -0.9701  0.1813
 3453TIP3   OH231773   0.652   1.220   0.302  0.5397  0.3936  0.0781
 3453TIP3    H131774   0.639   1.315   0.305  0.8237  0.4214  0.6079
 3453TIP3    H231775   0.642   1.192   0.393  0.3679 -0.0980 -0.0920
 3454TIP3   OH231776   2.302   3.626  14.656 -0.3343  0.1073 -0.7046
 3454TIP3    H131777   2.298   3.659  14.566 -0.5783  0.5897 -0.5194
 3454TIP3    H231778   2.218   3.583  14.670 -1.2763  2.1789  0.1082
 3455TIP3   OH231779   3.855   2.021   3.280 -0.5154 -0.2972  0.0527
 3455TIP3    H131780   3.925   2.065   3.231  0.0593 -1.1772  0.0815
 3455TIP3    H231781   3.866   1.928   3.259 -0.7985 -0.5912  1.1828
 3456TIP3   OH231782   3.288   6.566   2.375 -0.3850 -0.0551 -0.0985
 3456TIP3    H131783   3.260   6.657   2.379  0.4568  0.1931  0.2825
 3456TIP3    H231784   3.218   6.517   2.417  0.2994  0.6881  1.9784
 3457TIP3   OH231785   1.455   5.287   2.148 -0.0793 -0.2998 -0.5378
 3457TIP3    H131786   1.519   5.224   2.117 -0.6196 -2.0431  1.7386
 3457TIP3    H231787   1.372   5.258   2.111  0.0483  0.5431 -1.5068
 3458TIP3   OH231788   5.246   0.870   4.557  0.1735 -0.4931 -0.1795
 3458TIP3    H131789   5.194   0.808   4.506 -2.6994  0.0537  1.9495
 3458TIP3    H231790   5.311   0.816   4.602  0.2570 -1.4428 -1.4079
 3459TIP3   OH231791   0.137   0.715  13.934  0.2103  0.0856 -0.4516
 3459TIP3    H131792   0.184   0.671  13.863  0.1773  0.7518 -0.8986
 3459TIP3    H231793   0.205   0.764  13.980  0.4728 -1.4938  0.8794
 3460TIP3   OH231794   5.662   4.432  16.774 -0.5458 -0.1411 -0.2907
 3460TIP3    H131795   5.589   4.391  16.820 -0.3275  1.2673  1.3671
 3460TIP3    H231796   5.704   4.487  16.840  1.0886  0.2616 -1.6269
 3461TIP3   OH231797   5.989   3.942   5.572 -0.6019  0.0135  0.3592
 3461TIP3    H131798   6.044   4.020   5.572 -0.2740 -0.2138 -0.4722
 3461TIP3    H231799   5.957   3.935   5.662 -3.3896  2.9921 -0.3264
 3462TIP3   OH231800   4.002   0.353  15.318  0.4734  1.4934 -1.1765
 3462TIP3    H131801   3.970   0.370  15.406  0.7151  1.9331 -1.1732
 3462TIP3    H231802   4.095   0.374  15.320  1.0979 -1.1281 -0.8253
 3463TIP3   OH231803   6.017   5.092   2.291 -0.4401 -0.8419  0.0238
 3463TIP3    H131804   5.993   4.999   2.289 -1.0474 -0.6772 -0.7388
 3463TIP3    H231805   6.083   5.098   2.360  0.4738 -2.0538 -0.7024
 3464TIP3   OH231806   5.537   0.566   1.974  0.4566  0.3893 -0.1668
 3464TIP3    H131807   5.595   0.540   1.903  0.6261 -0.2869  0.2042
 3464TIP3    H231808   5.451   0.530   1.950  0.5708 -0.0564  0.0901
 3465TIP3   OH231809   1.680   1.971  10.718 -0.0998  0.4015 -1.2786
 3465TIP3    H131810   1.755   2.031  10.711  0.3689 -0.1686 -1.2325
 3465TIP3    H231811   1.716   1.886  10.690 -0.0581 -0.4117  1.1908
 3466TIP3   OH231812   2.942   4.601  17.006  0.3923  0.3095  0.1666
 3466TIP3    H131813   2.900   4.516  16.998 -1.0070  1.0744 -0.7833
 3466TIP3    H231814   2.883   4.652  17.062  1.2442  0.6516  0.7735
 3467TIP3   OH231815   2.593   1.748  16.622 -0.1081 -0.4485  0.4984
 3467TIP3    H131816   2.596   1.806  16.545  0.9768  0.0337  0.8913
 3467TIP3    H231817   2.553   1.802  16.690 -2.1422 -1.2561 -0.0314
 3468TIP3   OH231818   2.730   6.770  16.642  0.3494 -0.1020  0.3612
 3468TIP3    H131819   2.670   6.840  16.619 -0.9445 -0.6977  1.8386
 3468TIP3    H231820   2.803   6.813  16.687 -0.3629  0.3229  1.1172
 3469TIP3   OH231821   5.137   2.288  13.626 -0.1378  0.0861 -0.3370
 3469TIP3    H131822   5.119   2.377  13.655  0.8768  0.2502 -0.1886
 3469TIP3    H231823   5.134   2.292  13.531 -1.5031 -0.0276 -0.3045
 3470TIP3   OH231824   3.442   1.631   4.287  0.2769  0.0243  0.3451
 3470TIP3    H131825   3.484   1.668   4.365 -0.7099 -0.5727  1.1766
 3470TIP3    H231826   3.351   1.617   4.313  0.9510 -4.6372  0.7133
 3471TIP3   OH231827   0.129   5.441   1.102 -0.1464  0.6497 -0.7980
 3471TIP3    H131828   0.176   5.488   1.033  2.4962 -0.5609  0.1171
 3471TIP3    H231829   0.190   5.440   1.176 -0.9497 -2.4117 -0.1088
 3472TIP3   OH231830   3.094   1.262  15.585  0.2460  0.0855 -0.4360
 3472TIP3    H131831   3.092   1.168  15.601 -0.0374  0.4121  1.5805
 3472TIP3    H231832   3.181   1.279  15.549  1.6054 -0.4820  2.4446
 3473TIP3   OH231833   1.415   1.094   2.071 -0.2563  0.2157  0.2405
 3473TIP3    H131834   1.351   1.119   2.005  0.8188 -0.6687 -1.1752
 3473TIP3    H231835   1.443   1.177   2.111 -0.4648  0.8164 -0.8450
 3474TIP3   OH231836   3.724   4.959  15.149 -0.1155  0.0956  0.1020
 3474TIP3    H131837   3.635   4.984  15.175 -0.5062 -2.6696  1.6018
 3474TIP3    H231838   3.716   4.936  15.056 -0.8033  0.5428  0.0438
 3475TIP3   OH231839   5.914   0.379   0.119 -0.0972  0.1840 -0.4138
 3475TIP3    H131840   5.839   0.401   0.174  0.4011  0.9379 -0.0223
 3475TIP3    H231841   5.939   0.290   0.146 -0.9074 -0.1022 -0.6161
 3476TIP3   OH231842   0.146   3.712  12.649 -0.0610 -0.0367 -0.1656
 3476TIP3    H131843   0.197   3.708  12.730 -3.5278  1.2141  2.2035
 3476TIP3    H231844   0.055   3.703  12.678 -1.3592  0.0382 -4.0035
 3477TIP3   OH231845   3.295   5.530  15.895 -0.0609 -0.0461  1.0205
 3477TIP3    H131846   3.368   5.507  15.837 -0.1930  2.4337 -0.2185
 3477TIP3    H231847   3.336   5.564  15.974  0.1719  0.8455  0.5322
 3478TIP3   OH231848   0.497   0.067   5.367 -0.0241 -0.1281  0.5147
 3478TIP3    H131849   0.458   0.015   5.296  2.1383  0.2364 -0.9865
 3478TIP3    H231850   0.581   0.025   5.384  0.7517  1.5288  0.8506
 3479TIP3   OH231851   3.618   0.490  15.122  0.3177  0.3345 -0.4449
 3479TIP3    H131852   3.586   0.570  15.079  0.1635  0.7207  0.3848
 3479TIP3    H231853   3.713   0.494  15.113  0.3364  0.8244 -0.0195
 3480TIP3   OH231854   5.532   3.347   2.093  0.0920 -0.0964 -0.0387
 3480TIP3    H131855   5.624   3.336   2.119  0.2732 -1.7237 -1.3334
 3480TIP3    H231856   5.514   3.439   2.111  1.1796 -0.3577  2.7416
 3481TIP3   OH231857   2.323   4.651   0.493  0.1824 -0.0998  0.0063
 3481TIP3    H131858   2.282   4.715   0.551  1.1116 -0.0390  0.5894
 3481TIP3    H231859   2.320   4.692   0.406  0.9371  0.8051  0.4085
 3482TIP3   OH231860   0.282   3.020  16.830  0.1616 -0.6522  0.6220
 3482TIP3    H131861   0.214   2.976  16.880  2.6456 -3.7145  1.4906
 3482TIP3    H231862   0.267   2.994  16.739  0.9231 -2.4452  0.9863
 3483TIP3   OH231863   3.521   0.998   3.837  0.2123  0.0928  0.4454
 3483TIP3    H131864   3.495   0.994   3.745  0.9879  2.5438  0.0609
 3483TIP3    H231865   3.493   1.085   3.865  1.7897  0.1451  1.9315
 3484TIP3   OH231866   0.853   3.106   1.217  0.7377  0.8731  0.3300
 3484TIP3    H131867   0.920   3.088   1.283  0.8006  2.0176  0.5903
 3484TIP3    H231868   0.788   3.160   1.262  0.8071  1.7108 -0.5628
 3485TIP3   OH231869   2.345   1.239  11.711 -0.0059  0.3518 -0.7064
 3485TIP3    H131870   2.382   1.153  11.691 -1.7574 -0.5195 -0.2312
 3485TIP3    H231871   2.404   1.274  11.778  0.7156 -0.4583 -0.8993
 3486TIP3   OH231872   0.523   5.808   1.226  0.2411 -0.6756 -0.0379
 3486TIP3    H131873   0.581   5.813   1.150 -0.5404  1.2428 -0.5344
 3486TIP3    H231874   0.435   5.813   1.190 -0.1646 -0.4797  0.9502
 3487TIP3   OH231875   6.302   4.362   0.286 -0.0269  0.1211 -0.0423
 3487TIP3    H131876   6.249   4.313   0.348 -0.2004  1.1196  0.6035
 3487TIP3    H231877   6.392   4.351   0.318 -0.0456  0.0470 -0.0153
 3488TIP3   OH231878   2.508   1.428   2.568 -0.1490  0.0835 -0.1322
 3488TIP3    H131879   2.485   1.472   2.650  0.0917  0.1448 -0.0983
 3488TIP3    H231880   2.597   1.395   2.582 -0.8072 -1.5820  0.3325
 3489TIP3   OH231881   5.879   6.509  14.654 -0.2358 -0.4132 -0.1470
 3489TIP3    H131882   5.901   6.444  14.721  2.4279 -0.4474 -0.9967
 3489TIP3    H231883   5.903   6.468  14.571  0.3630  1.1978 -0.7897
 3490TIP3   OH231884   5.061   0.813  14.027  0.2918 -0.2577  0.1131
 3490TIP3    H131885   5.042   0.881  14.093 -2.0022 -0.7682  0.0356
 3490TIP3    H231886   5.032   0.852  13.945  1.4075 -0.3469 -0.3259
 3491TIP3   OH231887   5.673   6.391   5.798  0.3885  0.4513 -0.3300
 3491TIP3    H131888   5.751   6.432   5.834  0.7811 -0.9810  0.4757
 3491TIP3    H231889   5.633   6.345   5.872  0.1182 -0.8575 -1.2761
 3492TIP3   OH231890   4.950   4.508  12.924 -0.1023 -0.7436  0.1024
 3492TIP3    H131891   5.019   4.502  12.990  0.1282  1.9502  0.1470
 3492TIP3    H231892   4.868   4.500  12.974  0.1055 -0.2673  0.5226
 3493TIP3   OH231893   5.686   1.665  12.431 -0.1199  0.6017 -0.5612
 3493TIP3    H131894   5.627   1.594  12.406 -0.2610 -0.2408  2.0218
 3493TIP3    H231895   5.722   1.639  12.516  1.7491  2.4646 -0.7139
 3494TIP3   OH231896   2.631   5.674  11.533  0.3041 -0.2748  0.0255
 3494TIP3    H131897   2.598   5.650  11.446 -0.3030  2.2842 -0.4841
 3494TIP3    H231898   2.720   5.638  11.535 -0.4901 -2.3159 -0.7654
 3495TIP3   OH231899   5.238   2.917   3.243  0.1694  0.5863  0.2972
 3495TIP3    H131900   5.187   2.946   3.319  0.3652  0.2543  0.5551
 3495TIP3    H231901   5.241   2.822   3.251 -0.0464  0.5322 -0.2805
 3496TIP3   OH231902   2.211   1.746  14.343  0.1172  0.0521 -0.5207
 3496TIP3    H131903   2.171   1.725  14.259  0.4735  0.0886 -0.7011
 3496TIP3    H231904   2.208   1.842  14.347 -0.6071  0.0147 -0.1398
 3497TIP3   OH231905   0.948   0.860  17.146 -0.4924  0.2269 -0.5171
 3497TIP3    H131906   1.007   0.787  17.162 -1.0913  0.0964  1.1394
 3497TIP3    H231907   0.904   0.837  17.064  1.7113  0.3196 -1.7672
 3498TIP3   OH231908   2.566   3.290   5.165 -0.3002 -0.4338  0.2964
 3498TIP3    H131909   2.521   3.303   5.082 -0.0243  1.1067  0.3550
 3498TIP3    H231910   2.568   3.378   5.205 -1.0839 -1.2893  2.2645
 3499TIP3   OH231911   6.229   3.648   2.604 -0.1948 -0.3466  0.1478
 3499TIP3    H131912   6.255   3.720   2.546 -1.0025 -0.1004  0.0916
 3499TIP3    H231913   6.310   3.623   2.648  0.0242  0.8055  0.4108
 3500TIP3   OH231914   4.450   2.734  13.276  0.6473  0.2839  0.0200
 3500TIP3    H131915   4.355   2.733  13.279  0.5700  0.9547 -1.4920
 3500TIP3    H231916   4.473   2.655  13.226  0.8329  0.5995 -0.4004
 3501TIP3   OH231917   4.226   2.614   5.476 -0.1335  0.7619  0.2041
 3501TIP3    H131918   4.301   2.672   5.489 -0.4411  1.0122  0.8880
 3501TIP3    H231919   4.256   2.529   5.508  0.5617  0.3586 -1.4656
 3502TIP3   OH231920   4.368   1.112   2.501 -0.2456  0.1618  0.4298
 3502TIP3    H131921   4.398   1.043   2.441  0.6338  0.1922  0.8283
 3502TIP3    H231922   4.293   1.073   2.546  0.3419 -0.6085  0.7649
 3503TIP3   OH231923   6.171   1.410  15.982  0.7405 -0.5420  0.4363
 3503TIP3    H131924   6.239   1.477  15.980  1.5220 -1.3625 -0.9163
 3503TIP3    H231925   6.193   1.351  15.910 -1.1162 -1.1055  0.3023
 3504TIP3   OH231926   5.812   5.884   1.258  0.3280 -0.3656  0.0847
 3504TIP3    H131927   5.772   5.897   1.172  0.5145 -1.6395 -0.2022
 3504TIP3    H231928   5.783   5.959   1.310  0.1041  0.3429 -1.0487
 3505TIP3   OH231929   3.803   1.202   5.260 -0.3170  0.3333 -0.1567
 3505TIP3    H131930   3.744   1.264   5.218 -1.4979  0.4017  1.5644
 3505TIP3    H231931   3.831   1.245   5.340 -2.0950 -1.7946  1.6729
 3506TIP3   OH231932   5.589   0.254  15.205  0.1705 -0.1118 -0.2740
 3506TIP3    H131933   5.668   0.219  15.246 -0.7412  0.4533  2.0281
 3506TIP3    H231934   5.591   0.347  15.224  0.6812  0.5221 -3.1950
 3507TIP3   OH231935   0.589   2.834  13.894 -0.1980 -0.0946 -0.0182
 3507TIP3    H131936   0.520   2.780  13.854 -0.0509  0.9589 -1.7477
 3507TIP3    H231937   0.546   2.917  13.914  0.5359  0.5292 -1.0071
 3508TIP3   OH231938   0.614   6.687  15.904 -0.0939 -0.0494  0.3317
 3508TIP3    H131939   0.666   6.607  15.893  0.0014  0.1242 -0.4953
 3508TIP3    H231940   0.567   6.696  15.822 -1.9049 -0.5309  1.2833
 3509TIP3   OH231941   2.237   1.920  13.404  0.1284 -0.9821  0.0470
 3509TIP3    H131942   2.163   1.891  13.350 -0.5881 -0.9338  0.9893
 3509TIP3    H231943   2.248   1.851  13.469 -0.6127  0.0990  1.3692
 3510TIP3   OH231944   2.852   5.224   6.237 -0.1259  0.2311 -0.1066
 3510TIP3    H131945   2.875   5.213   6.330  0.5067  1.5833 -0.0842
 3510TIP3    H231946   2.846   5.135   6.203  1.0785 -0.2516  0.8996
 3511TIP3   OH231947   3.666   2.998   1.830  0.0716  0.2789 -0.6312
 3511TIP3    H131948   3.708   3.062   1.772 -1.2771  0.8867 -0.9392
 3511TIP3    H231949   3.735   2.975   1.893  0.4445  2.3481 -0.2412
 3512TIP3   OH231950   2.929   3.255  16.191  0.0522  0.2042 -0.2179
 3512TIP3    H131951   2.886   3.338  16.213 -1.0465 -0.4895  0.3256
 3512TIP3    H231952   2.951   3.217  16.276  0.1333 -0.2726 -0.4529
 3513TIP3   OH231953   6.290   3.832  11.412  0.6520 -0.2319  0.1467
 3513TIP3    H131954   6.267   3.827  11.505  0.6584 -0.8429  0.1173
 3513TIP3    H231955   6.364   3.772  11.403  0.1176 -0.8102 -0.4183
 3514TIP3   OH231956   2.224   0.360   4.253 -0.5390  0.7411 -0.0192
 3514TIP3    H131957   2.169   0.321   4.184  0.4424 -0.9997  0.1534
 3514TIP3    H231958   2.216   0.299   4.327  2.2396  0.0283 -0.2625
 3515TIP3   OH231959   5.805   1.980  12.139 -0.4853 -0.7325 -0.1933
 3515TIP3    H131960   5.897   1.957  12.122 -0.6374 -0.7732 -0.9728
 3515TIP3    H231961   5.769   1.903  12.182 -0.4026 -1.0990 -0.7714
 3516TIP3   OH231962   3.121   2.366   5.455 -0.2440  0.5277  0.4052
 3516TIP3    H131963   3.161   2.415   5.384 -0.5572  0.5708  0.2543
 3516TIP3    H231964   3.169   2.393   5.533 -0.5598  1.2484  0.3549
 3517TIP3   OH231965   1.425   0.549  14.356 -0.8773 -0.8921 -0.1457
 3517TIP3    H131966   1.380   0.509  14.430 -1.1001  0.3403  0.3995
 3517TIP3    H231967   1.382   0.512  14.279 -1.4955 -1.2155  0.3483
 3518TIP3   OH231968   1.013   4.774   1.254 -0.0565  0.1114 -0.0579
 3518TIP3    H131969   0.953   4.747   1.323 -0.7088 -1.7424 -1.3107
 3518TIP3    H231970   0.961   4.833   1.199  0.1258  0.7103  0.4080
 3519TIP3   OH231971   0.032   4.687  11.371  0.0789  0.5637  0.6293
 3519TIP3    H131972   0.067   4.602  11.345 -1.7171 -0.0883  0.2594
 3519TIP3    H231973   0.038   4.741  11.292 -1.0621  0.0101  0.1518
 3520TIP3   OH231974   2.050   4.388  15.300  0.3510 -0.7422  0.1507
 3520TIP3    H131975   2.134   4.427  15.275 -0.3529  0.1596 -0.8817
 3520TIP3    H231976   2.014   4.354  15.217 -0.1672 -1.3790  0.6303
 3521TIP3   OH231977   3.163   0.216  17.084 -0.5262  0.0674 -0.3389
 3521TIP3    H131978   3.136   0.302  17.051  1.6567  0.5563 -0.9646
 3521TIP3    H231979   3.214   0.236  17.162 -1.1292 -0.7604  0.2662
 3522TIP3   OH231980   0.627   0.741  17.015  0.3420  0.1546 -0.4312
 3522TIP3    H131981   0.611   0.806  17.084  2.2809  0.0511  0.1272
 3522TIP3    H231982   0.638   0.658  17.062  0.4389 -0.1346 -0.9638
 3523TIP3   OH231983   2.709   4.972   4.820 -0.4782  0.1550  0.7042
 3523TIP3    H131984   2.653   4.973   4.742  1.5127 -3.0409 -0.8859
 3523TIP3    H231985   2.733   5.064   4.834 -0.8443  0.8024 -2.5032
 3524TIP3   OH231986   2.059   1.528   2.443  0.2357 -0.0546 -0.2198
 3524TIP3    H131987   2.137   1.472   2.438  1.0771  1.1292 -0.4809
 3524TIP3    H231988   1.986   1.466   2.449  1.1281 -1.1847 -0.7663
 3525TIP3   OH231989   0.870   1.466  15.583 -0.2515  0.0560 -0.0320
 3525TIP3    H131990   0.936   1.527  15.616  0.4055 -0.0885 -1.0760
 3525TIP3    H231991   0.871   1.393  15.645 -0.2881  0.5957  0.6196
 3526TIP3   OH231992   4.120   0.152  13.055 -0.5079  0.1958  0.0466
 3526TIP3    H131993   4.035   0.195  13.042 -0.3672  0.4858  0.0758
 3526TIP3    H231994   4.159   0.199  13.129 -0.5861 -0.3411  0.4298
 3527TIP3   OH231995   6.380   6.196  11.656 -0.2387  0.3504 -0.0608
 3527TIP3    H131996   6.451   6.202  11.592 -1.1231 -2.3561 -1.3736
 3527TIP3    H231997   6.401   6.118  11.708 -0.9638  0.9528  1.1561
 3528TIP3   OH231998   0.137   3.388  12.778  0.4894 -0.1615  0.1908
 3528TIP3    H131999   0.057   3.431  12.808  0.4173 -0.7080  0.7943
 3528TIP3    H232000   0.108   3.303  12.745  0.9857 -0.9336  1.7111
 3529TIP3   OH232001   3.081   6.290   2.803  0.1148 -0.0652 -0.7150
 3529TIP3    H132002   3.111   6.375   2.836 -0.1982 -0.1580 -0.1743
 3529TIP3    H232003   3.136   6.226   2.848 -0.3563 -0.1965 -0.3161
 3530TIP3   OH232004   2.269   5.278   2.443 -0.4224 -0.3188 -0.1981
 3530TIP3    H132005   2.358   5.309   2.459 -0.9291  1.3240 -0.5067
 3530TIP3    H232006   2.250   5.219   2.516  0.0195  1.2683  1.2199
 3531TIP3   OH232007   3.539   0.370   0.982  0.0775  0.4268 -0.4415
 3531TIP3    H132008   3.496   0.420   1.051  0.5205  0.5613 -0.2658
 3531TIP3    H232009   3.544   0.431   0.908 -0.7843  0.1484 -0.7409
 3532TIP3   OH232010   3.840   1.855   1.102  0.2693 -0.2992 -0.1914
 3532TIP3    H132011   3.830   1.878   1.195 -0.4063  0.5808 -0.4744
 3532TIP3    H232012   3.929   1.820   1.095  1.1543  1.7753  0.3572
 3533TIP3   OH232013   6.151   0.685   2.446  0.3403 -0.6362 -0.3248
 3533TIP3    H132014   6.169   0.631   2.522 -1.0852 -0.7316 -0.0436
 3533TIP3    H232015   6.101   0.759   2.480  0.0301 -0.4832 -1.0946
 3534TIP3   OH232016   0.134   6.588   5.669  0.4213  0.0145 -0.5092
 3534TIP3    H132017   0.070   6.563   5.603 -0.4863  1.3131 -0.1379
 3534TIP3    H232018   0.189   6.654   5.627 -0.1566  0.8425  0.0058
 3535TIP3   OH232019   2.393   1.143   4.811 -0.1058 -0.4737  0.1390
 3535TIP3    H132020   2.482   1.170   4.834 -0.1284 -1.1982  1.1004
 3535TIP3    H232021   2.378   1.182   4.725  0.9753  0.0304  0.1666
 3536TIP3   OH232022   3.440   2.554  16.613  0.2554  0.2871  0.1406
 3536TIP3    H132023   3.389   2.487  16.567  0.7759 -1.8989  2.5853
 3536TIP3    H232024   3.374   2.615  16.647 -0.3141  0.4463 -1.2197
 3537TIP3   OH232025   0.283   5.265   0.675 -0.1739  0.6110  0.7575
 3537TIP3    H132026   0.289   5.217   0.757  2.4405 -1.7498 -0.7323
 3537TIP3    H232027   0.374   5.282   0.650 -0.8441  0.1591 -2.2353
 3538TIP3   OH232028   1.954   1.297   3.862  0.0246  0.3048  0.2289
 3538TIP3    H132029   1.861   1.273   3.855  0.1592 -0.2499  0.2826
 3538TIP3    H232030   1.995   1.220   3.903  0.8004 -0.1539 -1.3888
 3539TIP3   OH232031   2.445   3.920  16.296  0.4980  0.6398  0.3648
 3539TIP3    H132032   2.365   3.914  16.244  0.1197  2.0221  0.7800
 3539TIP3    H232033   2.456   3.832  16.332 -1.5317  0.7452  1.3255
 3540TIP3   OH232034   1.022   3.897  15.141  0.0117  0.5414 -0.0482
 3540TIP3    H132035   0.935   3.871  15.110 -0.4843  3.2875 -1.1088
 3540TIP3    H232036   1.014   3.991  15.160  2.8690  0.9605 -0.6360
 3541TIP3   OH232037   2.920   2.436  11.847  0.2872 -0.5678 -0.1223
 3541TIP3    H132038   2.877   2.392  11.773 -0.5829 -0.2917  0.2137
 3541TIP3    H232039   2.975   2.503  11.806 -0.9210  0.2190 -0.4986
 3542TIP3   OH232040   6.473   4.326  14.675  0.2415  0.6739 -0.0449
 3542TIP3    H132041   6.427   4.402  14.639  1.3783  1.1877 -0.4376
 3542TIP3    H232042   6.566   4.349  14.669  0.6093 -0.7951 -0.2958
 3543TIP3   OH232043   5.379   2.353  11.328 -0.0433 -0.6683  0.2075
 3543TIP3    H132044   5.433   2.414  11.377 -1.0214 -0.3941  0.9658
 3543TIP3    H232045   5.379   2.273  11.381  0.0762 -0.8522 -0.0695
 3544TIP3   OH232046   4.310   1.679  11.666  0.4573  0.3149 -0.0395
 3544TIP3    H132047   4.393   1.665  11.620  0.6079 -0.2440  0.3947
 3544TIP3    H232048   4.282   1.591  11.692  0.0189  0.5590  0.3137
 3545TIP3   OH232049   5.739   3.814   3.224 -0.0641  0.4164  0.3833
 3545TIP3    H132050   5.821   3.767   3.208 -0.8194 -0.4969 -0.9351
 3545TIP3    H232051   5.679   3.780   3.158 -1.7800  0.3953  1.9195
 3546TIP3   OH232052   6.732   4.365  16.483  0.1088  0.2957  0.4306
 3546TIP3    H132053   6.735   4.404  16.395 -0.2932 -1.3317 -0.3092
 3546TIP3    H232054   6.750   4.439  16.541  2.8914  0.9305 -1.1238
 3547TIP3   OH232055   0.634   0.736  16.641 -0.4975  0.2945 -0.0254
 3547TIP3    H132056   0.712   0.758  16.591 -0.7713 -0.0218 -0.5889
 3547TIP3    H232057   0.659   0.658  16.691 -0.3460  0.3911  0.0491
 3548TIP3   OH232058   0.767   5.759  13.369  0.0292 -0.4139 -0.5113
 3548TIP3    H132059   0.784   5.723  13.283  0.8727  1.7922 -1.3165
 3548TIP3    H232060   0.671   5.765  13.374 -0.1134 -2.5833 -0.3986
 3549TIP3   OH232061   1.314   0.409  14.572  0.5601 -0.3108 -0.2147
 3549TIP3    H132062   1.313   0.456  14.655  0.8374 -0.0606 -0.3510
 3549TIP3    H232063   1.249   0.339  14.583  1.3346 -0.9213  0.5834
 3550TIP3   OH232064   5.246   5.054   3.662  0.0885  1.0338 -0.2014
 3550TIP3    H132065   5.170   5.108   3.680 -0.9612 -0.6574  0.5930
 3550TIP3    H232066   5.242   5.036   3.568 -0.3969  1.0939 -0.1906
 3551TIP3   OH232067   0.217   2.123  11.868 -0.0561  0.1835  0.1755
 3551TIP3    H132068   0.269   2.121  11.787 -1.7179 -1.4132 -0.8977
 3551TIP3    H232069   0.133   2.159  11.841 -0.3749  0.3042  1.3371
 3552TIP3   OH232070   2.395   4.220   5.745 -0.2653 -0.7166 -0.3030
 3552TIP3    H132071   2.434   4.162   5.810 -1.8053 -0.8927  0.4836
 3552TIP3    H232072   2.439   4.196   5.663  1.6828 -0.5075  0.6305
 3553TIP3   OH232073   3.423   4.216  10.857  0.8029 -0.3632  0.0944
 3553TIP3    H132074   3.378   4.144  10.901  0.6312 -0.2676  0.0731
 3553TIP3    H232075   3.377   4.227  10.774  0.3833  0.2380  0.4061
 3554TIP3   OH232076   1.718   0.582   0.323 -0.3036  0.0320 -0.5949
 3554TIP3    H132077   1.752   0.520   0.388 -0.6507  0.8378  0.3841
 3554TIP3    H232078   1.787   0.588   0.257  0.7696  0.4432  0.5396
 3555TIP3   OH232079   2.225   4.360  14.981 -0.2273 -0.3752  0.0114
 3555TIP3    H132080   2.313   4.397  14.995 -0.7492  0.4225  1.2486
 3555TIP3    H232081   2.239   4.266  14.979  0.8729 -0.2078 -1.3213
 3556TIP3   OH232082   2.719   3.632  13.933 -0.2334  0.3328 -0.6627
 3556TIP3    H132083   2.741   3.725  13.930  0.0138  0.2763 -0.6320
 3556TIP3    H232084   2.776   3.596  14.001 -0.0967  0.1001 -0.8968
 3557TIP3   OH232085   2.655   5.192   5.199 -0.6730  0.1720  0.2847
 3557TIP3    H132086   2.712   5.263   5.170 -1.3207  0.3592 -0.5204
 3557TIP3    H232087   2.583   5.191   5.137 -0.8759 -0.9321  0.5217
 3558TIP3   OH232088   4.410   6.580  16.050 -0.4345  0.0028  0.3820
 3558TIP3    H132089   4.342   6.591  16.116 -2.2675  1.0920 -1.6095
 3558TIP3    H232090   4.458   6.663  16.051 -0.6992  0.1610  0.1084
 3559TIP3   OH232091   6.708   0.566  15.514 -0.1079 -0.0116 -0.1302
 3559TIP3    H132092   6.732   0.550  15.605 -1.1189 -2.5192 -0.2579
 3559TIP3    H232093   6.788   0.549  15.464  0.0248 -0.2175  0.1516
 3560TIP3   OH232094   3.574   1.918  13.127 -0.4102 -0.5900 -0.0098
 3560TIP3    H132095   3.665   1.942  13.111 -0.7757  0.4535 -0.6017
 3560TIP3    H232096   3.573   1.881  13.215  1.1401 -3.5719 -1.1605
 3561TIP3   OH232097   1.821   4.952  14.229 -0.2964  0.2401 -0.1102
 3561TIP3    H132098   1.852   4.902  14.304 -0.3679 -0.4512 -0.5338
 3561TIP3    H232099   1.749   5.004  14.262  0.5383  0.9532  0.6133
 3562TIP3   OH232100   6.494   3.781   5.231 -0.1787  0.1900  0.4892
 3562TIP3    H132101   6.418   3.836   5.213  0.9002  1.6279  0.1960
 3562TIP3    H232102   6.472   3.735   5.312 -0.6780  1.8721  1.3211
 3563TIP3   OH232103   2.837   4.921   2.629  0.0790 -0.2982  0.1217
 3563TIP3    H132104   2.750   4.904   2.665  0.6183 -0.2286  1.5053
 3563TIP3    H232105   2.829   5.005   2.584 -0.8852 -0.9022 -0.8625
 3564TIP3   OH232106   6.162   5.971   3.536 -0.0343 -0.5494 -0.1471
 3564TIP3    H132107   6.252   5.985   3.566 -0.1137  2.2144 -1.1482
 3564TIP3    H232108   6.126   6.058   3.527 -1.9991 -1.5518 -2.3447
 3565TIP3   OH232109   5.689   2.559  16.272 -0.1576 -0.1498  0.2466
 3565TIP3    H132110   5.727   2.548  16.185 -2.6881 -2.2579 -0.6595
 3565TIP3    H232111   5.757   2.531  16.332  1.3896  0.6836 -1.0815
 3566TIP3   OH232112   3.699   1.996  15.906 -0.0020  0.0715  0.2935
 3566TIP3    H132113   3.685   2.084  15.870 -0.8531 -0.3095 -0.3344
 3566TIP3    H232114   3.640   1.991  15.981 -0.6757 -0.3067 -0.2588
 3567TIP3   OH232115   3.997   3.865   4.169  0.0061 -0.0572 -0.0293
 3567TIP3    H132116   4.074   3.888   4.117 -0.8619 -0.1823 -1.3868
 3567TIP3    H232117   3.955   3.949   4.188 -1.2974 -0.2041 -2.0894
 3568TIP3   OH232118   5.601   2.922  14.531 -0.9526  0.0676  0.1055
 3568TIP3    H132119   5.567   2.879  14.609 -1.9120  1.6573  0.6033
 3568TIP3    H232120   5.544   2.892  14.460  0.0256 -1.5083 -0.0279
 3569TIP3   OH232121   3.458   0.889   3.288 -0.0556 -0.2985  0.2095
 3569TIP3    H132122   3.472   0.918   3.378 -3.4844 -0.0627  0.7157
 3569TIP3    H232123   3.483   0.797   3.289  0.9479 -0.0253  1.1426
 3570TIP3   OH232124   5.876   1.515   3.661 -0.4108  0.0984  0.3599
 3570TIP3    H132125   5.849   1.595   3.707  0.8024  1.5405 -1.3763
 3570TIP3    H232126   5.970   1.525   3.650 -0.4812 -0.8631 -1.2043
 3571TIP3   OH232127   0.562   6.171   4.805  0.1072  0.1647  0.1049
 3571TIP3    H132128   0.506   6.100   4.774 -0.0546  0.9139 -1.3258
 3571TIP3    H232129   0.644   6.160   4.758  0.0644  0.9604 -0.1588
 3572TIP3   OH232130   4.863   3.004  12.356 -0.7047 -0.7150  0.1664
 3572TIP3    H132131   4.851   3.043  12.443 -2.3147 -0.3695 -0.1977
 3572TIP3    H232132   4.925   2.933  12.370  2.2195  1.8415  0.8853
 3573TIP3   OH232133   5.506   0.921   4.384 -0.1407  0.3084  0.5120
 3573TIP3    H132134   5.485   0.892   4.295  0.6562 -1.5258  0.8924
 3573TIP3    H232135   5.508   0.840   4.435 -0.4244  1.3330  2.1689
 3574TIP3   OH232136   2.825   1.254   2.738 -0.0574  0.5328  0.1607
 3574TIP3    H132137   2.805   1.165   2.709  0.0092  1.0286 -1.4236
 3574TIP3    H232138   2.842   1.244   2.832 -0.4685 -1.0540  0.0959
 3575TIP3   OH232139   3.009   3.072   2.421 -0.1034 -0.1002 -0.0795
 3575TIP3    H132140   2.934   3.104   2.370 -0.9490 -0.4769  0.9131
 3575TIP3    H232141   2.974   3.058   2.509  0.7762 -1.7079  0.0325
 3576TIP3   OH232142   4.388   0.900   2.000  0.0634  0.0909  0.0820
 3576TIP3    H132143   4.339   0.822   1.976 -1.9310  1.1585  0.5376
 3576TIP3    H232144   4.359   0.967   1.938  0.0691  1.0510  1.0886
 3577TIP3   OH232145   0.294   0.225   1.068  0.1663 -0.0963 -0.0255
 3577TIP3    H132146   0.326   0.306   1.108 -3.8871  1.1579  0.9055
 3577TIP3    H232147   0.333   0.155   1.120  0.6182  1.3704  1.6734
 3578TIP3   OH232148   0.793   0.424  13.005  0.3418  0.2925  0.2462
 3578TIP3    H132149   0.862   0.472  12.959 -0.9430 -1.3056 -3.5532
 3578TIP3    H232150   0.717   0.482  13.002  0.0963 -0.0490 -0.1742
 3579TIP3   OH232151   2.922   2.057  13.525  0.2411  0.0841 -0.7822
 3579TIP3    H132152   2.896   2.093  13.610 -2.1470  0.2157 -1.5083
 3579TIP3    H232153   2.981   2.122  13.488  1.1021  0.1394  0.6597
 3580TIP3   OH232154   3.906   4.839  15.946 -0.2357  0.0584 -0.3918
 3580TIP3    H132155   3.862   4.897  16.008 -1.7500  0.6951 -2.0154
 3580TIP3    H232156   3.975   4.797  15.997 -0.4549  1.7288  1.3264
 3581TIP3   OH232157   5.952   0.572  16.511  0.6472  0.0767 -0.0684
 3581TIP3    H132158   6.016   0.562  16.581 -0.8444  1.3871  1.5121
 3581TIP3    H232159   5.874   0.527  16.543 -0.1110  0.8591 -0.7883
 3582TIP3   OH232160   3.950   2.345  16.443  0.4636 -0.5815 -0.1352
 3582TIP3    H132161   3.879   2.393  16.401  0.7359 -0.8558 -0.9236
 3582TIP3    H232162   3.996   2.410  16.495 -0.6233 -0.4877  0.7296
 3583TIP3   OH232163   2.839   1.759   0.300  0.1688 -0.6279  0.4376
 3583TIP3    H132164   2.799   1.676   0.274  1.4909 -1.2924  0.4692
 3583TIP3    H232165   2.933   1.744   0.290  0.3843  1.1321 -0.3303
 3584TIP3   OH232166   2.360   0.517   0.254  0.4971  0.6101  0.2170
 3584TIP3    H132167   2.292   0.460   0.217  1.4140 -1.2299  1.2590
 3584TIP3    H232168   2.383   0.476   0.337  0.5942  3.0311  1.4023
 3585TIP3   OH232169   5.424   2.816  14.698 -0.3369  0.0351  0.2102
 3585TIP3    H132170   5.419   2.882  14.767  0.5261 -0.6256  0.9176
 3585TIP3    H232171   5.394   2.735  14.739 -1.1890 -0.0623 -0.5950
 3586TIP3   OH232172   5.356   2.136  12.254  0.4161  0.4547 -0.4043
 3586TIP3    H132173   5.267   2.102  12.263 -0.0114  1.8218  0.6611
 3586TIP3    H232174   5.376   2.173  12.340  1.7937  0.6857 -0.8214
 3587TIP3   OH232175   4.270   3.473   0.098  0.2570  0.2409 -0.4716
 3587TIP3    H132176   4.231   3.537   0.038 -1.8872 -0.6012 -0.0362
 3587TIP3    H232177   4.342   3.434   0.048 -0.2467  0.9533 -1.7801
 3588TIP3   OH232178   6.516   5.557   1.317  0.4840 -0.5290  0.4126
 3588TIP3    H132179   6.465   5.610   1.256 -0.6148 -0.3499  1.4636
 3588TIP3    H232180   6.496   5.593   1.403  1.7060 -1.0316  0.9162
 3589TIP3   OH232181   2.645   3.098  15.552 -0.2128  0.0777 -0.4713
 3589TIP3    H132182   2.648   3.023  15.611  2.8699  1.9153  1.8310
 3589TIP3    H232183   2.581   3.157  15.591  1.8937  1.3348  1.1866
 3590TIP3   OH232184   2.821   6.280  13.660 -0.3388 -0.4219 -0.1252
 3590TIP3    H132185   2.759   6.302  13.590 -1.7377 -0.4336  1.0742
 3590TIP3    H232186   2.907   6.290  13.620 -1.1259 -0.9919 -2.0048
 3591TIP3   OH232187   0.318   3.611   1.874 -0.2928  0.1546 -0.1602
 3591TIP3    H132188   0.270   3.590   1.954  0.8600 -0.4802  0.3800
 3591TIP3    H232189   0.311   3.531   1.821  1.0031 -0.3085  0.3495
 3592TIP3   OH232190   6.304   2.332   2.693  0.1802  0.4564  0.4216
 3592TIP3    H132191   6.210   2.350   2.696 -0.3119 -2.0474  1.0397
 3592TIP3    H232192   6.325   2.303   2.782  0.9857 -1.5953 -0.4370
 3593TIP3   OH232193   1.936   4.265   3.712  0.2541  0.1585 -0.0443
 3593TIP3    H132194   1.885   4.263   3.792 -0.5860 -1.0273 -0.5983
 3593TIP3    H232195   1.875   4.296   3.645  0.0503 -1.8597 -0.8317
 3594TIP3   OH232196   2.047   4.359  14.413  0.3967  0.0655 -0.5785
 3594TIP3    H132197   1.974   4.298  14.399  0.3543  0.1721 -0.8309
 3594TIP3    H232198   2.038   4.386  14.504  0.5892 -0.5323 -0.3806
 3595TIP3   OH232199   5.956   2.443   4.768 -0.5390 -0.4161 -0.2020
 3595TIP3    H132200   5.894   2.446   4.842 -1.1165 -1.1344 -0.6484
 3595TIP3    H232201   5.925   2.371   4.714  0.8339 -0.9226 -0.3200
 3596TIP3   OH232202   5.803   2.313  14.313  0.2678 -0.0515  0.0098
 3596TIP3    H132203   5.897   2.312  14.335  0.4106 -0.3117 -0.6110
 3596TIP3    H232204   5.770   2.392  14.355  0.7836  0.0843  0.1675
 3597TIP3   OH232205   6.507   4.564  12.195  0.3995  0.3371 -0.2703
 3597TIP3    H132206   6.505   4.640  12.253  0.2154  0.5586 -0.5648
 3597TIP3    H232207   6.415   4.547  12.173  0.5116  0.6930 -1.0550
 3598TIP3   OH232208   6.628   0.368   0.386  0.9101  0.8998  0.4861
 3598TIP3    H132209   6.628   0.458   0.418 -1.4021  0.8566  0.7337
 3598TIP3    H232210   6.631   0.377   0.291 -4.3931  1.5296  0.2058
 3599TIP3   OH232211   1.444   1.572  17.066  0.4247 -0.3510 -0.3922
 3599TIP3    H132212   1.521   1.545  17.018 -0.0860 -0.8168 -0.9606
 3599TIP3    H232213   1.382   1.601  16.999  0.8498  1.9956  0.1779
 3600TIP3   OH232214   1.294   1.677   0.739  0.0629 -0.1534 -0.1924
 3600TIP3    H132215   1.258   1.682   0.828  1.0754  0.9680  0.1720
 3600TIP3    H232216   1.219   1.694   0.682 -0.5100 -0.4638  0.4580
 3601TIP3   OH232217   2.827   3.191  10.738 -0.2737  0.4535  0.0116
 3601TIP3    H132218   2.863   3.280  10.730  0.5784  0.2231  1.0911
 3601TIP3    H232219   2.904   3.135  10.749 -0.8321 -0.3600 -0.2198
 3602TIP3   OH232220   4.117   6.287  12.938  0.2913  0.1369 -0.2444
 3602TIP3    H132221   4.027   6.297  12.907  0.6693  1.6296 -0.8810
 3602TIP3    H232222   4.171   6.313  12.864  1.3082 -2.8325 -0.6149
 3603TIP3   OH232223   5.609   0.437  16.875 -0.1375  0.5399 -0.7020
 3603TIP3    H132224   5.516   0.435  16.897 -0.0946 -0.0509 -0.5715
 3603TIP3    H232225   5.654   0.441  16.959 -0.0477  1.2657 -0.7723
 3604TIP3   OH232226   6.127   1.345   2.453 -0.4891  0.1104 -0.4859
 3604TIP3    H132227   6.044   1.298   2.458  0.2488 -1.1361  0.4384
 3604TIP3    H232228   6.128   1.400   2.531 -0.8654  0.8631 -1.0022
 3605TIP3   OH232229   0.890   0.473  17.017 -0.2059  0.0753  0.8384
 3605TIP3    H132230   0.905   0.415  16.943  1.3569 -0.0787  1.2679
 3605TIP3    H232231   0.977   0.490  17.053 -0.6435  2.4669  0.8841
 3606TIP3   OH232232   4.726   1.540  15.099  0.4247  0.2743  0.6863
 3606TIP3    H132233   4.754   1.626  15.067 -1.0518  0.0109 -1.4314
 3606TIP3    H232234   4.785   1.478  15.056  0.1020  0.0978  0.4902
 3607TIP3   OH232235   3.978   5.460   5.528  0.1125 -0.1602 -0.3546
 3607TIP3    H132236   3.965   5.441   5.435  0.3154 -2.0139 -0.0266
 3607TIP3    H232237   4.037   5.391   5.559 -2.7472 -1.6912  1.9364
 3608TIP3   OH232238   6.085   1.671  11.600 -0.0960  0.3208 -0.6308
 3608TIP3    H132239   6.156   1.618  11.563 -0.4611  0.0464 -0.9465
 3608TIP3    H232240   6.125   1.757  11.615  0.7672 -0.3187  0.8251
 3609TIP3   OH232241   3.456   0.817   1.641  0.5372 -0.1584  0.3102
 3609TIP3    H132242   3.431   0.784   1.554 -0.4493  0.6497  0.2837
 3609TIP3    H232243   3.437   0.910   1.638  0.7720 -0.0733  1.3082
 3610TIP3   OH232244   5.461   2.546   1.713 -0.1777  0.1353 -0.2581
 3610TIP3    H132245   5.471   2.600   1.791 -0.4723  1.5564 -1.1784
 3610TIP3    H232246   5.381   2.578   1.671 -0.0190 -0.5947 -1.1577
 3611TIP3   OH232247   1.715   5.932   4.476 -0.1935 -0.1239  1.5010
 3611TIP3    H132248   1.627   5.934   4.514 -0.5251  0.9147  0.7271
 3611TIP3    H232249   1.701   5.909   4.384  0.3909 -0.4364  1.4879
 3612TIP3   OH232250   5.630   5.559   2.844  0.0396  0.1360 -0.1529
 3612TIP3    H132251   5.711   5.590   2.803 -1.1500  2.1884 -1.0386
 3612TIP3    H232252   5.646   5.570   2.938  0.7239  0.6838 -0.3288
 3613TIP3   OH232253   3.180   5.120   0.951  0.6075  0.3344 -0.5437
 3613TIP3    H132254   3.197   5.029   0.978  0.7469  0.5943  0.2549
 3613TIP3    H232255   3.265   5.154   0.925  0.6971  0.5033 -0.0261
 3614TIP3   OH232256   1.448   5.625   3.541 -0.3452  0.0793  0.3189
 3614TIP3    H132257   1.367   5.643   3.495 -1.1726 -0.4996  1.5316
 3614TIP3    H232258   1.477   5.540   3.507  0.6646  1.0757 -1.3605
 3615TIP3   OH232259   4.482   1.704  15.285 -0.6641 -0.0787  0.2489
 3615TIP3    H132260   4.521   1.756  15.215 -0.1936  0.6197  1.0225
 3615TIP3    H232261   4.546   1.635  15.304 -1.4729 -1.2095 -1.0664
 3616TIP3   OH232262   1.495   3.111  15.432 -0.4404  0.7800  0.1457
 3616TIP3    H132263   1.464   3.197  15.403 -0.0987  1.4896  1.8127
 3616TIP3    H232264   1.514   3.064  15.352  0.5644  2.7156 -0.8046
 3617TIP3   OH232265   1.281   1.208   5.476 -0.1459  0.0747 -0.0147
 3617TIP3    H132266   1.188   1.187   5.469  0.0683 -1.0089  0.2860
 3617TIP3    H232267   1.310   1.213   5.385 -0.7732  1.7383 -0.1408
 3618TIP3   OH232268   1.617   0.772  14.082 -0.1858 -0.4651 -0.0283
 3618TIP3    H132269   1.649   0.789  13.993  0.0492  0.2392  0.1821
 3618TIP3    H232270   1.694   0.785  14.138 -0.7014  0.7468  0.4329
 3619TIP3   OH232271   0.754   0.054   5.686  0.0706 -0.2022  0.1810
 3619TIP3    H132272   0.806   0.131   5.665 -0.3700  0.0571  0.0412
 3619TIP3    H232273   0.756   0.001   5.606  1.3951 -0.9228  0.6752
 3620TIP3   OH232274   4.609   2.088   6.094 -0.2009  0.0498 -0.3621
 3620TIP3    H132275   4.525   2.048   6.069  0.3031 -0.9379 -0.5253
 3620TIP3    H232276   4.587   2.148   6.164 -1.1820  0.4606 -1.0016
 3621TIP3   OH232277   2.441   3.791   0.938  0.4809 -0.1958 -0.3388
 3621TIP3    H132278   2.448   3.882   0.910 -1.8221  0.2467  0.4421
 3621TIP3    H232279   2.428   3.742   0.856  0.2046  0.3437 -0.6209
 3622TIP3   OH232280   0.594   5.656   2.404  0.1865 -0.2296 -1.0190
 3622TIP3    H132281   0.655   5.699   2.464  0.6275 -0.7448 -1.0954
 3622TIP3    H232282   0.535   5.607   2.462  0.6387 -0.7615 -1.0006
 3623TIP3   OH232283   1.116   6.519  14.401 -0.1804 -0.2047  0.2731
 3623TIP3    H132284   1.105   6.433  14.360  1.8572 -2.2339  3.6676
 3623TIP3    H232285   1.179   6.565  14.346 -1.5130 -0.7645 -1.7412
 3624TIP3   OH232286   3.694   5.330   0.212  0.3478  0.3154 -0.3380
 3624TIP3    H132287   3.607   5.291   0.205  0.3330  0.1928  0.5849
 3624TIP3    H232288   3.678   5.425   0.205 -0.2860  0.5576  3.6672
 3625TIP3   OH232289   4.755   2.351   2.288  0.7378 -0.5871  0.1387
 3625TIP3    H132290   4.725   2.279   2.233  0.9760 -1.0547  0.6097
 3625TIP3    H232291   4.816   2.310   2.349  2.8194  0.4688 -1.1928
 3626TIP3   OH232292   4.890   2.879   0.942 -0.4796  0.2397 -0.4758
 3626TIP3    H132293   4.892   2.917   0.854  1.2324  0.1289 -0.4971
 3626TIP3    H232294   4.870   2.953   1.000  1.2781  0.8891 -0.6778
 3627TIP3   OH232295   1.285   5.597   5.153 -0.2466  0.1444 -0.2111
 3627TIP3    H132296   1.192   5.584   5.135 -0.8229  0.6614  2.1816
 3627TIP3    H232297   1.316   5.654   5.082 -2.3214  1.9819  0.2990
 3628TIP3   OH232298   5.711   3.427  14.400 -0.0775 -0.6840 -0.4613
 3628TIP3    H132299   5.806   3.428  14.415 -0.0595  2.0105 -0.6040
 3628TIP3    H232300   5.674   3.468  14.478 -0.9145  0.8716 -1.6433
 3629TIP3   OH232301   0.667   0.684   0.504 -0.3470  0.1851  1.0184
 3629TIP3    H132302   0.588   0.650   0.461  0.4333  0.9980 -1.1390
 3629TIP3    H232303   0.634   0.747   0.568 -1.4031  1.9144 -1.1632
 3630TIP3   OH232304   6.649   5.739   0.394  0.0916 -0.2793 -0.1979
 3630TIP3    H132305   6.595   5.670   0.433  0.1266  0.2622  0.8197
 3630TIP3    H232306   6.733   5.731   0.439 -0.6201  1.8933  1.5694
 3631TIP3   OH232307   4.067   2.475  14.544  0.6063  0.1420 -0.0800
 3631TIP3    H132308   4.160   2.473  14.566  0.2636 -0.9544  1.3459
 3631TIP3    H232309   4.046   2.384  14.522 -0.2424  0.2953  0.0928
 3632TIP3   OH232310   4.423   2.744  13.870 -0.2325  0.1918 -0.0103
 3632TIP3    H132311   4.445   2.761  13.779  0.2788  0.8094  0.2264
 3632TIP3    H232312   4.328   2.751  13.873 -0.2230  0.5212 -0.4265
 3633TIP3   OH232313   4.109   4.938   3.988  0.1826  0.3144 -0.4887
 3633TIP3    H132314   4.168   4.965   4.058  0.3085 -1.1920  0.0162
 3633TIP3    H232315   4.060   4.864   4.025 -1.9384  1.4506 -0.9325
 3634TIP3   OH232316   6.604   4.370   2.257 -0.2908 -0.8271 -0.6604
 3634TIP3    H132317   6.665   4.433   2.294 -0.4338 -1.5839  0.8890
 3634TIP3    H232318   6.528   4.371   2.316 -0.7243 -1.6972 -1.1843
 3635TIP3   OH232319   0.589   4.427  16.132 -0.2149  0.3558 -0.1748
 3635TIP3    H132320   0.648   4.502  16.131  0.0430  0.1558 -1.7509
 3635TIP3    H232321   0.532   4.442  16.207  0.8737  1.3041  0.4860
 3636TIP3   OH232322   1.400   0.253  14.866 -0.1268  0.3516 -0.3009
 3636TIP3    H132323   1.319   0.298  14.889 -1.1882 -1.0140 -1.2591
 3636TIP3    H232324   1.419   0.284  14.777 -0.4253 -0.4512 -0.6512
 3637TIP3   OH232325   3.575   3.238  15.695  0.5006  0.4654  0.2285
 3637TIP3    H132326   3.650   3.234  15.755 -0.8856 -1.2239  1.9193
 3637TIP3    H232327   3.547   3.147  15.686 -2.2110  1.1987  0.7638
 3638TIP3   OH232328   1.970   3.852   1.252  0.5030 -0.3462  0.5983
 3638TIP3    H132329   1.977   3.822   1.161  1.6900 -0.9056  0.8622
 3638TIP3    H232330   1.889   3.812   1.284  1.1305 -1.8126  0.3919
 3639TIP3   OH232331   6.364   3.334  16.592 -1.1052 -0.0282 -0.0585
 3639TIP3    H132332   6.351   3.405  16.655 -1.8565 -1.0322  0.9295
 3639TIP3    H232333   6.285   3.336  16.538 -0.1940  1.2253 -1.3944
 3640TIP3   OH232334   6.747   2.043   3.615 -0.0713 -0.1478 -0.6246
 3640TIP3    H132335   6.688   2.051   3.690  2.2358 -0.4073  1.2961
 3640TIP3    H232336   6.760   1.949   3.604  1.3836 -0.0466  0.1303
 3641TIP3   OH232337   5.492   0.882   6.322 -0.1059 -0.4907  0.3003
 3641TIP3    H132338   5.424   0.950   6.324  0.3708  0.0994 -1.9708
 3641TIP3    H232339   5.447   0.803   6.351 -2.2384 -0.4682 -2.7554
 3642TIP3   OH232340   1.494   3.711   6.467 -0.3281 -0.1492 -0.4105
 3642TIP3    H132341   1.446   3.709   6.384  0.1600 -2.2160 -0.6781
 3642TIP3    H232342   1.425   3.709   6.534 -0.7121  1.1651 -0.7598
 3643TIP3   OH232343   2.980   6.147   0.356  0.2519  0.4187 -0.6704
 3643TIP3    H132344   2.995   6.183   0.444  0.7057 -0.0189 -0.5660
 3643TIP3    H232345   2.954   6.056   0.372  0.1496  0.3926 -0.9834
 3644TIP3   OH232346   6.686   6.400   6.365  0.0997 -0.3073  0.5547
 3644TIP3    H132347   6.645   6.413   6.450  1.3458 -0.7796  1.2473
 3644TIP3    H232348   6.690   6.488   6.327 -0.9938 -0.1745  0.7228
 3645TIP3   OH232349   0.550   3.469   2.718 -0.6300  0.5909 -0.3162
 3645TIP3    H132350   0.471   3.420   2.695  0.1430 -0.6746 -0.3230
 3645TIP3    H232351   0.533   3.558   2.686 -2.8954  0.8888  1.5343
 3646TIP3   OH232352   0.421   6.473  13.070  0.2811  0.4007  0.1983
 3646TIP3    H132353   0.410   6.440  13.159  1.6921  0.7277  0.5179
 3646TIP3    H232354   0.378   6.408  13.014  0.7226 -0.6013  1.0086
 3647TIP3   OH232355   5.963   5.405  12.091  0.2403  0.1101  0.2070
 3647TIP3    H132356   6.043   5.363  12.059 -0.5947 -2.4584  1.4143
 3647TIP3    H232357   5.892   5.353  12.053 -1.0758  4.5630 -3.9775
 3648TIP3   OH232358   3.237   1.679   0.544  0.4591  0.1314  0.4450
 3648TIP3    H132359   3.174   1.713   0.480 -0.5692  0.1600  1.4478
 3648TIP3    H232360   3.233   1.584   0.534  0.5909  0.1523  0.1953
 3649TIP3   OH232361   6.536   0.992   1.026  0.4472 -0.4793  0.6562
 3649TIP3    H132362   6.452   0.975   0.985  1.1276 -2.0799 -0.1116
 3649TIP3    H232363   6.568   1.072   0.984 -0.8554  0.3523  1.2369
 3650TIP3   OH232364   5.140   4.517  14.486  0.1555 -0.4582 -0.2623
 3650TIP3    H132365   5.219   4.520  14.432  0.1409  0.7667 -0.2181
 3650TIP3    H232366   5.173   4.517  14.576  0.1515 -1.6747 -0.2498
 3651TIP3   OH232367   3.483   0.876   0.689  0.1610  0.6512 -0.0121
 3651TIP3    H132368   3.410   0.887   0.629 -0.0485 -1.4453 -0.1651
 3651TIP3    H232369   3.561   0.873   0.633 -0.2091 -3.4605 -0.4587
 3652TIP3   OH232370   1.716   4.905  15.225 -0.4842  0.3305  0.5894
 3652TIP3    H132371   1.669   4.976  15.268 -0.4053 -0.5303  2.1491
 3652TIP3    H232372   1.800   4.943  15.198 -0.0775  0.6153  2.2071
 3653TIP3   OH232373   1.898   1.915   0.723 -0.3915 -0.3711  0.2031
 3653TIP3    H132374   1.946   1.865   0.656 -0.5980 -3.0478  1.9771
 3653TIP3    H232375   1.876   1.850   0.789 -0.3570  2.1856  2.8022
 3654TIP3   OH232376   6.750   5.663   5.624  0.2015  0.1100  0.6463
 3654TIP3    H132377   6.669   5.665   5.572  0.4253 -0.2575  0.2788
 3654TIP3    H232378   6.811   5.717   5.575  0.2273  0.2636  0.8470
 3655TIP3   OH232379   0.281   2.204   1.143  0.0940  0.5858  0.1677
 3655TIP3    H132380   0.221   2.147   1.095  1.0530  0.5935 -1.0503
 3655TIP3    H232381   0.330   2.144   1.200  0.6074  0.2729 -0.5972
 3656TIP3   OH232382   3.648   1.055   4.240 -0.8981  0.2032 -0.3799
 3656TIP3    H132383   3.692   1.116   4.181  1.0580 -0.1737  0.6298
 3656TIP3    H232384   3.561   1.043   4.203 -0.5053  1.8146 -1.8503
 3657TIP3   OH232385   4.662   2.507  14.651  0.2815 -0.0940  0.0935
 3657TIP3    H132386   4.648   2.499  14.557  1.7213  0.3666 -0.1705
 3657TIP3    H232387   4.590   2.562  14.682 -1.8710 -2.6522 -0.2525
 3658TIP3   OH232388   4.289   6.178  11.611  0.0270  0.2582  0.0952
 3658TIP3    H132389   4.302   6.273  11.607 -1.8163  0.5086 -0.6709
 3658TIP3    H232390   4.194   6.168  11.613  0.2109 -1.5879 -0.2806
 3659TIP3   OH232391   4.922   1.196   1.152 -0.9976 -0.2271 -0.1506
 3659TIP3    H132392   5.013   1.164   1.147 -0.4902  0.8558  1.6658
 3659TIP3    H232393   4.916   1.261   1.082 -0.3735 -0.2869 -0.2682
 3660TIP3   OH232394   1.363   5.776   4.439  0.1061 -0.9936 -0.5847
 3660TIP3    H132395   1.444   5.725   4.432  0.6347 -0.2017 -0.4550
 3660TIP3    H232396   1.297   5.723   4.395  1.1899 -0.6367 -2.7209
 3661TIP3   OH232397   2.405   4.182  16.879  0.3928  0.1338  0.4837
 3661TIP3    H132398   2.425   4.102  16.927 -0.8184 -1.2149 -1.2051
 3661TIP3    H232399   2.349   4.232  16.938  1.7892  0.1365  1.8626
 3662TIP3   OH232400   3.828   1.584  16.692  0.0726 -0.2127 -0.8740
 3662TIP3    H132401   3.896   1.555  16.631 -0.0435 -0.8051 -0.7328
 3662TIP3    H232402   3.842   1.531  16.771 -1.1864 -1.0884 -1.2242
 3663TIP3   OH232403   1.095   4.134   0.862  0.0813  0.2455 -0.2629
 3663TIP3    H132404   1.156   4.194   0.819  0.8142 -0.0407  0.3565
 3663TIP3    H232405   1.148   4.058   0.886 -0.5700 -0.1139  0.0769
 3664TIP3   OH232406   4.282   3.780   1.701  0.5736  0.1861  0.2941
 3664TIP3    H132407   4.300   3.823   1.784  0.9007 -1.6720  1.2243
 3664TIP3    H232408   4.273   3.687   1.724  2.5679 -0.6308 -2.0109
 3665TIP3   OH232409   5.440   0.216   0.104 -0.0854  0.7649 -0.1040
 3665TIP3    H132410   5.421   0.292   0.159 -0.7369 -0.2141  1.0392
 3665TIP3    H232411   5.421   0.246   0.015  1.0570  2.3854  0.1607
 3666TIP3   OH232412   1.196   3.317   1.514 -0.0724 -0.1202 -0.5784
 3666TIP3    H132413   1.253   3.324   1.437 -0.1877 -0.4741 -0.6970
 3666TIP3    H232414   1.181   3.223   1.524  0.2354 -0.1006  0.0926
 3667TIP3   OH232415   3.593   1.254  16.004  0.4895  0.0272  0.2887
 3667TIP3    H132416   3.560   1.274  16.092  2.3557  2.2467  0.5260
 3667TIP3    H232417   3.687   1.243  16.017  0.5767 -1.0074 -1.2211
 3668TIP3   OH232418   3.031   3.864  14.610  0.1213  0.1873  0.4967
 3668TIP3    H132419   3.009   3.772  14.595  0.0155  0.6068 -2.2191
 3668TIP3    H232420   2.946   3.907  14.624  0.0235  0.1860 -0.1030
 3669TIP3   OH232421   4.820   1.921   2.348 -0.0903 -0.7209 -0.3119
 3669TIP3    H132422   4.833   1.856   2.279  1.8687 -0.2324 -0.4495
 3669TIP3    H232423   4.844   2.004   2.306  0.0471 -0.2830  0.6385
 3670TIP3   OH232424   1.033   0.088  16.969 -0.2111  0.3184  0.0692
 3670TIP3    H132425   1.013  -0.005  16.956  1.0516  0.2022 -1.1547
 3670TIP3    H232426   1.020   0.104  17.062 -2.5355 -0.5841 -0.0740
 3671TIP3   OH232427   3.204   6.452  15.535  0.0138 -0.4835  0.4040
 3671TIP3    H132428   3.215   6.522  15.599 -0.0073 -1.9547  2.0791
 3671TIP3    H232429   3.273   6.468  15.470 -1.4056  2.3392 -0.4836
 3672TIP3   OH232430   3.244   6.203  15.247 -0.3921 -0.1080  0.1409
 3672TIP3    H132431   3.169   6.222  15.303 -0.4797 -0.4329  0.1385
 3672TIP3    H232432   3.300   6.145  15.300  0.7879  1.6540  0.8482
 3673TIP3   OH232433   5.238   2.858  12.608  0.2507  0.3330  0.8797
 3673TIP3    H132434   5.174   2.882  12.675  0.2810 -0.1585  1.0843
 3673TIP3    H232435   5.187   2.812  12.541  0.4243 -0.2324  1.1358
 3674TIP3   OH232436   5.922   4.738  15.621 -0.1274 -0.6048 -0.1583
 3674TIP3    H132437   5.961   4.698  15.542 -0.2034  0.1093 -0.5650
 3674TIP3    H232438   5.843   4.782  15.589  0.2778  0.3813  0.1729
 3675TIP3   OH232439   2.138   3.503   0.750  0.0295  0.2146 -0.1695
 3675TIP3    H132440   2.185   3.459   0.821 -0.1275 -1.7340 -1.2110
 3675TIP3    H232441   2.092   3.432   0.705 -2.9595  1.9185  0.0988
 3676TIP3   OH232442   5.769   2.080   2.033  0.4611 -0.4867  0.2918
 3676TIP3    H132443   5.846   2.128   2.063  1.3558 -0.7128 -1.5656
 3676TIP3    H232444   5.761   2.101   1.941 -1.5878 -0.6590  0.3930
 3677TIP3   OH232445   1.807   2.326   5.936 -0.5449 -0.1112 -0.2210
 3677TIP3    H132446   1.812   2.418   5.963  0.0557 -0.2561  0.1695
 3677TIP3    H232447   1.884   2.285   5.976 -0.6432 -0.7190 -0.6481
 3678TIP3   OH232448   6.342   1.473   2.321 -0.4501  0.1671  0.0178
 3678TIP3    H132449   6.419   1.470   2.377 -0.4004 -0.9922 -0.1016
 3678TIP3    H232450   6.270   1.449   2.379 -0.5160 -0.2115 -0.2225
 3679TIP3   OH232451   6.166   1.279  11.767  0.2032 -0.4288  0.0603
 3679TIP3    H132452   6.183   1.188  11.787  0.6941 -0.3410  0.0304
 3679TIP3    H232453   6.131   1.316  11.849  0.6730 -0.4672  0.2768
 3680TIP3   OH232454   6.541   6.329  15.539 -0.3248 -0.0002 -0.0441
 3680TIP3    H132455   6.628   6.368  15.534 -0.5091  0.5552  0.9444
 3680TIP3    H232456   6.491   6.373  15.470 -0.1635  0.5629  0.1941
 3681TIP3   OH232457   4.452   0.236   1.938  0.5758  0.1076  0.0088
 3681TIP3    H132458   4.421   0.276   2.020  0.2001 -0.9101  0.3826
 3681TIP3    H232459   4.483   0.150   1.965  0.6210 -0.1585 -0.8976
 3682TIP3   OH232460   1.877   1.152   3.194 -0.2560 -0.2427  0.0099
 3682TIP3    H132461   1.819   1.083   3.161  0.3170 -0.3741 -0.7546
 3682TIP3    H232462   1.854   1.230   3.142  0.2522 -0.3010 -0.3115
 3683TIP3   OH232463   1.781   3.623  10.507  0.4756  0.2946  0.4895
 3683TIP3    H132464   1.850   3.567  10.472 -0.9467 -0.9192 -0.4626
 3683TIP3    H232465   1.788   3.704  10.456  0.5228 -0.2228 -0.3287
 3684TIP3   OH232466   1.491   3.359  15.892  0.0930 -0.2721 -0.6400
 3684TIP3    H132467   1.585   3.368  15.875  0.6411 -1.0711  1.7662
 3684TIP3    H232468   1.467   3.439  15.938  0.3519 -1.5194  1.7318
 3685TIP3   OH232469   0.719   6.490  15.134  0.6071 -0.0913 -0.1779
 3685TIP3    H132470   0.705   6.423  15.201  1.6306  0.8825  1.0159
 3685TIP3    H232471   0.645   6.477  15.074  0.8687 -2.3902 -0.0781
 3686TIP3   OH232472   3.152   1.894  15.314  0.2112  0.1994  0.6407
 3686TIP3    H132473   3.106   1.812  15.297 -0.5623  0.9073 -0.7305
 3686TIP3    H232474   3.231   1.868  15.361  1.1638 -1.5586 -1.8698
 3687TIP3   OH232475   0.948   0.800  15.067  0.9556  0.5142  0.6615
 3687TIP3    H132476   1.007   0.833  14.999 -0.5465  0.3701 -0.7437
 3687TIP3    H232477   0.908   0.879  15.104  0.1427  0.4891 -0.1425
 3688TIP3   OH232478   5.477   0.668   5.748 -0.3228 -0.1966  0.1097
 3688TIP3    H132479   5.445   0.720   5.822  0.7984  0.4719  0.1372
 3688TIP3    H232480   5.569   0.651   5.768 -0.1761 -0.5421 -0.8329
 3689TIP3   OH232481   5.754   1.478   3.961  0.0072 -0.3049  0.0321
 3689TIP3    H132482   5.687   1.469   3.894 -0.3891 -1.8606  0.6239
 3689TIP3    H232483   5.711   1.525   4.032 -0.2673 -0.7319  0.1491
 3690TIP3   OH232484   6.642   3.403  12.823  0.5853  0.3542  0.5198
 3690TIP3    H132485   6.599   3.358  12.896  0.5683 -0.4082  0.0525
 3690TIP3    H232486   6.570   3.445  12.775  0.4425 -0.2355  0.2079
 3691TIP3   OH232487   3.276   0.205  13.234 -0.0455  0.0249  0.3339
 3691TIP3    H132488   3.202   0.145  13.233 -0.5023  0.5350  2.0505
 3691TIP3    H232489   3.251   0.273  13.297  0.8522  1.5143 -0.8690
 3692TIP3   OH232490   2.055   1.790   1.594 -0.2122 -0.1078 -0.3230
 3692TIP3    H132491   2.089   1.878   1.575 -0.8223  0.1337 -0.3295
 3692TIP3    H232492   2.101   1.732   1.534  0.9427  0.0632  0.3864
 3693TIP3   OH232493   3.400   1.140  17.221 -0.6088  0.6707 -0.6018
 3693TIP3    H132494   3.454   1.216  17.200 -1.2237  1.1778 -0.3513
 3693TIP3    H232495   3.462   1.076  17.255 -0.0034  0.8465 -1.3644
 3694TIP3   OH232496   0.383   6.400   4.460  0.5176  0.2288  0.5110
 3694TIP3    H132497   0.289   6.385   4.450  1.0348 -1.8704 -1.5610
 3694TIP3    H232498   0.400   6.480   4.409  0.0685 -0.1545 -0.2472
 3695TIP3   OH232499   5.176   0.195  12.004  0.0320 -0.2608  0.4628
 3695TIP3    H132500   5.129   0.114  12.024 -1.8288  1.1723  2.0826
 3695TIP3    H232501   5.201   0.185  11.912 -1.5567 -1.9977  0.1871
 3696TIP3   OH232502   5.040   5.111   0.466 -0.6788 -0.5417  0.6436
 3696TIP3    H132503   5.048   5.049   0.394  0.5407 -0.4845  0.7187
 3696TIP3    H232504   5.075   5.064   0.542 -0.2150  0.0636  0.8063
 3697TIP3   OH232505   4.922   5.070  13.051 -0.2265 -0.0728 -0.4770
 3697TIP3    H132506   4.876   5.152  13.070 -2.5069 -1.3521 -0.2858
 3697TIP3    H232507   5.004   5.077  13.099 -0.4412  2.0437 -0.3630
 3698TIP3   OH232508   5.008   4.554  17.169  0.4305 -0.5358  0.1863
 3698TIP3    H132509   4.936   4.531  17.228  0.1975 -0.7956 -0.2004
 3698TIP3    H232510   5.061   4.617  17.219  0.3809 -0.9588  0.7698
 3699TIP3   OH232511   0.087   2.373   2.670 -0.1218 -0.4315  0.1731
 3699TIP3    H132512  -0.002   2.364   2.636  0.0692 -1.0145 -0.1658
 3699TIP3    H232513   0.116   2.284   2.689  0.4636 -0.2631  0.0953
 3700TIP3   OH232514   1.688   2.193  16.449  0.5909 -0.4359  0.3039
 3700TIP3    H132515   1.605   2.205  16.497 -0.0312  0.3773 -0.9520
 3700TIP3    H232516   1.715   2.104  16.470 -0.8800 -0.8965  0.2955
 3701TIP3   OH232517   2.224   3.350   5.797 -0.3652  0.0645 -0.5092
 3701TIP3    H132518   2.258   3.406   5.867  0.4840 -3.7756  2.3430
 3701TIP3    H232519   2.298   3.336   5.739  0.8622 -1.9557  1.4473
 3702TIP3   OH232520   3.266   5.845  16.904 -0.4994 -0.2515  0.1668
 3702TIP3    H132521   3.238   5.937  16.902  0.1627 -0.0583 -0.2956
 3702TIP3    H232522   3.234   5.808  16.822 -1.2740 -0.5904  0.6147
 3703TIP3   OH232523   3.905   3.055   0.086 -0.8256  0.4246  0.2276
 3703TIP3    H132524   3.898   3.125   0.150  0.1876 -0.1170  0.9412
 3703TIP3    H232525   3.868   2.978   0.130 -2.1119  0.5430 -0.6165
 3704TIP3   OH232526   0.940   0.204  12.787 -0.2396 -0.3233 -0.5220
 3704TIP3    H132527   0.915   0.188  12.696  1.1697  0.7388 -1.1007
 3704TIP3    H232528   1.017   0.260  12.782 -0.8968  0.7908  1.3538
 3705TIP3   OH232529   6.702   1.575  13.996 -0.4255  0.6537 -0.4651
 3705TIP3    H132530   6.702   1.595  14.090  0.8404  0.5124 -0.4298
 3705TIP3    H232531   6.794   1.569  13.973 -0.7332  0.6595 -1.7229
 3706TIP3   OH232532   5.697   0.717  14.219 -0.0821  0.0302 -0.2128
 3706TIP3    H132533   5.773   0.720  14.160 -0.7981  0.4720 -1.1325
 3706TIP3    H232534   5.718   0.648  14.282 -0.0090 -1.6056 -1.9897
 3707TIP3   OH232535   6.565   3.992  16.555  0.0230  0.7711  0.1558
 3707TIP3    H132536   6.617   4.041  16.491  0.2936  2.1576  1.4092
 3707TIP3    H232537   6.475   4.023  16.541 -0.0916  0.2378 -0.3060
 3708TIP3   OH232538   4.168   6.342   1.611 -0.0187 -0.2067  0.1220
 3708TIP3    H132539   4.259   6.335   1.584  0.3917 -2.8875  1.9798
 3708TIP3    H232540   4.120   6.291   1.545  0.0274 -0.1234  0.0245
 3709TIP3   OH232541   6.352   1.543  15.044  0.4858  0.3856  0.3147
 3709TIP3    H132542   6.434   1.547  15.094 -1.5312 -0.0471  3.8421
 3709TIP3    H232543   6.327   1.451  15.048 -0.1743  0.5065 -0.8276
 3710TIP3   OH232544   4.992   6.729  11.469 -0.4411 -0.4032  0.1998
 3710TIP3    H132545   4.953   6.733  11.381  0.4501 -1.0532 -0.2310
 3710TIP3    H232546   5.017   6.637  11.479  1.8485  0.1904  0.0892
 3711TIP3   OH232547   2.571   4.295  14.848 -0.1306 -0.6157 -0.1169
 3711TIP3    H132548   2.527   4.347  14.780 -1.6645 -0.6491  0.8103
 3711TIP3    H232549   2.622   4.230  14.800 -1.5110 -0.9016 -1.2324
 3712TIP3   OH232550   6.535   0.471  12.825  0.0709 -0.0666  0.4253
 3712TIP3    H132551   6.581   0.398  12.784 -1.2452  1.0635 -3.3059
 3712TIP3    H232552   6.604   0.524  12.865  1.6948 -0.2475 -1.9985
 3713TIP3   OH232553   3.993   1.411  16.870 -0.3087  0.0340 -0.4982
 3713TIP3    H132554   4.081   1.389  16.901 -2.1697 -3.3682  2.7057
 3713TIP3    H232555   3.954   1.458  16.944 -1.5071  0.6933 -1.5447
 3714TIP3   OH232556   0.566   2.134  11.860 -0.0812 -0.3846 -0.3750
 3714TIP3    H132557   0.562   2.229  11.844 -1.3132 -0.4248 -0.3355
 3714TIP3    H232558   0.586   2.096  11.775 -1.6340 -0.2331 -0.8173
 3715TIP3   OH232559   6.006   2.231  16.758 -0.1951  0.3241 -0.0176
 3715TIP3    H132560   6.036   2.213  16.669  0.6119 -2.6539  0.8081
 3715TIP3    H232561   5.913   2.207  16.758  0.2885 -1.6173  0.4374
 3716TIP3   OH232562   5.593   0.947  12.273 -0.8412 -0.0132  0.1977
 3716TIP3    H132563   5.580   1.028  12.322  2.2545  0.8683 -0.3264
 3716TIP3    H232564   5.606   0.880  12.341 -0.8855  0.3986  0.6137
 3717TIP3   OH232565   3.908   0.001  14.647  0.3788  0.0263  0.2883
 3717TIP3    H132566   3.922  -0.024  14.556  1.2179 -0.4238  0.5334
 3717TIP3    H232567   3.886   0.094  14.643 -1.3679 -0.4140 -0.5077
 3718TIP3   OH232568   4.633   0.635   3.887  0.6709  0.1724 -0.3014
 3718TIP3    H132569   4.619   0.636   3.792 -0.7507  0.6376 -0.1066
 3718TIP3    H232570   4.686   0.713   3.904  1.0062  0.0401 -0.7181
 3719TIP3   OH232571   3.391   4.848  15.058 -0.0062 -0.1530 -0.0143
 3719TIP3    H132572   3.384   4.795  14.978 -3.3436 -0.6938  0.5840
 3719TIP3    H232573   3.405   4.784  15.128  0.6104  0.1423  0.1369
 3720TIP3   OH232574   4.673   2.427   3.317  0.0692 -0.2346  0.5262
 3720TIP3    H132575   4.678   2.493   3.247  1.6884 -1.5999 -0.6836
 3720TIP3    H232576   4.613   2.361   3.282  0.8094 -0.8772  0.4892
 3721TIP3   OH232577   5.942   3.818  15.792  0.2909 -0.2289 -0.9262
 3721TIP3    H132578   5.996   3.896  15.800  0.0065 -0.2203  1.2264
 3721TIP3    H232579   5.859   3.849  15.754 -0.3350  0.7948  1.1819
 3722TIP3   OH232580   1.843   1.471  11.893  0.4722 -0.2553 -0.2967
 3722TIP3    H132581   1.797   1.389  11.909 -0.1151  0.0578 -0.3345
 3722TIP3    H232582   1.919   1.469  11.950 -0.2479 -0.2485  0.6744
 3723TIP3   OH232583   4.257   5.302   1.346  0.1290  0.0848  0.0148
 3723TIP3    H132584   4.267   5.207   1.347  0.0531  0.0743 -0.1104
 3723TIP3    H232585   4.343   5.337   1.370  0.7334  0.0191 -1.9875
 3724TIP3   OH232586   5.683   5.816  11.350  0.3655  0.2215 -0.1067
 3724TIP3    H132587   5.715   5.887  11.294  1.0939 -1.1649 -1.4889
 3724TIP3    H232588   5.759   5.759  11.363 -0.0780 -0.0439  1.4149
 3725TIP3   OH232589   4.107   2.430  10.560 -0.2788  0.0655  0.4589
 3725TIP3    H132590   4.017   2.437  10.593 -0.4815 -1.2791  0.2150
 3725TIP3    H232591   4.097   2.386  10.475  0.5885  0.1840  0.2965
 3726TIP3   OH232592   3.216   1.437  13.752 -0.7317  0.3683  0.4758
 3726TIP3    H132593   3.209   1.447  13.657 -1.3934  0.3280  0.5148
 3726TIP3    H232594   3.239   1.524  13.783 -0.7854  0.4447  0.3034
 3727TIP3   OH232595   5.555   3.467  15.065 -0.2247 -0.0960  0.1334
 3727TIP3    H132596   5.467   3.500  15.083 -0.2318  0.0614 -0.1683
 3727TIP3    H232597   5.606   3.546  15.047 -0.5408 -0.3314 -1.8851
 3728TIP3   OH232598   0.867   6.419   6.345  0.2953 -0.3697 -0.3766
 3728TIP3    H132599   0.803   6.475   6.390  1.3739  0.1418  0.5624
 3728TIP3    H232600   0.883   6.347   6.406 -3.2870 -3.3789 -2.7929
 3729TIP3   OH232601   6.319   5.804  10.891 -0.3084 -0.0959  0.3159
 3729TIP3    H132602   6.237   5.776  10.931  0.0203 -3.0244 -0.9241
 3729TIP3    H232603   6.360   5.723  10.862  2.2094  1.4739 -0.6707
 3730TIP3   OH232604   5.815   6.341  16.864  0.0565  0.1808  0.2362
 3730TIP3    H132605   5.762   6.389  16.800 -0.9115  0.2670  1.0953
 3730TIP3    H232606   5.808   6.392  16.944  0.7707 -0.2573  0.5770
 3731TIP3   OH232607   2.976   6.273  13.043  0.3687 -0.4312  0.0006
 3731TIP3    H132608   3.036   6.300  12.973 -1.6974  0.4803 -1.4815
 3731TIP3    H232609   2.990   6.179  13.053  2.0596 -0.2182 -0.2911
 3732TIP3   OH232610   2.635   2.003   4.361  0.9085 -0.3668  0.2745
 3732TIP3    H132611   2.644   1.929   4.422 -1.2356  0.4312  1.6311
 3732TIP3    H232612   2.668   2.078   4.410 -1.0249  0.3170  0.5775
 3733TIP3   OH232613   6.659   0.749   6.367 -0.1337 -0.5053 -0.1705
 3733TIP3    H132614   6.605   0.677   6.397 -1.0231 -0.4555 -1.5873
 3733TIP3    H232615   6.642   0.820   6.429 -0.9331 -0.8047 -0.0483
 3734TIP3   OH232616   3.870   1.909   1.963  0.5569  0.5309  0.4047
 3734TIP3    H132617   3.813   1.900   2.040 -0.2923 -1.1997 -0.3875
 3734TIP3    H232618   3.922   1.830   1.963 -0.4012 -0.1270 -1.5410
 3735TIP3   OH232619   5.079   5.101  14.367 -0.1809 -0.0272 -0.0048
 3735TIP3    H132620   5.173   5.092  14.351 -0.1675  0.0877  0.0066
 3735TIP3    H232621   5.038   5.077  14.285 -0.0440  2.3325 -0.8185
 3736TIP3   OH232622   4.811   3.394  14.702  0.6418 -0.6614 -0.0344
 3736TIP3    H132623   4.767   3.309  14.692 -0.2474 -0.4789  2.0456
 3736TIP3    H232624   4.816   3.407  14.797  0.5089  1.7432 -0.3348
 3737TIP3   OH232625   1.547   2.885   4.403  0.1746 -0.0308 -0.1133
 3737TIP3    H132626   1.532   2.817   4.468  0.4429  0.4714  0.4732
 3737TIP3    H232627   1.643   2.891   4.396  0.1523 -0.4852 -0.9817
 3738TIP3   OH232628   6.196   2.427   1.139  0.0944 -0.5450 -0.9503
 3738TIP3    H132629   6.149   2.377   1.072 -3.5890  1.3095  0.1141
 3738TIP3    H232630   6.178   2.380   1.221  1.9347 -1.0038 -0.7822
 3739TIP3   OH232631   4.829   3.732   0.121 -0.3452  0.2311  0.6077
 3739TIP3    H132632   4.901   3.689   0.167  1.0876  1.4450 -0.4310
 3739TIP3    H232633   4.863   3.820   0.101 -2.0888  0.7904  0.0223
 3740TIP3   OH232634   0.472   0.759  14.412  0.5728 -0.1947 -0.0605
 3740TIP3    H132635   0.503   0.826  14.472  2.0437  0.4147 -1.4835
 3740TIP3    H232636   0.453   0.805  14.330 -0.0181 -1.2364 -0.5331
 3741TIP3   OH232637   6.177   3.595   1.249  0.1444 -0.5990  0.5924
 3741TIP3    H132638   6.182   3.506   1.284  1.1980 -1.4264 -1.5716
 3741TIP3    H232639   6.252   3.602   1.190 -1.5997  0.6946 -1.5630
 3742TIP3   OH232640   0.660   3.673  12.340  0.5349  0.7046 -0.7496
 3742TIP3    H132641   0.739   3.720  12.364  0.9352  0.6472 -1.9149
 3742TIP3    H232642   0.588   3.729  12.370  1.0060  0.4479  0.8892
 3743TIP3   OH232643   0.130   3.216   1.751  0.6668  0.2017  0.1415
 3743TIP3    H132644   0.166   3.295   1.711 -1.3138  1.6297  1.0763
 3743TIP3    H232645   0.133   3.233   1.845  1.9194 -1.6126  0.4506
 3744TIP3   OH232646   5.514   3.790   2.671  0.7113 -0.1817  0.4152
 3744TIP3    H132647   5.452   3.803   2.743 -0.2697 -2.0642 -0.0512
 3744TIP3    H232648   5.598   3.776   2.714  0.0162 -1.9911  1.2586
 3745TIP3   OH232649   0.916   5.931   2.962 -0.1516 -0.1352  0.0935
 3745TIP3    H132650   0.905   5.935   3.057 -0.8015 -0.6952  0.0482
 3745TIP3    H232651   0.827   5.943   2.927  0.3864  2.5531 -0.5333
 3746TIP3   OH232652   3.653   1.100   4.643 -0.1155  0.2658  0.9313
 3746TIP3    H132653   3.724   1.083   4.704 -0.3556 -0.0057  1.1394
 3746TIP3    H232654   3.611   1.015   4.631 -0.8426  0.5612  1.3648
 3747TIP3   OH232655   6.405   3.536  12.459 -0.0630 -0.4397  0.0972
 3747TIP3    H132656   6.389   3.568  12.548 -0.8408 -0.7523  0.0740
 3747TIP3    H232657   6.352   3.456  12.453  1.0946 -1.2134 -0.1601
 3748TIP3   OH232658   0.196   0.826   1.981 -0.1129  0.1152  0.3566
 3748TIP3    H132659   0.120   0.770   1.995 -0.1671  0.1009  0.0160
 3748TIP3    H232660   0.251   0.813   2.058  0.1363 -0.8272  0.0176
 3749TIP3   OH232661   0.476   4.528   3.688  0.1953  0.3591 -0.4728
 3749TIP3    H132662   0.444   4.616   3.668  0.2758  0.7386  1.0045
 3749TIP3    H232663   0.509   4.495   3.605  0.8103  1.9929 -0.9053
 3750TIP3   OH232664   3.983   0.767  13.734 -0.0466  0.2008  0.1932
 3750TIP3    H132665   4.078   0.779  13.739 -0.2483  1.6681  0.5585
 3750TIP3    H232666   3.950   0.791  13.820 -0.7659 -0.2883  0.0648
 3751TIP3   OH232667   4.745   2.299   2.711  0.0571 -0.2186 -0.1911
 3751TIP3    H132668   4.678   2.356   2.675  0.4287  0.7300  0.6275
 3751TIP3    H232669   4.734   2.304   2.806  0.8283 -0.5983 -0.0730
 3752TIP3   OH232670   5.607   0.447   5.245 -0.0863 -0.0293  0.7475
 3752TIP3    H132671   5.547   0.490   5.306 -1.2991  1.1908 -1.2544
 3752TIP3    H232672   5.612   0.357   5.277  0.4890  0.9362  3.5070
 3753TIP3   OH232673   2.907   4.924  14.089 -0.6499  0.2032 -0.1479
 3753TIP3    H132674   2.888   4.868  14.014 -0.9378  1.3730 -0.9603
 3753TIP3    H232675   2.828   4.978  14.099 -0.1335  0.8978  0.2225
 3754TIP3   OH232676   4.090   5.899  16.975  0.0989  0.1583 -0.4352
 3754TIP3    H132677   4.100   5.974  17.034 -0.6965  0.4910 -0.7248
 3754TIP3    H232678   4.165   5.907  16.915  0.3604  0.3713 -0.0849
 3755TIP3   OH232679   5.737   5.874  13.810 -0.4141 -0.1674  0.2805
 3755TIP3    H132680   5.729   5.965  13.781  0.4397  0.3400  1.5716
 3755TIP3    H232681   5.779   5.829  13.736 -0.1936  0.6434 -0.0983
 3756TIP3   OH232682   2.435   6.596  11.631  0.5308  0.9716 -0.2224
 3756TIP3    H132683   2.381   6.577  11.554  0.5751 -2.6598  0.5609
 3756TIP3    H232684   2.525   6.591  11.599  0.5770 -1.3443  0.1477
 3757TIP3   OH232685   5.006   2.470   4.855  0.1323 -0.0406 -0.0797
 3757TIP3    H132686   4.914   2.447   4.869  0.2514 -0.0561  0.6857
 3757TIP3    H232687   5.037   2.499   4.941  1.1015 -0.9519 -0.1138
 3758TIP3   OH232688   2.333   6.359  16.681 -0.3896 -0.3343  0.0138
 3758TIP3    H132689   2.389   6.410  16.739 -1.2388 -0.9083  1.3596
 3758TIP3    H232690   2.345   6.268  16.707 -1.3180 -0.5373 -0.2258
 3759TIP3   OH232691   3.635   3.099   4.345  0.0818 -0.6425  0.2640
 3759TIP3    H132692   3.722   3.091   4.305  0.7333 -0.0186  1.4948
 3759TIP3    H232693   3.574   3.103   4.272  1.1966  0.0054 -0.6489
 3760TIP3   OH232694   3.317   0.824  17.230 -0.7363  0.1670 -0.5795
 3760TIP3    H132695   3.386   0.759  17.214 -0.0978  0.3190  1.4328
 3760TIP3    H232696   3.364   0.908  17.231 -0.9029  0.2528  1.0203
 3761TIP3   OH232697   5.327   4.144   2.000  0.1855 -0.1878 -0.6485
 3761TIP3    H132698   5.295   4.165   2.088 -2.2926 -0.3407 -1.4595
 3761TIP3    H232699   5.330   4.228   1.954  0.9381 -0.1823 -0.6000
 3762TIP3   OH232700   3.137   6.571   5.739  0.1921  0.1884  0.0949
 3762TIP3    H132701   3.215   6.516   5.740  0.5842  0.7356  1.9475
 3762TIP3    H232702   3.135   6.611   5.826 -2.3738 -0.1271  0.2263
 3763TIP3   OH232703   3.194   1.036   2.033 -0.7743  0.5929 -0.1284
 3763TIP3    H132704   3.110   1.048   2.076  0.2099  1.3321  1.6478
 3763TIP3    H232705   3.232   1.124   2.030  0.5679  0.0424  0.4333
 3764TIP3   OH232706   6.405   1.833   0.329 -0.1668  0.0267  0.0388
 3764TIP3    H132707   6.357   1.802   0.252  0.8928 -1.9840  0.1653
 3764TIP3    H232708   6.381   1.772   0.399  0.8197  0.3414  0.6697
 3765TIP3   OH232709   1.100   0.345   2.764  0.3222  0.3451  1.1422
 3765TIP3    H132710   1.005   0.340   2.767  0.3910 -1.0990  1.1927
 3765TIP3    H232711   1.129   0.293   2.839  1.2111 -2.1430 -0.8615
 3766TIP3   OH232712   3.192   1.612  15.088  0.6201 -0.6079 -0.4723
 3766TIP3    H132713   3.210   1.703  15.064 -0.1381 -0.0900  0.8455
 3766TIP3    H232714   3.118   1.587  15.033 -0.6148  0.3184  0.7270
 3767TIP3   OH232715   0.199   4.565   6.076  0.3453  0.4650  0.2202
 3767TIP3    H132716   0.187   4.604   6.163 -0.4447  0.3572  0.1617
 3767TIP3    H232717   0.110   4.551   6.044  0.6274 -1.0955  0.1093
 3768TIP3   OH232718   6.564   6.279   2.408  0.2047 -0.1879  0.4985
 3768TIP3    H132719   6.589   6.186   2.411 -1.8162 -0.8154 -0.9432
 3768TIP3    H232720   6.603   6.312   2.327 -0.8063 -0.3153 -0.0442
 3769TIP3   OH232721   3.459   5.035  14.834  0.2835 -0.0054  0.0018
 3769TIP3    H132722   3.389   4.977  14.866 -0.0727  0.2390 -0.3364
 3769TIP3    H232723   3.433   5.122  14.863 -0.2979  0.2929 -1.3699
 3770TIP3   OH232724   1.350   3.513   1.799  0.3763 -0.4399 -0.1736
 3770TIP3    H132725   1.324   3.548   1.885  0.9941 -0.3261 -0.0322
 3770TIP3    H232726   1.407   3.581   1.762  0.8283 -0.8884 -0.2959
 3771TIP3   OH232727   0.176   0.955  11.831  0.6019 -0.2107 -0.5552
 3771TIP3    H132728   0.181   0.971  11.737 -1.1214 -0.2239 -0.6562
 3771TIP3    H232729   0.098   0.901  11.842  0.8057 -0.2274  0.8808
 3772TIP3   OH232730   1.341   2.800   4.903  0.8991 -0.4429 -0.0627
 3772TIP3    H132731   1.381   2.882   4.933 -0.1074 -0.5330  1.5963
 3772TIP3    H232732   1.265   2.829   4.851  0.5767 -0.3236  0.4744
 3773TIP3   OH232733   4.977   3.996  12.753 -0.1984  0.2686  0.0808
 3773TIP3    H132734   4.940   4.081  12.728 -1.0563 -0.4709 -1.2175
 3773TIP3    H232735   5.071   4.012  12.757 -0.3562  1.2951 -0.1402
 3774TIP3   OH232736   4.128   1.318  15.490  0.3954  0.5556 -0.4826
 3774TIP3    H132737   4.075   1.267  15.551  0.2347 -0.0579 -1.1343
 3774TIP3    H232738   4.218   1.286  15.503  0.1493 -0.6501 -1.6371
 3775TIP3   OH232739   5.431   3.131   0.202  0.7844  0.4227 -0.2731
 3775TIP3    H132740   5.483   3.083   0.267  1.2466 -0.2236 -1.0983
 3775TIP3    H232741   5.474   3.216   0.195  0.4908  0.6447  0.5567
 3776TIP3   OH232742   4.927   4.240   6.773  0.1106  0.6813  0.1724
 3776TIP3    H132743   4.877   4.164   6.745  0.9951  1.3575 -3.5745
 3776TIP3    H232744   5.018   4.212   6.768  0.3142  0.6720  3.1047
 3777TIP3   OH232745   2.556   0.672  13.517 -0.6238  0.1799 -0.5630
 3777TIP3    H132746   2.495   0.636  13.453 -1.6206 -0.8323  0.9450
 3777TIP3    H232747   2.541   0.621  13.597 -0.0119  2.0010  0.7485
 3778TIP3   OH232748   5.981   2.590  14.872  0.3200  0.1817 -0.2522
 3778TIP3    H132749   5.997   2.550  14.957  1.5366  0.6259 -0.2527
 3778TIP3    H232750   6.004   2.523  14.808  0.9754  0.3920 -0.2398
 3779TIP3   OH232751   1.922   2.312  15.615  0.5526 -0.1707  0.2469
 3779TIP3    H132752   1.828   2.328  15.613  0.4365 -0.4996  2.1673
 3779TIP3    H232753   1.960   2.385  15.566 -0.5850  0.9331  0.9637
 3780TIP3   OH232754   3.167   6.639  13.731 -0.2211  0.0993 -0.6464
 3780TIP3    H132755   3.223   6.714  13.714 -0.1726  0.3986  0.8045
 3780TIP3    H232756   3.107   6.668  13.800  0.2595 -1.4196  0.4313
 3781TIP3   OH232757   1.701   4.008  14.129  0.1393 -0.4241 -0.2156
 3781TIP3    H132758   1.720   4.002  14.035  0.9371 -1.0950 -0.0294
 3781TIP3    H232759   1.732   3.924  14.164  0.3015  0.0234  0.7198
 3782TIP3   OH232760   6.465   6.280  11.202 -0.4970  0.3710 -0.2657
 3782TIP3    H132761   6.396   6.294  11.137  0.2057  1.8565 -0.7369
 3782TIP3    H232762   6.508   6.199  11.175 -0.6090  0.6501 -1.2950
 3783TIP3   OH232763   4.313   6.036  12.855 -0.2307 -0.2743  0.0321
 3783TIP3    H132764   4.295   6.052  12.948  0.6147 -0.9749  0.3222
 3783TIP3    H232765   4.350   6.118  12.823  0.9773 -0.5464  0.7073
 3784TIP3   OH232766   4.656   1.301  11.167 -0.2574  0.3819  0.4532
 3784TIP3    H132767   4.752   1.295  11.160 -0.2668  0.7620 -0.0643
 3784TIP3    H232768   4.626   1.308  11.076 -0.6499  2.0096  0.6933
 3785TIP3   OH232769   4.522   5.581  16.619  0.1106  0.6483  0.1210
 3785TIP3    H132770   4.454   5.644  16.642 -0.6374  0.2235 -0.8818
 3785TIP3    H232771   4.576   5.573  16.698 -0.0817  2.1651  0.4049
 3786TIP3   OH232772   5.685   4.955  14.119 -0.0644 -0.4059  0.0663
 3786TIP3    H132773   5.589   4.956  14.117 -0.1278  3.6871  0.3202
 3786TIP3    H232774   5.711   4.984  14.032  0.9316 -0.3318  0.3841
 3787TIP3   OH232775   6.122   4.901   0.340  0.2199 -0.0707 -0.2083
 3787TIP3    H132776   6.034   4.895   0.303  0.3140 -0.5496 -0.3599
 3787TIP3    H232777   6.140   4.813   0.373  0.7264 -0.0331 -0.3786
 3788TIP3   OH232778   4.814   4.535   3.524  0.4546  0.7199  0.2696
 3788TIP3    H132779   4.850   4.532   3.435  0.2472  0.5002  0.1916
 3788TIP3    H232780   4.891   4.527   3.581  0.5399  0.3254  0.1046
 3789TIP3   OH232781   5.109   0.249  15.604 -0.4134  0.1522 -0.0820
 3789TIP3    H132782   5.165   0.199  15.663  0.9207  0.7424 -0.8395
 3789TIP3    H232783   5.144   0.231  15.516 -1.8229 -0.0091 -0.6303
 3790TIP3   OH232784   5.758   2.415  10.481  0.2474 -0.4557  0.3025
 3790TIP3    H132785   5.720   2.444  10.564  1.0994 -1.2769  0.9817
 3790TIP3    H232786   5.796   2.330  10.500  0.3361 -0.7093 -0.9703
 3791TIP3   OH232787   2.204   6.133  11.428  0.7395  0.2696 -0.0889
 3791TIP3    H132788   2.297   6.154  11.419  0.2253  1.6851 -2.6068
 3791TIP3    H232789   2.162   6.219  11.438 -0.1104 -0.4794  3.2510
 3792TIP3   OH232790   5.170   1.376  16.941 -0.0370  0.1807 -0.5811
 3792TIP3    H132791   5.096   1.380  16.882  0.3268  0.8967 -0.9955
 3792TIP3    H232792   5.175   1.284  16.968 -0.4910 -0.0471 -1.2809
 3793TIP3   OH232793   3.508   5.221  13.390 -0.3575  0.5107 -0.1527
 3793TIP3    H132794   3.541   5.202  13.478 -0.0173  0.6848 -0.2408
 3793TIP3    H232795   3.498   5.135  13.349  1.7447  0.5093 -0.7527
 3794TIP3   OH232796   6.328   2.488   3.524  0.0941 -0.2139 -0.0361
 3794TIP3    H132797   6.375   2.542   3.588  0.5390 -1.0706  0.3675
 3794TIP3    H232798   6.240   2.479   3.561  0.0123  0.2358 -0.1111
 3795TIP3   OH232799   2.341   3.893   3.370  0.3118 -0.3304  0.3168
 3795TIP3    H132800   2.335   3.828   3.439  2.8044  1.2676  2.1058
 3795TIP3    H232801   2.320   3.976   3.413  3.2824  0.8762 -0.4433
 3796TIP3   OH232802   2.629   2.868  11.646  0.2882  0.2871  0.5162
 3796TIP3    H132803   2.636   2.829  11.559  1.4477 -0.7872  1.0607
 3796TIP3    H232804   2.576   2.946  11.634 -0.3912 -0.3898 -0.9773
 3797TIP3   OH232805   0.631   4.148  12.155  0.0077  0.4675 -0.5840
 3797TIP3    H132806   0.686   4.224  12.134 -1.8761  2.0793  0.1569
 3797TIP3    H232807   0.594   4.122  12.071 -1.3898  2.0218 -0.4664
 3798TIP3   OH232808   4.848   2.642   2.705  0.4733  0.5056 -0.3125
 3798TIP3    H132809   4.823   2.560   2.663  0.1946  0.6895 -0.5114
 3798TIP3    H232810   4.928   2.669   2.660  0.8591  0.0784  0.1089
 3799TIP3   OH232811   1.645   6.663  12.822  0.4857  0.4637 -0.0726
 3799TIP3    H132812   1.617   6.635  12.909 -2.7690  1.5717 -0.6956
 3799TIP3    H232813   1.739   6.642  12.819  0.3302 -0.9810  3.1101
 3800TIP3   OH232814   3.954   4.181   5.989  0.1541  0.3222  0.1984
 3800TIP3    H132815   3.881   4.241   6.008 -0.0133 -0.2008  1.2144
 3800TIP3    H232816   4.013   4.233   5.935 -1.1580  0.6273 -0.9835
 3801TIP3   OH232817   3.404   4.108  15.558  0.3166  0.3704  0.1393
 3801TIP3    H132818   3.480   4.077  15.609  0.7463 -1.2656 -1.4407
 3801TIP3    H232819   3.337   4.041  15.572  0.7187 -0.5466 -2.0468
 3802TIP3   OH232820   6.072   4.088  12.511  0.1866 -0.3955  0.3482
 3802TIP3    H132821   6.132   4.136  12.455 -0.2520 -0.7263 -0.4178
 3802TIP3    H232822   6.099   3.996  12.503  0.1446 -0.4401  0.7082
 3803TIP3   OH232823   2.376   0.555  16.124  0.0153 -0.5316 -0.5950
 3803TIP3    H132824   2.392   0.463  16.104  0.0691 -1.0748  1.7117
 3803TIP3    H232825   2.280   0.564  16.122  0.0620 -0.3460 -1.9955
 3804TIP3   OH232826   6.587   0.390  15.348  0.0926 -1.1631 -0.3367
 3804TIP3    H132827   6.653   0.361  15.285 -0.0506  0.1129 -1.0857
 3804TIP3    H232828   6.629   0.464  15.392 -0.6144 -0.7347 -0.3894
 3805TIP3   OH232829   1.957   0.815   2.864  0.0880 -0.3041 -0.8071
 3805TIP3    H132830   1.890   0.883   2.861  1.3578  1.0628  0.5754
 3805TIP3    H232831   2.004   0.824   2.781 -2.3487 -2.2776 -2.4521
 3806TIP3   OH232832   4.388   3.293  13.684  0.2947  0.6387  0.0229
 3806TIP3    H132833   4.436   3.346  13.747 -0.2806  1.4043 -0.1795
 3806TIP3    H232834   4.302   3.281  13.724  0.2181  0.3847 -0.2160
 3807TIP3   OH232835   3.183   0.367  12.605  0.0251 -0.1907 -0.0283
 3807TIP3    H132836   3.145   0.433  12.547  2.1643 -0.0831 -1.3691
 3807TIP3    H232837   3.259   0.410  12.644 -0.5762 -0.7394  1.8159
 3808TIP3   OH232838   6.223   3.389   3.006  0.2913  0.3075  0.2713
 3808TIP3    H132839   6.192   3.303   3.032  0.1260  0.0895 -0.6382
 3808TIP3    H232840   6.154   3.424   2.949  1.3892  0.0930 -1.2091
 3809TIP3   OH232841   3.636   5.250   2.871  0.0913  0.2859  0.1045
 3809TIP3    H132842   3.692   5.176   2.893  1.4584  1.5181  0.8148
 3809TIP3    H232843   3.608   5.285   2.956 -3.0196 -1.2291 -0.2178
 3810TIP3   OH232844   1.849   4.821   0.622 -0.1201  0.1459 -0.0613
 3810TIP3    H132845   1.782   4.880   0.587  1.8525  0.7599 -2.9550
 3810TIP3    H232846   1.872   4.858   0.708 -0.3704  2.4414 -0.9680
 3811TIP3   OH232847   0.589   2.776  16.437  0.4221 -0.5978 -0.4456
 3811TIP3    H132848   0.650   2.815  16.500 -1.4469  2.0130 -0.1293
 3811TIP3    H232849   0.634   2.783  16.353  1.1031  0.0726 -0.0329
 3812TIP3   OH232850   0.454   6.493   5.449  0.2322 -0.1326  1.2087
 3812TIP3    H132851   0.385   6.427   5.443  1.0725 -1.1233  2.3776
 3812TIP3    H232852   0.507   6.480   5.370 -0.7817  0.5108  0.3996
 3813TIP3   OH232853   3.152   5.103  11.939  0.3684  0.2122 -0.3127
 3813TIP3    H132854   3.161   5.015  11.904  0.1383 -0.1154  0.4346
 3813TIP3    H232855   3.191   5.099  12.026 -0.6035  0.5721  0.1476
 3814TIP3   OH232856   3.724   1.145   0.704 -0.0366 -0.1427 -0.3129
 3814TIP3    H132857   3.672   1.199   0.644 -3.3432 -2.3257  0.3992
 3814TIP3    H232858   3.698   1.174   0.791  1.8901  0.4491  0.0761
 3815TIP3   OH232859   5.454   4.577   4.101 -0.0244  0.1756  0.1156
 3815TIP3    H132860   5.473   4.576   4.195  0.2958  0.9876  0.0674
 3815TIP3    H232861   5.482   4.664   4.072  0.2680 -0.2161 -0.8105
 3816TIP3   OH232862   1.403   1.432   3.506  0.7119  0.1002  0.3812
 3816TIP3    H132863   1.355   1.508   3.472  0.4214 -0.1227  0.2897
 3816TIP3    H232864   1.399   1.368   3.435 -1.3496 -1.0038  1.4646
 3817TIP3   OH232865   0.779   2.638  15.408 -0.1300  0.1787 -0.3907
 3817TIP3    H132866   0.867   2.610  15.385  0.1092 -1.1764  2.0360
 3817TIP3    H232867   0.789   2.725  15.446  0.5267 -1.0009  2.2427
 3818TIP3   OH232868   5.033   3.571  13.894  0.3217  0.0506 -0.6970
 3818TIP3    H132869   5.030   3.662  13.922  1.2803  0.4367 -1.8158
 3818TIP3    H232870   5.057   3.523  13.974  0.0919  0.7967 -0.1655
 3819TIP3   OH232871   2.149   2.620  14.579  0.6259 -0.7214 -0.1354
 3819TIP3    H132872   2.242   2.635  14.566  0.8068  1.2730  3.2100
 3819TIP3    H232873   2.145   2.546  14.640  0.0796  0.8665  1.7736
 3820TIP3   OH232874   3.431   5.598  16.111  0.6269 -0.6382  1.0616
 3820TIP3    H132875   3.400   5.584  16.200 -0.6359 -0.0055  0.7419
 3820TIP3    H232876   3.482   5.679  16.115 -0.9500  0.3947  0.8850
 3821TIP3   OH232877   6.758   5.930  11.199 -0.3560 -0.5265  0.3222
 3821TIP3    H132878   6.718   5.927  11.286  0.6195 -0.7965  0.7757
 3821TIP3    H232879   6.851   5.943  11.217 -0.2579  0.1900 -0.7091
 3822TIP3   OH232880   4.319   3.095  14.184  0.4493  0.2835 -0.4629
 3822TIP3    H132881   4.224   3.098  14.195  0.5549  1.1267  0.2570
 3822TIP3    H232882   4.332   3.043  14.105 -0.6234  0.4239 -0.7423
 3823TIP3   OH232883   2.149   2.035  14.865 -0.4840 -0.4909 -0.5907
 3823TIP3    H132884   2.065   2.081  14.867  0.0235  0.3921  0.8673
 3823TIP3    H232885   2.138   1.969  14.796 -2.0085  0.2906 -1.1240
 3824TIP3   OH232886   3.805   2.565   4.920 -0.4257 -0.1186 -0.9197
 3824TIP3    H132887   3.754   2.645   4.917  1.2288  0.9749 -0.8787
 3824TIP3    H232888   3.872   2.577   4.852  2.1761  0.2101  1.6244
 3825TIP3   OH232889   6.208   5.703   5.408 -0.0344 -0.0328 -0.2962
 3825TIP3    H132890   6.234   5.794   5.390  0.3707 -0.1460 -0.2743
 3825TIP3    H232891   6.187   5.667   5.321 -0.5844  0.1972 -0.2653
 3826TIP3   OH232892   3.583   0.635  14.248  0.2197  0.3669 -0.2718
 3826TIP3    H132893   3.584   0.652  14.342 -0.6939 -1.9809  0.1983
 3826TIP3    H232894   3.651   0.692  14.213 -0.0013  1.8921  1.6916
 3827TIP3   OH232895   0.233   0.973   1.030  0.5986 -0.0655  0.3785
 3827TIP3    H132896   0.301   0.916   0.995  1.3238  1.0420 -0.0616
 3827TIP3    H232897   0.151   0.938   0.996  1.0805 -0.5498 -0.2807
 3828TIP3   OH232898   0.473   3.087   2.887 -0.4481  0.0479 -0.4989
 3828TIP3    H132899   0.382   3.064   2.868 -0.2962 -2.2107  1.3206
 3828TIP3    H232900   0.522   3.054   2.812 -1.1999  1.9910 -1.8716
 3829TIP3   OH232901   4.958   1.684   5.882  0.3353  0.7157 -0.1494
 3829TIP3    H132902   4.995   1.759   5.929 -1.0066  0.5262  1.2507
 3829TIP3    H232903   4.914   1.723   5.807  0.9260  1.1915 -0.2586
 3830TIP3   OH232904   3.449   4.109   1.734  0.1448  0.5303  0.0385
 3830TIP3    H132905   3.533   4.072   1.762 -0.2609  0.8188  1.6530
 3830TIP3    H232906   3.392   4.033   1.721  1.1419  0.1956 -2.8391
 3831TIP3   OH232907   2.633   5.419  15.745 -0.5430 -0.0277 -0.1305
 3831TIP3    H132908   2.715   5.386  15.781 -1.1426 -1.8624 -0.4003
 3831TIP3    H232909   2.631   5.511  15.771  0.7158 -0.4291  1.4711
 3832TIP3   OH232910   2.769   2.492   0.194 -0.1496 -0.6495  0.0408
 3832TIP3    H132911   2.779   2.442   0.113  0.6563 -1.9073  0.8927
 3832TIP3    H232912   2.845   2.550   0.196 -1.0837  0.6390 -0.9466
 3833TIP3   OH232913   0.454   3.080  12.329  0.1847 -0.0616  0.1415
 3833TIP3    H132914   0.480   3.009  12.270  0.3811  1.3388 -1.4936
 3833TIP3    H232915   0.508   3.068  12.407 -0.1531 -2.0049  0.1159
 3834TIP3   OH232916   0.171   6.623   5.220 -0.2677  0.6139 -0.2532
 3834TIP3    H132917   0.106   6.678   5.175 -1.1930  0.6662  1.1144
 3834TIP3    H232918   0.147   6.630   5.312  0.4831 -0.9787  0.0600
 3835TIP3   OH232919   2.522   5.251   5.554  0.0908 -0.0042  0.2962
 3835TIP3    H132920   2.564   5.195   5.489 -1.0560 -0.5745  0.0295
 3835TIP3    H232921   2.522   5.200   5.635 -1.1442 -0.4983  0.0010
 3836TIP3   OH232922   3.128   3.537   1.708  0.6862  0.2111  0.1928
 3836TIP3    H132923   3.130   3.595   1.632  0.3292 -1.4132 -1.0748
 3836TIP3    H232924   3.038   3.544   1.741  1.1298  1.7165  1.1060
 3837TIP3   OH232925   0.530   4.137  12.670 -0.2793 -0.4456  0.5976
 3837TIP3    H132926   0.524   4.178  12.584  1.4712  0.0410  0.6968
 3837TIP3    H232927   0.441   4.108  12.689 -0.9994  0.8836 -0.6760
 3838TIP3   OH232928   6.106   0.582  13.799 -0.5629  0.1645 -0.4835
 3838TIP3    H132929   6.110   0.506  13.740  1.6776 -0.2242  0.1032
 3838TIP3    H232930   6.193   0.584  13.840 -0.2237  3.6689 -1.2820
 3839TIP3   OH232931   3.963   2.076   5.569 -0.1730 -0.0480 -0.6414
 3839TIP3    H132932   3.883   2.102   5.524  0.2656 -0.3731 -1.6315
 3839TIP3    H232933   3.971   2.137   5.642 -1.7084 -0.4785 -0.1017
 3840TIP3   OH232934   6.353   1.829  15.923  0.4735 -0.2014  0.3443
 3840TIP3    H132935   6.279   1.804  15.978  1.5935 -1.4432  1.3206
 3840TIP3    H232936   6.426   1.839  15.984  1.4032 -0.1983 -0.7504
 3841TIP3   OH232937   2.871   5.862  14.461 -0.7342 -0.0150 -0.2717
 3841TIP3    H132938   2.806   5.795  14.484 -0.2328 -0.0425  1.1096
 3841TIP3    H232939   2.818   5.935  14.427 -1.6040  0.3568  1.7933
 3842TIP3   OH232940   2.946   1.479  11.919  0.1479  0.3227 -0.0798
 3842TIP3    H132941   3.004   1.542  11.962 -0.6094  0.0739  1.3296
 3842TIP3    H232942   2.884   1.533  11.870  0.6067  0.6238 -0.3332
 3843TIP3   OH232943   3.276   1.113   5.591  0.3506  0.2264  0.1053
 3843TIP3    H132944   3.208   1.161   5.639  1.8606 -0.6054  3.2446
 3843TIP3    H232945   3.294   1.037   5.646  4.5835  1.0024 -0.0685
 3844TIP3   OH232946   3.977   3.671   4.834 -0.2423  0.0222 -0.1602
 3844TIP3    H132947   3.920   3.631   4.768 -0.2662  2.0310 -1.3778
 3844TIP3    H232948   4.005   3.754   4.795 -0.2076  1.2211  2.3328
 3845TIP3   OH232949   0.120   3.457  12.373 -0.4929 -0.1501  0.3468
 3845TIP3    H132950   0.211   3.454  12.403  0.1742  1.8076 -1.3762
 3845TIP3    H232951   0.086   3.368  12.389  2.9668 -2.1848 -2.7050
 3846TIP3   OH232952   6.415   2.551  11.911  0.0234 -0.0045  0.1017
 3846TIP3    H132953   6.365   2.628  11.883 -0.2670  0.2570  1.2927
 3846TIP3    H232954   6.355   2.478  11.901 -0.8491  0.3931  2.1190
 3847TIP3   OH232955   4.211   0.380   1.912  0.1193  0.1683  0.2639
 3847TIP3    H132956   4.293   0.332   1.902  0.2439  0.4286  0.0151
 3847TIP3    H232957   4.197   0.421   1.826  0.1155  0.7322  0.5307
 3848TIP3   OH232958   3.228   3.582  13.843  0.2948  0.3307 -0.7512
 3848TIP3    H132959   3.281   3.503  13.855 -1.6550 -0.9329 -0.1447
 3848TIP3    H232960   3.276   3.651  13.888  2.4960 -0.2917 -2.0959
 3849TIP3   OH232961   0.467   1.120   6.450 -0.0386  0.2567 -0.3201
 3849TIP3    H132962   0.561   1.104   6.460  0.2065  0.7205 -1.7852
 3849TIP3    H232963   0.428   1.087   6.531  1.1762 -1.6783 -0.4998
 3850TIP3   OH232964   5.077   1.337  13.271  0.1766  0.4240 -0.3490
 3850TIP3    H132965   5.154   1.337  13.216 -0.1496  0.3566 -0.8072
 3850TIP3    H232966   5.052   1.245  13.279  0.3405  0.4133  0.0784
 3851TIP3   OH232967   3.829   5.675   5.488  0.0747  0.2457  0.0264
 3851TIP3    H132968   3.887   5.604   5.516 -3.2338 -2.5167  0.2129
 3851TIP3    H232969   3.808   5.722   5.569 -0.1937 -0.4879  0.3817
 3852TIP3   OH232970   3.369   0.293   0.036 -0.1899  0.1413  0.1109
 3852TIP3    H132971   3.326   0.347   0.102 -0.2974  1.3984 -0.9749
 3852TIP3    H232972   3.404   0.355  -0.028  2.9174 -0.8632  0.7426
 3853TIP3   OH232973   2.750   2.683   5.672  0.5778 -0.5397 -0.7820
 3853TIP3    H132974   2.787   2.596   5.688 -0.1056 -0.6072  0.4523
 3853TIP3    H232975   2.734   2.719   5.759 -1.0555  0.0149 -1.2989
 3854TIP3   OH232976   0.761   4.316   1.895 -0.1512 -0.1117 -0.0200
 3854TIP3    H132977   0.840   4.273   1.862  1.1316  0.4872  2.1757
 3854TIP3    H232978   0.714   4.247   1.942 -2.1861 -1.0685 -3.3169
 3855TIP3   OH232979   3.619   6.496   6.662 -0.0083  0.1545 -0.0488
 3855TIP3    H132980   3.656   6.569   6.712 -1.3561  0.7386  0.1218
 3855TIP3    H232981   3.562   6.538   6.598  1.8739 -0.5859 -2.2518
 3856TIP3   OH232982   6.253   6.414  16.507 -0.5812  0.0915  0.5421
 3856TIP3    H132983   6.221   6.352  16.441  0.2821  0.2430 -0.0375
 3856TIP3    H232984   6.246   6.499  16.465 -1.1529  0.3150  1.0924
 3857TIP3   OH232985   4.754   1.557  15.393 -0.0765  0.5322 -0.2208
 3857TIP3    H132986   4.832   1.537  15.343  0.1563 -0.3953  0.5010
 3857TIP3    H232987   4.744   1.652  15.385  0.1545  0.4483 -1.7086
 3858TIP3   OH232988   5.639   5.866  14.662  0.0948  0.1299  0.1639
 3858TIP3    H132989   5.656   5.959  14.676 -1.4628  0.4890 -0.3006
 3858TIP3    H232990   5.709   5.838  14.603  1.7480  0.5211  1.8693
 3859TIP3   OH232991   5.308   4.284   6.538  0.3849 -0.1454 -0.1447
 3859TIP3    H132992   5.246   4.314   6.604 -0.9133 -2.0185 -0.4669
 3859TIP3    H232993   5.384   4.254   6.589 -0.2878 -0.8437  0.4525
 3860TIP3   OH232994   6.372   4.463   3.396 -0.2887  0.0860 -0.1416
 3860TIP3    H132995   6.324   4.393   3.352 -0.9415 -0.5109  1.5094
 3860TIP3    H232996   6.308   4.533   3.406  0.1917  0.7032 -1.2035
 3861TIP3   OH232997   3.826   0.051   0.404  0.1398 -0.4036  0.1229
 3861TIP3    H132998   3.851   0.115   0.337  1.7969  0.4234  1.5008
 3861TIP3    H232999   3.749   0.007   0.367 -0.9854  2.2997 -0.8853
 3862TIP3   OH233000   2.260   1.375  14.088 -0.3288 -0.5631 -0.5575
 3862TIP3    H133001   2.198   1.447  14.073  1.6452  1.1259 -0.9852
 3862TIP3    H233002   2.276   1.339  14.001 -0.2054 -0.5506 -0.5409
 3863TIP3   OH233003   3.583   6.669  12.469 -0.2167 -0.4268 -0.5335
 3863TIP3    H133004   3.589   6.693  12.376 -0.9073  0.7529 -0.2794
 3863TIP3    H233005   3.534   6.740  12.509  0.5145 -0.6818  0.8386
 3864TIP3   OH233006   0.469   5.338   6.808  0.2925  0.1244 -0.4925
 3864TIP3    H133007   0.397   5.395   6.779 -0.0021  0.4061  0.7723
 3864TIP3    H233008   0.439   5.249   6.787  1.2443  0.4621 -3.5443
 3865TIP3   OH233009   0.727   5.144   5.391 -0.3223 -0.0111 -0.2131
 3865TIP3    H133010   0.642   5.173   5.358 -0.2925 -0.2666 -0.5195
 3865TIP3    H233011   0.785   5.148   5.315 -0.5688 -1.8844 -0.5373
 3866TIP3   OH233012   6.634   3.302   3.009 -0.2155  0.0035  0.6342
 3866TIP3    H133013   6.600   3.389   3.029 -2.5291 -0.6083 -0.3699
 3866TIP3    H233014   6.561   3.243   3.029 -0.0308 -1.3188 -2.2242
 3867TIP3   OH233015   6.114   5.487   4.139 -0.2219  0.2284  0.1521
 3867TIP3    H133016   6.148   5.492   4.229 -1.3135 -0.5448  0.6263
 3867TIP3    H233017   6.134   5.572   4.101 -0.1120  0.7120  1.2678
 3868TIP3   OH233018   4.220   3.504   1.719  0.1894  0.0731 -0.2004
 3868TIP3    H133019   4.241   3.473   1.807 -0.5869  1.4798  0.5030
 3868TIP3    H233020   4.144   3.453   1.693  0.3885 -0.3110 -0.0376
 3869TIP3   OH233021   0.075   0.485  14.192  0.2842 -0.2714 -0.2390
 3869TIP3    H133022   0.053   0.563  14.244  3.1290 -0.6667  1.6754
 3869TIP3    H233023   0.126   0.519  14.119  0.2609 -0.1843 -0.2143
 3870TIP3   OH233024   4.775   6.164   3.142  0.1504  0.3679  0.2189
 3870TIP3    H133025   4.704   6.201   3.194 -0.3694  1.0558 -0.9538
 3870TIP3    H233026   4.732   6.129   3.064  1.2067  1.6293 -0.9506
 3871TIP3   OH233027   4.771   3.033  12.011 -0.1855 -0.0215 -0.1575
 3871TIP3    H133028   4.834   3.036  11.939  0.1715  0.4867  0.1710
 3871TIP3    H233029   4.725   3.117  12.006 -1.6697 -0.8729 -1.1273
 3872TIP3   OH233030   1.706   2.691   1.627  0.0041 -0.0528  0.0742
 3872TIP3    H133031   1.793   2.688   1.587 -0.0004 -0.6456  0.1054
 3872TIP3    H233032   1.646   2.699   1.553  0.0622 -0.0957  0.0217
 3873TIP3   OH233033   4.354   5.162   0.693 -0.2228  0.2516 -0.5103
 3873TIP3    H133034   4.269   5.203   0.676 -0.4033 -0.2088 -0.7187
 3873TIP3    H233035   4.333   5.085   0.746 -0.0064 -0.2752 -1.1962
 3874TIP3   OH233036   0.009   0.395  15.003  0.0097 -0.1232  0.1210
 3874TIP3    H133037  -0.007   0.368  15.094 -0.9841  0.7916  0.2303
 3874TIP3    H233038   0.096   0.362  14.983  0.1943 -0.4183  1.3833
 3875TIP3   OH233039   5.753   2.015   3.086 -0.4757  0.1865 -0.0656
 3875TIP3    H133040   5.702   2.096   3.091  0.8277  1.0160 -0.1254
 3875TIP3    H233041   5.839   2.042   3.054 -0.1842 -1.2956 -0.5723
 3876TIP3   OH233042   1.750   2.005  15.481 -0.2010 -0.1566  0.3624
 3876TIP3    H133043   1.823   1.954  15.517  1.4923 -0.8343 -3.7126
 3876TIP3    H233044   1.792   2.075  15.432 -2.3832  1.1194  0.2477
 3877TIP3   OH233045   0.131   2.697  10.967  0.1129 -0.2866 -0.5202
 3877TIP3    H133046   0.144   2.709  10.873  2.3033 -1.2744 -0.3824
 3877TIP3    H233047   0.205   2.743  11.008  1.0398 -2.6107  0.5364
 3878TIP3   OH233048   3.989   4.173  11.020 -0.4252 -0.3742 -0.5858
 3878TIP3    H133049   4.076   4.150  10.988 -0.5844 -2.4767  0.3848
 3878TIP3    H233050   3.983   4.268  11.008  2.0618 -0.1646 -0.4862
 3879TIP3   OH233051   5.491   4.003  15.642 -0.1308 -0.0975  0.0751
 3879TIP3    H133052   5.433   4.022  15.569  0.2917  0.9294  0.0015
 3879TIP3    H233053   5.568   4.057  15.627  0.7414 -1.2579  0.3111
 3880TIP3   OH233054   3.092   4.870   5.551  0.1940 -0.0265 -0.2449
 3880TIP3    H133055   3.177   4.829   5.535 -0.2546 -0.7567 -0.8170
 3880TIP3    H233056   3.029   4.798   5.541 -0.5680  0.7089 -0.8367
 3881TIP3   OH233057   5.923   2.045   2.675 -0.7243 -0.4058 -0.1869
 3881TIP3    H133058   5.974   2.036   2.595 -0.0518 -1.1025  0.3030
 3881TIP3    H233059   5.989   2.051   2.745 -1.2986 -1.7228  0.4972
 3882TIP3   OH233060   5.596   3.227  13.564  0.0346 -0.4193  0.4679
 3882TIP3    H133061   5.625   3.136  13.550  0.0543 -0.2407 -0.6668
 3882TIP3    H233062   5.501   3.221  13.573 -0.0697 -0.4440 -0.5906
 3883TIP3   OH233063   5.830   4.342   1.095  0.4315  0.1665  0.3569
 3883TIP3    H133064   5.861   4.339   1.005 -1.0484 -0.0670 -0.1565
 3883TIP3    H233065   5.873   4.267   1.137  0.7081 -0.0450 -0.2910
 3884TIP3   OH233066   4.486   6.539   5.039  0.0615 -0.3562  0.4611
 3884TIP3    H133067   4.460   6.469   5.098 -2.1286 -0.9464 -1.1246
 3884TIP3    H233068   4.421   6.608   5.053  0.7073  0.3293  0.1812
 3885TIP3   OH233069   2.269   1.615  11.933 -0.5257  0.5276  0.9286
 3885TIP3    H133070   2.277   1.709  11.943  0.4356  0.4380  1.0591
 3885TIP3    H233071   2.294   1.579  12.018  0.8946  0.0850  0.3349
 3886TIP3   OH233072   0.983   3.226   2.926 -0.3946 -0.2924  0.0512
 3886TIP3    H133073   0.964   3.135   2.902  2.1528 -0.2277 -2.6143
 3886TIP3    H233074   0.905   3.275   2.899 -0.9668 -1.4209 -0.3916
 3887TIP3   OH233075   0.421   3.787   0.114 -0.2740 -0.0565  0.0702
 3887TIP3    H133076   0.432   3.821   0.202  0.8268 -0.4676  0.1053
 3887TIP3    H233077   0.476   3.843   0.059  1.0365 -1.3375  0.0361
 3888TIP3   OH233078   6.203   0.770   5.878 -0.7616  0.0020  0.4771
 3888TIP3    H133079   6.241   0.843   5.829 -1.6809  1.3865  1.7875
 3888TIP3    H233080   6.121   0.751   5.833 -1.0579  0.5254  0.7898
 3889TIP3   OH233081   6.417   3.794  13.891  0.7149  0.0581 -0.0434
 3889TIP3    H133082   6.358   3.719  13.892  0.8034 -0.0232 -0.7760
 3889TIP3    H233083   6.505   3.756  13.891  0.7792  0.1784  1.0099
 3890TIP3   OH233084   3.775   5.411   5.779  0.0020 -0.3519  0.1826
 3890TIP3    H133085   3.722   5.438   5.854  0.0841  0.1448  0.0621
 3890TIP3    H233086   3.721   5.431   5.703  0.2605 -0.0861  0.0714
 3891TIP3   OH233087   6.254   1.475   2.689 -0.5784  0.3606  0.8054
 3891TIP3    H133088   6.338   1.462   2.644 -0.1863  1.0648  1.3282
 3891TIP3    H233089   6.278   1.505   2.777 -1.3562 -0.6114  1.3518
 3892TIP3   OH233090   3.451   0.379   3.983  0.2868 -0.1971 -0.1523
 3892TIP3    H133091   3.446   0.323   3.907 -2.5736 -2.0108  1.2944
 3892TIP3    H233092   3.529   0.349   4.030 -1.0510 -2.8618  0.4705
 3893TIP3   OH233093   2.079   4.327  11.530  0.5026 -0.4118 -0.0340
 3893TIP3    H133094   2.156   4.295  11.576 -0.1756 -1.7687  0.1980
 3893TIP3    H233095   2.005   4.283  11.574 -0.4315  1.1917  0.0306
 3894TIP3   OH233096   0.362   4.392  13.180 -0.7534  0.9040  0.6968
 3894TIP3    H133097   0.289   4.397  13.119 -0.5722  1.2515  0.5124
 3894TIP3    H233098   0.339   4.452  13.251 -0.9223  0.5668  0.9344
 3895TIP3   OH233099   3.762   3.660   4.114  0.1326  0.4492 -0.2587
 3895TIP3    H133100   3.736   3.647   4.023  0.8966  1.9951 -0.7108
 3895TIP3    H233101   3.679   3.676   4.160 -0.2629 -0.4180 -0.6396
 3896TIP3   OH233102   2.035   6.090  14.636  0.2249  0.2850 -0.1988
 3896TIP3    H133103   2.113   6.082  14.691 -0.8003 -2.0303  0.9789
 3896TIP3    H233104   2.043   6.018  14.573 -0.7671  0.2777 -0.3225
 3897TIP3   OH233105   3.573   3.305  13.201 -0.1443 -0.1973 -0.3081
 3897TIP3    H133106   3.555   3.276  13.112  1.7377  0.0715 -0.8003
 3897TIP3    H233107   3.536   3.393  13.206 -1.7052 -0.8475 -0.2908
 3898TIP3   OH233108   2.292   3.038  11.528 -0.1013 -0.0454 -0.1321
 3898TIP3    H133109   2.228   3.089  11.577  1.4352  0.6955  1.1409
 3898TIP3    H233110   2.259   3.038  11.438 -1.2158  1.4120  0.2636
 3899TIP3   OH233111   4.703   0.918  14.060  0.1946 -0.2252  0.1187
 3899TIP3    H133112   4.698   0.930  13.965  0.7662  0.8466  0.2149
 3899TIP3    H233113   4.727   0.826  14.071  0.0857 -0.3630 -0.7741
 3900TIP3   OH233114   5.752   2.795  16.672 -0.5600 -0.5600  0.2508
 3900TIP3    H133115   5.668   2.826  16.637 -0.8352 -0.2992  1.1475
 3900TIP3    H233116   5.815   2.861  16.646 -1.0599  0.5166  1.7279
 3901TIP3   OH233117   4.018   6.277  12.130  0.1416  0.6259 -0.3736
 3901TIP3    H133118   4.025   6.298  12.223 -2.1882  0.5675 -0.1523
 3901TIP3    H233119   4.033   6.183  12.125 -1.0732  0.4022  0.1240
 3902TIP3   OH233120   5.311   5.387   0.028  0.7998 -0.3237  0.1867
 3902TIP3    H133121   5.365   5.430  -0.038  0.5622  0.4194  0.4682
 3902TIP3    H233122   5.353   5.410   0.111  0.0919  0.2101  0.4015
 3903TIP3   OH233123   4.247   0.466   0.197 -0.4368 -0.4127  0.8875
 3903TIP3    H133124   4.298   0.389   0.170 -0.1748 -0.3561  1.2067
 3903TIP3    H233125   4.246   0.461   0.292 -0.6498 -0.1653  0.8980
 3904TIP3   OH233126   2.181   1.795   4.235  0.1695  0.3621 -0.1520
 3904TIP3    H133127   2.090   1.811   4.210  0.1850  0.0531 -0.4108
 3904TIP3    H233128   2.208   1.875   4.280 -0.2858  0.3820  0.0895
 3905TIP3   OH233129   6.433   2.903   0.388  0.0774 -0.6429  0.0264
 3905TIP3    H133130   6.456   2.907   0.481 -0.1221 -1.1148  0.0958
 3905TIP3    H233131   6.353   2.956   0.381 -0.6665 -1.7106  0.3609
 3906TIP3   OH233132   4.747   3.560   3.392  0.3171 -0.6918 -0.0664
 3906TIP3    H133133   4.785   3.521   3.313 -1.4374 -0.7156 -0.9241
 3906TIP3    H233134   4.794   3.643   3.403 -0.2212 -0.1407 -1.8094
 3907TIP3   OH233135   2.669   3.919  13.945  0.1199 -0.3831 -0.5437
 3907TIP3    H133136   2.592   3.974  13.952  1.5398  1.6351 -0.2630
 3907TIP3    H233137   2.698   3.930  13.854 -2.0727 -4.1838 -1.8216
 3908TIP3   OH233138   1.392   4.680  14.368  0.6209  0.5486 -0.1689
 3908TIP3    H133139   1.382   4.758  14.314  0.7265 -0.1323 -1.1765
 3908TIP3    H233140   1.421   4.612  14.308  0.9022 -0.1797  0.7720
 3909TIP3   OH233141   1.710   2.457  14.064 -0.0637  0.1750 -0.0393
 3909TIP3    H133142   1.620   2.485  14.048 -0.0987 -0.2138 -0.5566
 3909TIP3    H233143   1.702   2.372  14.106  0.0572  0.4124  0.4701
 3910TIP3   OH233144   4.845   5.330   0.603  0.2535  0.4958  0.2998
 3910TIP3    H133145   4.768   5.280   0.577  0.4456 -0.3365  1.2658
 3910TIP3    H233146   4.920   5.275   0.578  0.4878  0.6748  0.5925
 3911TIP3   OH233147   1.529   6.230  11.099 -0.0350  0.5818 -0.0680
 3911TIP3    H133148   1.436   6.235  11.077 -0.1296  1.8980  0.5568
 3911TIP3    H233149   1.545   6.138  11.117 -0.5444 -0.1433 -3.0724
 3912TIP3   OH233150   4.598   4.073  15.613  0.0051 -0.5052 -0.3717
 3912TIP3    H133151   4.596   4.136  15.685 -0.0401  0.2164 -0.9947
 3912TIP3    H233152   4.650   4.000  15.647 -0.3646 -0.3490  0.5328
 3913TIP3   OH233153   5.861   3.288  16.906  0.4798 -0.2728  0.1929
 3913TIP3    H133154   5.798   3.336  16.853  1.1016  0.5804  0.2257
 3913TIP3    H233155   5.928   3.352  16.928 -0.0949 -0.4502  2.5546
 3914TIP3   OH233156   3.303   4.581  12.985 -0.7011 -0.1393  0.2010
 3914TIP3    H133157   3.229   4.555  12.931 -0.3508 -1.0206  0.1332
 3914TIP3    H233158   3.307   4.676  12.976  1.1249 -0.4922 -3.6993
 3915TIP3   OH233159   2.534   5.053   6.814 -0.3503  0.1934  0.0972
 3915TIP3    H133160   2.524   5.134   6.765  0.4212 -0.4253 -1.1006
 3915TIP3    H233161   2.618   5.062   6.859 -0.8939  0.6116  1.0621
 3916TIP3   OH233162   0.420   1.171   4.574 -0.4195  0.1626  0.0980
 3916TIP3    H133163   0.330   1.141   4.583  0.0959 -1.4141  0.3363
 3916TIP3    H233164   0.424   1.215   4.490 -1.2183 -0.5130 -0.2924
 3917TIP3   OH233165   0.288   2.818   2.699 -0.6998 -0.0360  0.6948
 3917TIP3    H133166   0.262   2.868   2.622 -1.3003 -1.2929  0.0676
 3917TIP3    H233167   0.206   2.806   2.748 -0.4906 -0.0818  1.0374
 3918TIP3   OH233168   1.040   5.632   6.312 -0.1472 -0.2214  0.1712
 3918TIP3    H133169   1.096   5.577   6.368 -0.8500 -2.5628 -1.3816
 3918TIP3    H233170   0.973   5.573   6.279 -0.7447  1.5007 -1.8088
 3919TIP3   OH233171   5.550   0.559  11.804  0.0273  0.4391 -0.5285
 3919TIP3    H133172   5.572   0.532  11.715  0.9767 -0.2832 -0.0835
 3919TIP3    H233173   5.476   0.619  11.793  0.4260  0.7108 -1.8364
 3920TIP3   OH233174   0.218   0.881   2.757  0.1002 -0.5562 -0.8631
 3920TIP3    H133175   0.272   0.823   2.703  0.3576  0.0322 -1.2516
 3920TIP3    H233176   0.275   0.907   2.829 -0.1292 -1.0656 -0.5010
 3921TIP3   OH233177   3.094   3.305   0.101  0.2099  0.1969 -0.2248
 3921TIP3    H133178   3.162   3.253   0.143  0.4611  0.2133 -0.6106
 3921TIP3    H233179   3.053   3.246   0.039 -1.5001 -0.4267  1.4470
 3922TIP3   OH233180   2.384   5.430   0.539  0.0098 -0.3405 -0.5635
 3922TIP3    H133181   2.455   5.480   0.579 -0.4216 -0.5447  0.4646
 3922TIP3    H233182   2.406   5.428   0.446  0.3830  1.1892 -0.5261
 3923TIP3   OH233183   5.259   3.168   4.542 -0.3977 -0.1183 -0.3300
 3923TIP3    H133184   5.298   3.090   4.583 -1.5604  0.1016  1.2169
 3923TIP3    H233185   5.165   3.155   4.550 -0.6067  1.1642 -0.6194
 3924TIP3   OH233186   0.301   5.820   1.064 -0.1483  0.6754  0.4772
 3924TIP3    H133187   0.215   5.854   1.084  0.3005  1.4951  1.0069
 3924TIP3    H233188   0.285   5.752   0.998 -1.3692 -0.4169  1.8771
 3925TIP3   OH233189   5.045   1.628   0.641 -0.0990 -0.8412  0.0506
 3925TIP3    H133190   5.055   1.666   0.554  0.3280  0.0849  0.4950
 3925TIP3    H233191   5.088   1.543   0.635 -0.5808 -1.0246 -0.8043
 3926TIP3   OH233192   2.166   5.671   2.084  0.0598  0.2343 -0.2872
 3926TIP3    H133193   2.168   5.665   2.180  0.2344 -0.8967 -0.3453
 3926TIP3    H233194   2.254   5.701   2.060  0.1419  0.1348 -0.1120
 3927TIP3   OH233195   6.731   6.112   3.565  0.0013  0.3016 -0.0294
 3927TIP3    H133196   6.815   6.108   3.611  0.7391 -0.0741 -1.3796
 3927TIP3    H233197   6.666   6.098   3.634  1.1376 -1.7228  0.7039
 3928TIP3   OH233198   6.494   2.275   5.433  0.3526  0.0680  0.4662
 3928TIP3    H133199   6.444   2.285   5.514  0.0833  0.3966  0.2599
 3928TIP3    H233200   6.585   2.271   5.461  0.1317 -1.7203  0.9399
 3929TIP3   OH233201   5.874   2.521  16.691 -0.1347  0.0410 -0.0493
 3929TIP3    H133202   5.872   2.616  16.692 -0.8235  0.0310 -0.1926
 3929TIP3    H233203   5.900   2.496  16.780 -1.8166  0.3240  0.5289
 3930TIP3   OH233204   2.150   6.051  15.427  0.0993  0.5890 -0.1822
 3930TIP3    H133205   2.216   6.085  15.367  1.3879 -0.4548  0.6131
 3930TIP3    H233206   2.173   6.088  15.512 -0.3248  0.2021  0.1035
 3931TIP3   OH233207   0.058   3.354  17.073 -0.2912 -0.0033  0.4851
 3931TIP3    H133208   0.069   3.314  17.159 -0.4300 -1.0780  0.0239
 3931TIP3    H233209   0.143   3.342  17.030 -0.5658 -0.5219  0.0650
 3932TIP3   OH233210   5.703   1.818  16.680 -0.4333  0.1530 -0.0525
 3932TIP3    H133211   5.694   1.913  16.682  0.8069  0.3069 -1.1838
 3932TIP3    H233212   5.796   1.802  16.667 -0.6441 -1.2160 -0.0049
 3933TIP3   OH233213   6.418   1.135   5.839  0.0939  0.3275 -0.1011
 3933TIP3    H133214   6.444   1.113   5.928 -1.6605  0.7038  0.5255
 3933TIP3    H233215   6.347   1.199   5.850 -1.1035 -0.6847 -1.7271
 3934TIP3   OH233216   2.471   4.211   1.830 -0.0974  0.6436 -0.3532
 3934TIP3    H133217   2.563   4.229   1.845 -0.0996  0.5341 -0.2142
 3934TIP3    H233218   2.446   4.150   1.899  0.7690 -2.7218 -2.8663
 3935TIP3   OH233219   0.677   5.575  15.681 -0.0691 -0.6339  0.0016
 3935TIP3    H133220   0.607   5.617  15.631 -2.7612 -3.0655  1.5672
 3935TIP3    H233221   0.681   5.625  15.763  0.7638  0.1320 -0.4955
 3936TIP3   OH233222   1.666   2.335  10.477 -0.0404  0.6101 -0.1279
 3936TIP3    H133223   1.692   2.273  10.409 -1.3624 -0.0168 -0.0730
 3936TIP3    H233224   1.744   2.345  10.531  0.9783  0.9852 -1.6339
 3937TIP3   OH233225   2.619   3.264  16.124 -0.5035 -0.5075  0.0005
 3937TIP3    H133226   2.670   3.335  16.162 -1.0354 -0.8416  1.3778
 3937TIP3    H233227   2.599   3.293  16.035  0.8975  0.2205 -0.0803
 3938TIP3   OH233228   5.373   3.779  16.709 -0.1447  0.1162 -0.0065
 3938TIP3    H133229   5.401   3.751  16.621  2.5533  0.7732  0.5870
 3938TIP3    H233230   5.436   3.739  16.768 -1.5371  0.2455  1.6007
 3939TIP3   OH233231   1.182   2.584   4.664 -0.8329 -0.4399  0.0362
 3939TIP3    H133232   1.088   2.574   4.683 -0.5762 -0.3542  1.4020
 3939TIP3    H233233   1.202   2.510   4.606 -1.6294 -0.7821  0.1843
 3940TIP3   OH233234   5.312   6.516  13.566 -0.5702  0.0956  0.2474
 3940TIP3    H133235   5.299   6.510  13.660 -1.0521  1.6035  0.2975
 3940TIP3    H233236   5.256   6.448  13.529  1.7981 -2.4218  1.1744
 3941TIP3   OH233237   1.301   4.488  12.461 -0.4338  0.4384 -0.5661
 3941TIP3    H133238   1.389   4.514  12.433 -0.2257 -0.3292 -0.6504
 3941TIP3    H233239   1.315   4.404  12.505 -1.4305 -0.8879 -2.7083
 3942TIP3   OH233240   1.255   3.013   2.441  0.2367  0.5103 -0.2454
 3942TIP3    H133241   1.206   3.096   2.439 -1.8370 -0.4568  3.9819
 3942TIP3    H233242   1.197   2.950   2.398 -0.0668  0.3979  0.3218
 3943TIP3   OH233243   3.660   1.295   0.952 -0.0923 -0.0950 -0.2488
 3943TIP3    H133244   3.628   1.280   1.041 -0.4673 -2.1773 -0.7057
 3943TIP3    H233245   3.740   1.346   0.964  0.0988 -0.7236  1.3162
 3944TIP3   OH233246   5.450   4.034  16.217 -0.1363 -0.2514 -0.5005
 3944TIP3    H133247   5.545   4.029  16.213 -0.1799 -0.4228 -1.3483
 3944TIP3    H233248   5.420   3.964  16.159 -0.7807 -1.0348  0.7564
 3945TIP3   OH233249   5.649   1.034  13.026 -0.0010 -0.2032  0.1205
 3945TIP3    H133250   5.717   1.044  13.092  0.3671 -0.5956 -0.2021
 3945TIP3    H233251   5.694   1.000  12.949 -0.4856 -0.0657 -0.2323
 3946TIP3   OH233252   3.454   2.476  15.811 -0.4756  0.1705 -0.0608
 3946TIP3    H133253   3.502   2.484  15.728 -0.4957  1.7511  0.0542
 3946TIP3    H233254   3.497   2.539  15.869 -1.0397 -0.2774  0.8520
 3947TIP3   OH233255   2.003   5.407   1.109 -0.1553  0.4537  0.2374
 3947TIP3    H133256   1.971   5.341   1.170 -1.0978 -1.0540 -1.8159
 3947TIP3    H233257   2.098   5.406   1.120 -0.0968 -1.7626 -0.2218
 3948TIP3   OH233258   4.171   2.141   3.994 -0.0778  0.6392  0.5822
 3948TIP3    H133259   4.118   2.088   4.054  0.2592 -0.0021  0.3251
 3948TIP3    H233260   4.214   2.077   3.937  0.2226  1.2007  0.1668
 3949TIP3   OH233261   2.541   2.430  16.878 -0.3280 -0.2991  0.0452
 3949TIP3    H133262   2.557   2.412  16.971  0.2247  1.5632  0.3377
 3949TIP3    H233263   2.449   2.405  16.864 -0.2128 -1.2378  0.9235
 3950TIP3   OH233264   4.531   6.305   3.198 -0.2999  0.0241 -0.4017
 3950TIP3    H133265   4.486   6.386   3.176  1.4634  1.0697 -0.2306
 3950TIP3    H233266   4.485   6.238   3.148 -2.1527  1.0203 -0.0895
 3951TIP3   OH233267   1.594   5.040   3.965  0.0174  0.3406 -0.1615
 3951TIP3    H133268   1.564   5.104   4.030 -0.7455 -1.2201  1.0617
 3951TIP3    H233269   1.513   4.999   3.933  0.3961  0.9992 -2.0204
 3952TIP3   OH233270   1.373   4.506  17.139 -0.0364  0.5142  0.0303
 3952TIP3    H133271   1.320   4.557  17.078 -0.6818  0.0071  0.1637
 3952TIP3    H233272   1.437   4.568  17.173  0.4359  0.7689 -1.2856
 3953TIP3   OH233273   3.943   6.565   2.376 -0.1421  0.1444  0.2925
 3953TIP3    H133274   4.020   6.612   2.409  0.3378  0.6071 -1.4391
 3953TIP3    H233275   3.913   6.513   2.451  3.6081 -2.3557  0.1520
 3954TIP3   OH233276   4.728   2.029  14.136  0.0243  0.1128 -0.0030
 3954TIP3    H133277   4.685   1.954  14.093 -0.2836  0.4455 -0.2836
 3954TIP3    H233278   4.821   2.017  14.117 -0.0645  0.0200 -0.3997
 3955TIP3   OH233279   1.321   2.011  14.907 -0.5685 -0.4502 -0.7190
 3955TIP3    H133280   1.373   2.082  14.945 -0.2735 -1.3819  0.6409
 3955TIP3    H233281   1.244   2.055  14.871 -0.4749  0.5466  0.2640
 3956TIP3   OH233282   5.410   6.360  17.201 -0.2833  0.3897  0.2327
 3956TIP3    H133283   5.370   6.383  17.118 -0.9104 -0.1071  0.3888
 3956TIP3    H233284   5.503   6.347  17.181 -0.2643  1.2141 -0.1997
 3957TIP3   OH233285   4.823   3.549  15.271 -0.3752 -0.6063 -0.1327
 3957TIP3    H133286   4.854   3.637  15.296  1.5418 -1.0101 -1.0047
 3957TIP3    H233287   4.898   3.492  15.288 -1.1154 -1.8530 -1.0050
 3958TIP3   OH233288   1.887   2.714  11.406 -0.0750  0.0296 -0.3660
 3958TIP3    H133289   1.882   2.625  11.443  3.0000  0.0486  0.1942
 3958TIP3    H233290   1.836   2.767  11.467  1.6201 -0.6371  1.6764
 3959TIP3   OH233291   0.872   0.376  15.359  0.3649  0.6818  0.1875
 3959TIP3    H133292   0.965   0.353  15.365  0.4516  1.0102  0.1039
 3959TIP3    H233293   0.868   0.466  15.390 -0.2042  0.0473  1.9832
 3960TIP3   OH233294   4.442   4.523   1.546  0.2784  0.0778 -0.2598
 3960TIP3    H133295   4.398   4.595   1.500  0.6516 -0.2285 -1.1059
 3960TIP3    H233296   4.412   4.444   1.501 -0.6384 -0.3526  1.0850
 3961TIP3   OH233297   0.355   0.740   2.527  0.0339 -0.3576  0.7690
 3961TIP3    H133298   0.353   0.707   2.437 -0.5936 -0.6642  0.8913
 3961TIP3    H233299   0.319   0.668   2.579  0.0264 -0.0284  1.2175
 3962TIP3   OH233300   2.537   5.021   2.161  0.0624 -0.4011  0.4465
 3962TIP3    H133301   2.460   4.965   2.148  0.9151 -1.3371 -0.6874
 3962TIP3    H233302   2.592   4.971   2.221  2.0825 -2.0798 -2.7166
 3963TIP3   OH233303   1.371   1.896  13.692  0.3005 -0.0127 -0.3128
 3963TIP3    H133304   1.287   1.858  13.715  0.3222 -0.2140 -0.5742
 3963TIP3    H233305   1.349   1.976  13.644  0.2548  0.3929  0.3754
 3964TIP3   OH233306   3.869   2.629  12.255 -1.0131  0.4707  0.0537
 3964TIP3    H133307   3.838   2.690  12.322  1.5871  0.7404  1.0758
 3964TIP3    H233308   3.943   2.674  12.214 -0.0817 -1.3254 -0.2830
 3965TIP3   OH233309   5.044   1.091   5.379  0.0391  0.4055 -0.1182
 3965TIP3    H133310   5.054   1.001   5.346 -0.7964  0.5660 -0.8262
 3965TIP3    H233311   4.959   1.091   5.424 -1.2889  1.5529 -2.5469
 3966TIP3   OH233312   5.311   6.463   5.391 -0.1947 -0.2112  0.3136
 3966TIP3    H133313   5.325   6.406   5.467 -0.5179 -0.9141 -0.1471
 3966TIP3    H233314   5.368   6.427   5.323 -1.3672 -0.8040 -0.3906
 3967TIP3   OH233315   1.397   2.207   3.444 -0.2690  0.2161 -0.0403
 3967TIP3    H133316   1.459   2.168   3.382  0.0247  0.4416  0.1069
 3967TIP3    H233317   1.446   2.212   3.526 -0.0665  1.5152 -0.2199
 3968TIP3   OH233318   2.415   3.979  15.256 -0.0012 -0.0196 -0.6812
 3968TIP3    H133319   2.477   3.984  15.183  1.2345 -0.1129  0.3530
 3968TIP3    H233320   2.414   4.068  15.291  0.5360 -0.3261  0.1138
 3969TIP3   OH233321   4.492   1.236   4.241 -0.1232  0.4484 -0.2233
 3969TIP3    H133322   4.452   1.260   4.158  0.9182  2.6289 -0.1258
 3969TIP3    H233323   4.422   1.249   4.306 -0.4213  0.4514 -0.5453
 3970TIP3   OH233324   2.880   5.860  16.501  0.0732  0.6249 -0.7350
 3970TIP3    H133325   2.791   5.843  16.471 -0.1163 -0.2320  0.3123
 3970TIP3    H233326   2.876   5.854  16.596  1.3820 -0.0234 -0.7075
 3971TIP3   OH233327   1.456   4.422  15.258  0.2299  0.3141 -0.8883
 3971TIP3    H133328   1.410   4.340  15.273  2.7455 -1.0841 -0.5563
 3971TIP3    H233329   1.395   4.475  15.206 -2.5300 -0.6688  1.2129
 3972TIP3   OH233330   3.647   4.563   5.800 -0.2608  0.0469  0.1078
 3972TIP3    H133331   3.685   4.567   5.887 -1.0945 -0.2102  0.4859
 3972TIP3    H233332   3.635   4.654   5.775  0.3022  0.1247  0.1181
 3973TIP3   OH233333   5.074   1.966  13.637 -0.2114 -0.6102 -0.0922
 3973TIP3    H133334   5.104   1.899  13.576  0.0545  0.2585 -0.9367
 3973TIP3    H233335   5.121   2.045  13.610 -1.7512  0.3017 -0.1567
 3974TIP3   OH233336   2.277   1.057  13.535 -0.0611 -0.3096 -0.2689
 3974TIP3    H133337   2.320   0.980  13.497  0.8113  0.3934 -0.6876
 3974TIP3    H233338   2.272   1.120  13.464  2.6167  1.4609  1.0413
 3975TIP3   OH233339   0.372   6.453   0.220 -0.0831  0.0500 -0.1513
 3975TIP3    H133340   0.467   6.452   0.234 -0.0884  1.4893  0.0302
 3975TIP3    H233341   0.335   6.449   0.308 -0.1938 -0.9243 -0.2429
 3976TIP3   OH233342   5.320   4.342   0.198 -0.2639  0.4495  0.0963
 3976TIP3    H133343   5.416   4.350   0.195 -0.1024 -1.2528  0.3196
 3976TIP3    H233344   5.292   4.359   0.109  0.3102  0.3791 -0.1008
 3977TIP3   OH233345   3.248   6.572  13.389  0.3683  0.5607 -0.0558
 3977TIP3    H133346   3.222   6.661  13.414 -2.3239 -0.6048  1.4725
 3977TIP3    H233347   3.213   6.561  13.300  0.4884  0.9438 -0.1509
 3978TIP3   OH233348   0.779   0.155   3.566  0.3961  0.7858  0.3263
 3978TIP3    H133349   0.873   0.161   3.584  0.6922  0.9104 -1.1537
 3978TIP3    H233350   0.768   0.071   3.521  0.2433  1.9123 -1.8569
 3979TIP3   OH233351   3.166   6.173   4.833  0.2434 -0.0988 -0.3257
 3979TIP3    H133352   3.181   6.210   4.920  1.1986 -1.3690  0.0766
 3979TIP3    H233353   3.247   6.190   4.785  0.4696 -1.1073 -0.3224
 3980TIP3   OH233354   3.770   0.077   3.496 -0.7396  0.1147 -0.1630
 3980TIP3    H133355   3.679   0.099   3.518 -1.0743 -1.6523  0.3305
 3980TIP3    H233356   3.764  -0.009   3.454  0.5632  0.6620 -1.5189
 3981TIP3   OH233357   6.758   1.982  15.450 -0.3138 -0.4340 -0.8871
 3981TIP3    H133358   6.746   2.023  15.364 -1.3954  0.6056 -0.2671
 3981TIP3    H233359   6.750   1.888  15.434  0.1596 -0.2800 -2.0258
 3982TIP3   OH233360   3.503   5.501   2.383 -0.2475  0.0912 -0.3754
 3982TIP3    H133361   3.539   5.589   2.375  1.3725 -0.7019 -2.1293
 3982TIP3    H233362   3.522   5.475   2.473 -0.1364  1.2533 -0.0557
 3983TIP3   OH233363   6.234   2.742  13.055 -0.0032 -0.1410 -0.0025
 3983TIP3    H133364   6.180   2.664  13.039  0.4333 -0.6180  0.8021
 3983TIP3    H233365   6.201   2.777  13.137  0.4148 -0.0085  0.1118
 3984TIP3   OH233366   0.544   1.395   4.388 -0.1256 -0.1658 -0.6895
 3984TIP3    H133367   0.558   1.386   4.482 -2.2077  2.0920 -0.1088
 3984TIP3    H233368   0.631   1.419   4.354 -0.0792  2.7474  1.2296
 3985TIP3   OH233369   3.167   4.583  14.709  0.5366 -0.5158 -0.1128
 3985TIP3    H133370   3.246   4.599  14.761  0.7565  0.0582 -0.6280
 3985TIP3    H233371   3.191   4.607  14.620 -0.5405  0.6574 -0.1015
 3986TIP3   OH233372   5.716   0.625   6.565  0.2800  0.4027 -0.1625
 3986TIP3    H133373   5.665   0.547   6.586  0.2407  0.6780  0.7885
 3986TIP3    H233374   5.651   0.696   6.560  0.5550  0.7738  1.1583
 3987TIP3   OH233375   4.424   4.595   1.206  0.0192  0.0603  0.0932
 3987TIP3    H133376   4.352   4.533   1.196 -1.4253  1.5965  0.7262
 3987TIP3    H233377   4.495   4.558   1.154 -0.9730 -1.8613  0.0622
 3988TIP3   OH233378   4.668   0.523   5.916  0.7339 -0.9256  1.2934
 3988TIP3    H133379   4.604   0.474   5.968  1.5548 -0.8200  2.4005
 3988TIP3    H233380   4.720   0.455   5.872  1.2482 -1.0495  2.0779
 3989TIP3   OH233381   4.215   1.478  11.294 -0.6952 -0.0423 -0.4216
 3989TIP3    H133382   4.200   1.555  11.349  2.3874  0.7242 -0.5655
 3989TIP3    H233383   4.187   1.505  11.207 -0.8298  0.4821 -0.2157
 3990TIP3   OH233384   4.669   1.180  13.349 -0.2900 -0.2387  0.1459
 3990TIP3    H133385   4.692   1.228  13.428  0.3237 -0.8846  0.3675
 3990TIP3    H233386   4.709   1.094  13.361 -1.0584 -0.6867 -0.4043
 3991TIP3   OH233387   6.291   3.922   5.405  0.0704  0.6537  0.1439
 3991TIP3    H133388   6.229   3.880   5.346  0.3727  0.4500 -0.0324
 3991TIP3    H233389   6.308   4.007   5.364  1.6142 -0.1737 -0.9998
 3992TIP3   OH233390   5.766   6.069   2.336  0.6586 -0.4191 -0.2277
 3992TIP3    H133391   5.836   6.131   2.318 -0.5173  0.2997 -2.5190
 3992TIP3    H233392   5.709   6.114   2.398  1.1406 -0.2174  0.0725
 3993TIP3   OH233393   2.328   2.729  12.867  0.0939  0.3702 -0.5382
 3993TIP3    H133394   2.318   2.678  12.787  1.2798 -0.5834 -0.0861
 3993TIP3    H233395   2.273   2.685  12.931 -1.2549  1.4302 -0.9573
 3994TIP3   OH233396   3.268   6.135  16.944 -0.1982 -0.3476 -0.6192
 3994TIP3    H133397   3.174   6.150  16.949  0.0851  1.8562 -1.3807
 3994TIP3    H233398   3.297   6.188  16.870  1.8509  0.1861  0.5243
 3995TIP3   OH233399   1.878   3.644  16.657 -0.2136 -0.1880  0.0117
 3995TIP3    H133400   1.805   3.693  16.619  0.9960  0.3507 -1.6700
 3995TIP3    H233401   1.836   3.577  16.712 -1.9101  1.5838  0.9250
 3996TIP3   OH233402   4.337   5.076   0.004  0.0732  0.3501  0.0593
 3996TIP3    H133403   4.292   5.131  -0.060 -0.0178 -0.2214 -0.3675
 3996TIP3    H233404   4.423   5.116   0.014 -0.1705  0.8607  0.1224
 3997TIP3   OH233405   1.276   5.946  12.962  0.0732  0.1187 -0.4861
 3997TIP3    H133406   1.298   5.910  13.047  1.3025  0.4676 -0.6528
 3997TIP3    H233407   1.183   5.968  12.969  0.3863  1.0071  1.0765
 3998TIP3   OH233408   0.844   2.284   4.814 -0.3358 -0.4733  0.1348
 3998TIP3    H133409   0.887   2.269   4.898  0.0975 -1.0558 -0.1872
 3998TIP3    H233410   0.903   2.340   4.765 -1.2161  0.9837  0.7277
 3999TIP3   OH233411   6.657   2.606  11.775 -0.4620  0.0023 -0.1507
 3999TIP3    H133412   6.613   2.560  11.846  0.6582  0.3658  0.7981
 3999TIP3    H233413   6.702   2.537  11.726  0.9072  0.0141  1.0509
 4000TIP3   OH233414   4.691   2.009   4.557  0.2744 -0.1567  0.1471
 4000TIP3    H133415   4.644   2.028   4.639  1.0408 -0.3009  0.6204
 4000TIP3    H233416   4.667   1.919   4.537 -0.1253 -0.0352  0.0680
 4001TIP3   OH233417   3.415   5.262   1.194 -0.7989 -0.3879  0.2863
 4001TIP3    H133418   3.428   5.183   1.141  0.1750 -0.2934  0.3645
 4001TIP3    H233419   3.503   5.284   1.226 -1.3486 -0.3504  1.8203
 4002TIP3   OH233420   0.214   6.184  15.574 -0.1591 -0.1235  0.1813
 4002TIP3    H133421   0.202   6.107  15.630 -1.1098  0.5991  0.9916
 4002TIP3    H233422   0.223   6.148  15.485  0.0402 -1.1965  0.6240
 4003TIP3   OH233423   1.170   3.839  12.988 -0.6581  0.1851  0.0219
 4003TIP3    H133424   1.124   3.758  12.970 -0.2005 -0.4921  1.7457
 4003TIP3    H233425   1.113   3.886  13.049 -0.6549  0.8800 -0.5097
 4004TIP3   OH233426   6.626   0.777  13.547 -0.0888 -0.8068  0.4617
 4004TIP3    H133427   6.558   0.838  13.574  1.0003 -0.2642  2.0911
 4004TIP3    H233428   6.616   0.702  13.606 -0.6315 -1.6702 -0.7128
 4005TIP3   OH233429   0.525   1.804  13.922 -0.7765  0.1703  0.0398
 4005TIP3    H133430   0.497   1.877  13.865 -0.5386  0.9631  0.9343
 4005TIP3    H233431   0.542   1.732  13.861 -1.7930  0.6095 -0.7885
 4006TIP3   OH233432   4.271   4.139  11.277  0.0480 -0.3108 -0.1313
 4006TIP3    H133433   4.322   4.100  11.206 -1.4232 -0.9843 -0.8281
 4006TIP3    H233434   4.237   4.064  11.326 -1.3275  0.1218 -0.4195
 4007TIP3   OH233435   5.442   5.316  11.134 -0.0060  0.2574  0.4482
 4007TIP3    H133436   5.385   5.376  11.085 -0.3194 -0.1995  0.2582
 4007TIP3    H233437   5.382   5.258  11.180  0.2986  0.1833  0.7491
 4008TIP3   OH233438   0.303   0.475   2.651 -1.0599  0.1706 -0.2810
 4008TIP3    H133439   0.369   0.407   2.659 -0.4855  0.8467  0.8307
 4008TIP3    H233440   0.273   0.469   2.560  0.2778 -0.3763 -0.6948
 4009TIP3   OH233441   0.026   4.830   0.445  0.2732  0.3139  0.0534
 4009TIP3    H133442   0.097   4.817   0.507  0.2115  1.3005  0.3495
 4009TIP3    H233443  -0.053   4.828   0.498  0.2071  0.9833 -0.0121
 4010TIP3   OH233444   2.085   1.860  16.200  0.1429 -0.1377 -0.4529
 4010TIP3    H133445   2.116   1.837  16.287  1.0404  2.0614 -0.1611
 4010TIP3    H233446   2.036   1.941  16.212 -0.2137 -0.1194 -1.9053
 4011TIP3   OH233447   2.469   1.808  13.008  0.1161  0.0718  0.2295
 4011TIP3    H133448   2.494   1.889  13.051 -0.0353 -0.5103  1.4591
 4011TIP3    H233449   2.395   1.775  13.059  0.4489 -1.0520  0.0222
 4012TIP3   OH233450   6.570   3.236   5.541  0.5950 -0.7059  0.4966
 4012TIP3    H133451   6.535   3.149   5.523 -0.3777 -0.4946  1.3076
 4012TIP3    H233452   6.533   3.292   5.473  0.7398 -0.8132  0.3303
 4013TIP3   OH233453   4.089   2.007   4.886 -0.2699 -0.2857 -0.1464
 4013TIP3    H133454   4.180   2.027   4.867  0.3266 -0.4907  2.2707
 4013TIP3    H233455   4.053   1.976   4.803  2.0861 -1.0465 -0.9216
 4014TIP3   OH233456   5.528   4.100   0.196 -0.2218 -0.1463  0.1415
 4014TIP3    H133457   5.577   4.039   0.251 -0.8722 -1.1594 -0.3828
 4014TIP3    H233458   5.586   4.175   0.186  0.3008 -0.3676  1.3961
 4015TIP3   OH233459   2.024   2.902  11.656  0.1854  0.4521 -1.2382
 4015TIP3    H133460   2.052   2.812  11.670 -0.9952  0.3723  0.7443
 4015TIP3    H233461   1.941   2.895  11.610 -0.6112  0.4845  0.1843
 4016TIP3   OH233462   6.438   2.455   0.553 -0.6717 -0.1249  0.4176
 4016TIP3    H133463   6.478   2.485   0.634  0.9808  2.0112 -1.1441
 4016TIP3    H233464   6.492   2.493   0.484 -2.1295 -1.7848 -1.7003
 4017TIP3   OH233465   3.361   1.204   2.844 -0.3799  0.0684 -0.2303
 4017TIP3    H133466   3.405   1.120   2.848 -1.2383 -0.3705  0.1830
 4017TIP3    H233467   3.427   1.265   2.811  0.3607 -0.6831 -0.1372
 4018TIP3   OH233468   1.604   1.028   5.428  0.7514 -0.1053 -0.1510
 4018TIP3    H133469   1.587   1.103   5.484 -0.5143 -0.9990  0.6813
 4018TIP3    H233470   1.518   0.991   5.411  1.5173 -2.4907  1.0094
 4019TIP3   OH233471   2.359   0.275   3.310 -0.4380 -0.2435 -0.0598
 4019TIP3    H133472   2.401   0.228   3.382 -0.2791 -0.2689 -0.1707
 4019TIP3    H233473   2.390   0.365   3.318 -0.2157 -0.3044 -0.2574
 4020TIP3   OH233474   1.844   2.633   2.296 -0.4790  1.1230  0.1907
 4020TIP3    H133475   1.833   2.538   2.285  0.1928  0.9942  0.5905
 4020TIP3    H233476   1.758   2.670   2.275 -1.5154  0.2215  2.7276
 4021TIP3   OH233477   5.329   3.624   5.879 -0.8922 -0.5376 -0.4692
 4021TIP3    H133478   5.279   3.683   5.823 -1.9241 -2.0818 -1.2090
 4021TIP3    H233479   5.266   3.596   5.946 -0.2152 -0.2448  0.2917
 4022TIP3   OH233480   2.918   4.510  12.240  0.0307 -0.5225 -0.2379
 4022TIP3    H133481   2.946   4.592  12.281 -0.3833 -0.3108 -0.3693
 4022TIP3    H233482   2.831   4.530  12.206 -0.0354 -0.9955 -0.3410
 4023TIP3   OH233483   3.554   3.463  12.107  0.1930 -0.3671 -0.0196
 4023TIP3    H133484   3.614   3.477  12.180 -2.4972  2.3805  1.7633
 4023TIP3    H233485   3.528   3.551  12.080 -2.0184 -1.4673 -1.6455
 4024TIP3   OH233486   1.195   2.309   2.056 -0.5017  0.3786  0.0643
 4024TIP3    H133487   1.243   2.331   1.976 -0.3525  2.2054  0.6281
 4024TIP3    H233488   1.201   2.388   2.110 -0.1378 -1.0069  2.1227
 4025TIP3   OH233489   2.224   5.996   6.551  0.4552  0.4481  0.0354
 4025TIP3    H133490   2.307   6.013   6.597 -0.6266  2.2480  1.3946
 4025TIP3    H233491   2.157   6.011   6.618 -1.0686  1.3133 -1.6662
 4026TIP3   OH233492   1.717   5.634  12.350  0.0941 -0.0161  0.4715
 4026TIP3    H133493   1.644   5.654  12.291  1.7276  1.1377 -1.2236
 4026TIP3    H233494   1.750   5.550  12.320 -0.6492 -0.6498  1.3859
 4027TIP3   OH233495   0.107   1.515   6.180  0.1918 -0.6728  0.2145
 4027TIP3    H133496   0.155   1.467   6.112  0.4015 -0.8281  0.4713
 4027TIP3    H233497   0.024   1.540   6.138  0.6794 -0.0195 -0.3699
 4028TIP3   OH233498   0.759   0.636  13.197 -0.4884  0.6470  0.7101
 4028TIP3    H133499   0.750   0.662  13.288 -1.2293  2.5376  0.1244
 4028TIP3    H233500   0.811   0.706  13.157 -0.1865 -0.1499 -0.3220
 4029TIP3   OH233501   5.213   5.680   3.733  0.3931  0.3812 -0.0873
 4029TIP3    H133502   5.285   5.734   3.767  0.6942  1.1401 -1.8793
 4029TIP3    H233503   5.185   5.725   3.654  0.3480 -1.8672 -1.3804
 4030TIP3   OH233504   0.421   2.844  15.258  0.6194  0.2839 -0.2349
 4030TIP3    H133505   0.440   2.821  15.349  2.0613  1.2108 -0.2849
 4030TIP3    H233506   0.429   2.761  15.210 -4.4560 -1.1334  1.0517
 4031TIP3   OH233507   6.157   6.537   6.138  0.1117  0.0654  0.5703
 4031TIP3    H133508   6.080   6.579   6.101  0.1559 -0.0382  0.3605
 4031TIP3    H233509   6.175   6.586   6.218  1.1656  1.5202 -0.5443
 4032TIP3   OH233510   2.185   0.972  14.347 -0.0650  0.6407  0.4946
 4032TIP3    H133511   2.092   0.997  14.354 -0.5097 -0.8507  0.0477
 4032TIP3    H233512   2.230   1.054  14.326 -1.4316  1.1780 -0.3906
 4033TIP3   OH233513   1.647   6.542  15.079  0.7286  0.3939  0.1728
 4033TIP3    H133514   1.699   6.534  15.159  1.5121 -1.3125 -0.4831
 4033TIP3    H233515   1.579   6.605  15.101  0.6976 -0.3406  2.3322
 4034TIP3   OH233516   4.500   3.358  11.297 -0.1580  0.4195  0.0916
 4034TIP3    H133517   4.433   3.310  11.345  0.8573 -1.9688 -0.7957
 4034TIP3    H233518   4.551   3.402  11.364 -0.1353 -1.0576  1.0733
 4035TIP3   OH233519   5.094   2.866   4.376  0.1949  0.0333  0.6156
 4035TIP3    H133520   5.088   2.928   4.303 -0.5257 -2.1133 -1.2053
 4035TIP3    H233521   5.187   2.845   4.381  0.0577 -0.9566 -0.7008
 4036TIP3   OH233522   5.672   2.575   1.410 -0.0200 -0.5130  0.0391
 4036TIP3    H133523   5.684   2.656   1.360  0.6283 -0.7550 -0.2011
 4036TIP3    H233524   5.761   2.546   1.431 -0.2853  0.0889  2.1511
 4037TIP3   OH233525   1.883   5.901  15.663 -0.0619  0.1401  0.2627
 4037TIP3    H133526   1.835   5.823  15.690  0.2284 -0.3051 -0.4950
 4037TIP3    H233527   1.878   5.960  15.739  2.1087 -1.7195  1.9341
 4038TIP3   OH233528   6.470   6.770  11.316 -0.5360  0.1879 -0.3990
 4038TIP3    H133529   6.451   6.708  11.387 -0.1216  1.4453  0.8239
 4038TIP3    H233530   6.384   6.803  11.290 -0.7301 -0.6144 -0.8081
 4039TIP3   OH233531   4.534   2.735   5.503 -0.1453  0.3677 -0.2699
 4039TIP3    H133532   4.570   2.649   5.525 -0.4564  0.0578 -0.9421
 4039TIP3    H233533   4.609   2.786   5.473 -0.0667  0.1183 -0.5000
 4040TIP3   OH233534   2.214   6.375  14.075 -0.7474  0.6746 -0.2458
 4040TIP3    H133535   2.185   6.292  14.037  1.2037  0.0952 -0.4968
 4040TIP3    H233536   2.133   6.421  14.097 -1.8763 -2.2390  1.9884
 4041TIP3   OH233537   4.203   4.323   4.708  0.2364  0.3018 -0.2057
 4041TIP3    H133538   4.170   4.246   4.663  0.0138 -0.5979  1.4900
 4041TIP3    H233539   4.178   4.311   4.799 -0.4067  2.7055 -0.0377
 4042TIP3   OH233540   2.254   1.827  14.612  0.2997 -0.3223  0.1545
 4042TIP3    H133541   2.335   1.863  14.575 -1.2950  3.9758  0.5215
 4042TIP3    H233542   2.223   1.766  14.545  1.9977  0.6933 -1.6308
 4043TIP3   OH233543   1.941   4.372  12.770 -0.0189 -0.1470  0.1290
 4043TIP3    H133544   1.872   4.306  12.783 -1.7679  1.7963  0.9744
 4043TIP3    H233545   1.921   4.412  12.686 -0.7058  1.2998  0.9634
 4044TIP3   OH233546   3.638   6.484   5.079  0.3648  0.3703 -0.1742
 4044TIP3    H133547   3.584   6.540   5.135 -2.0580 -2.6551  0.6972
 4044TIP3    H233548   3.699   6.443   5.139 -1.5191 -2.0494  0.1724
 4045TIP3   OH233549   2.258   1.041  15.108  0.8366 -0.1337 -0.4988
 4045TIP3    H133550   2.322   1.049  15.179 -1.9570 -0.7932  2.1787
 4045TIP3    H233551   2.260   0.948  15.085  0.6400 -0.2032 -0.2334
 4046TIP3   OH233552   4.805   2.045   4.002 -0.2017  0.5098 -0.7726
 4046TIP3    H133553   4.771   1.966   4.043  0.0915  0.5774 -0.3942
 4046TIP3    H233554   4.728   2.090   3.969 -0.3964  0.2130 -0.7215
 4047TIP3   OH233555   1.087   1.664  16.375 -0.3249 -0.4284  0.2001
 4047TIP3    H133556   1.135   1.647  16.294 -1.0881  2.2001 -0.8462
 4047TIP3    H233557   1.026   1.591  16.382  1.6101 -2.1413 -0.1165
 4048TIP3   OH233558   5.985   4.269   5.291 -0.0121  0.0182  0.0683
 4048TIP3    H133559   5.978   4.364   5.305 -0.4847 -0.0140  0.0333
 4048TIP3    H233560   5.956   4.256   5.201 -1.7266 -0.3886  0.6653
 4049TIP3   OH233561   6.043   4.369   3.508  0.3477  0.3066 -0.2582
 4049TIP3    H133562   6.109   4.302   3.523 -1.2622 -0.9139  1.5835
 4049TIP3    H233563   6.080   4.449   3.545  0.6127 -0.4542  1.1163
 4050TIP3   OH233564   2.781   0.582   5.225 -0.2257 -0.4917  0.4753
 4050TIP3    H133565   2.855   0.595   5.285 -0.1821 -0.0400  0.3279
 4050TIP3    H233566   2.781   0.660   5.170  0.0706 -1.1425 -0.4678
 4051TIP3   OH233567   3.701   1.956   2.349  1.0371 -0.3316 -0.0774
 4051TIP3    H133568   3.723   2.004   2.429  0.9222 -1.7469  0.8227
 4051TIP3    H233569   3.631   1.897   2.375  1.9200 -1.7578 -0.8917
 4052TIP3   OH233570   6.730   6.020  17.232 -0.1790  0.3768  0.1018
 4052TIP3    H133571   6.669   5.958  17.272  0.0421  0.7555  1.0402
 4052TIP3    H233572   6.674   6.089  17.195 -0.4512 -0.6343 -1.4048
 4053TIP3   OH233573   2.605   5.074  11.954 -0.3317  0.2485 -0.3534
 4053TIP3    H133574   2.669   5.093  11.886  1.3931 -4.0077 -0.0486
 4053TIP3    H233575   2.653   5.085  12.036 -0.8311 -0.1418 -0.0103
 4054TIP3   OH233576   0.003   0.012   5.098  0.3701  1.0228 -0.1067
 4054TIP3    H133577  -0.085   0.000   5.135  1.0698 -1.4148  0.8636
 4054TIP3    H233578  -0.003  -0.028   5.011 -0.5125  4.3504 -1.6878
 4055TIP3   OH233579   3.737   3.744   0.498 -0.9150  0.1364  0.4273
 4055TIP3    H133580   3.680   3.700   0.434 -1.0198  1.0025 -0.0758
 4055TIP3    H233581   3.744   3.681   0.570 -2.1262 -0.1820  0.2908
 4056TIP3   OH233582   6.572   3.364   2.137  0.5749 -0.3283  0.0503
 4056TIP3    H133583   6.624   3.439   2.107 -1.0788  1.6651  1.9783
 4056TIP3    H233584   6.567   3.306   2.062  1.2449  1.8923 -1.7543
 4057TIP3   OH233585   2.922   2.465  14.063  0.0780 -0.1613 -0.2317
 4057TIP3    H133586   2.849   2.493  14.118 -0.2962 -2.5729  0.5311
 4057TIP3    H233587   2.937   2.540  14.004 -2.1874  0.8374  0.4008
 4058TIP3   OH233588   2.496   4.895  16.231 -0.0704  0.1210  0.0580
 4058TIP3    H133589   2.401   4.889  16.236 -0.0819  0.2700  0.0237
 4058TIP3    H233590   2.514   4.923  16.142  0.0698 -1.0936 -0.3048
 4059TIP3   OH233591   2.819   0.242   6.035 -0.6949  0.9913  0.7157
 4059TIP3    H133592   2.793   0.153   6.013  1.2154  0.9857 -1.7839
 4059TIP3    H233593   2.751   0.297   5.996  0.1475  0.7532 -1.1663
 4060TIP3   OH233594   5.771   5.429  16.730  0.0783 -0.0773 -0.3179
 4060TIP3    H133595   5.813   5.491  16.789 -1.7484 -0.8894  1.8858
 4060TIP3    H233596   5.702   5.480  16.687 -0.1786 -0.0810  0.0839
 4061TIP3   OH233597   5.696   6.531   4.483 -0.2027  0.1957  0.1409
 4061TIP3    H133598   5.667   6.451   4.440 -1.0930  0.2714  0.5741
 4061TIP3    H233599   5.616   6.567   4.522  0.1393  1.4302 -0.2825
 4062TIP3   OH233600   5.179   1.098   1.138 -0.0029 -0.3081  0.0898
 4062TIP3    H133601   5.227   1.134   1.213 -0.4512  3.0872 -1.1371
 4062TIP3    H233602   5.248   1.066   1.080  0.4770 -0.6012  0.8037
 4063TIP3   OH233603   2.846   4.764  13.885  0.0977 -0.4655 -0.4565
 4063TIP3    H133604   2.758   4.793  13.860 -0.0238 -1.1030 -0.7641
 4063TIP3    H233605   2.857   4.679  13.842  0.7867 -0.4842 -0.2502
 4064TIP3   OH233606   6.104   2.182   0.301 -0.1422 -0.2051 -0.0813
 4064TIP3    H133607   6.012   2.176   0.327 -0.0121 -3.1772 -0.1506
 4064TIP3    H233608   6.152   2.140   0.372  1.1273  0.8437 -0.3028
 4065TIP3   OH233609   6.141   5.374   3.822  0.3263  0.4795 -0.4014
 4065TIP3    H133610   6.227   5.413   3.836 -0.2838  2.3419 -1.5659
 4065TIP3    H233611   6.139   5.353   3.729 -0.3980  0.2714 -0.3411
 4066TIP3   OH233612   4.398   4.478   3.212 -0.0453 -0.8161  0.2768
 4066TIP3    H133613   4.425   4.484   3.304  0.4587 -1.4737  0.1747
 4066TIP3    H233614   4.428   4.560   3.173 -2.2171  0.4796  1.1885
 4067TIP3   OH233615   5.333   1.372   1.189 -0.0334 -0.0970  0.0286
 4067TIP3    H133616   5.354   1.441   1.252  0.0135 -1.2251  1.2628
 4067TIP3    H233617   5.352   1.290   1.235 -2.1590 -0.9997 -0.6435
 4068TIP3   OH233618   4.119   5.999   4.607  0.0082 -0.7371  0.3295
 4068TIP3    H133619   4.040   6.016   4.556  0.3526  0.4532  0.1807
 4068TIP3    H233620   4.175   6.075   4.591  0.8290 -1.1610  1.1222
 4069TIP3   OH233621   0.736   2.670   3.939  0.0962 -0.2989  0.2611
 4069TIP3    H133622   0.761   2.665   3.847  1.1203 -0.0480  0.5159
 4069TIP3    H233623   0.738   2.764   3.959  0.2262 -0.3773  0.6262
 4070TIP3   OH233624   1.863   4.328   6.434  0.2145  0.4198 -0.3572
 4070TIP3    H133625   1.871   4.418   6.466 -0.3058  0.7988 -1.2679
 4070TIP3    H233626   1.802   4.334   6.360 -1.1391 -0.9408  0.6155
 4071TIP3   OH233627   1.362   3.423   5.477 -0.1407  0.0006  0.2493
 4071TIP3    H133628   1.439   3.365   5.482 -0.6128 -0.6721 -0.2422
 4071TIP3    H233629   1.298   3.382   5.535 -0.7341 -0.3645 -0.6520
 4072TIP3   OH233630   0.751   6.668  16.333  0.0520  0.7858 -0.0172
 4072TIP3    H133631   0.702   6.686  16.413 -0.2567  1.6681 -0.4016
 4072TIP3    H233632   0.838   6.705  16.348  0.0620  0.7588 -0.0067
 4073TIP3   OH233633   2.189   1.628   5.660 -0.3929 -0.1268  0.1911
 4073TIP3    H133634   2.170   1.711   5.616  1.4970 -0.3730 -1.1552
 4073TIP3    H233635   2.120   1.569   5.631 -2.5152  1.3083  2.1997
 4074TIP3   OH233636   2.231   4.778  11.725 -0.2575 -0.1717 -0.3028
 4074TIP3    H133637   2.295   4.832  11.678  0.1981 -1.5596 -1.3080
 4074TIP3    H233638   2.167   4.841  11.759  1.9322  1.3131  1.2372
 4075TIP3   OH233639   1.641   0.431  15.619 -0.2299 -0.5300 -0.1756
 4075TIP3    H133640   1.677   0.476  15.543 -0.3045 -2.1841 -1.2232
 4075TIP3    H233641   1.702   0.449  15.690 -1.2007  2.6926 -0.0951
 4076TIP3   OH233642   3.438   3.285   1.154  0.0073 -0.1294  0.7810
 4076TIP3    H133643   3.395   3.261   1.072  1.1398 -2.3567  0.7975
 4076TIP3    H233644   3.374   3.265   1.222 -0.5054  0.6386  0.5339
 4077TIP3   OH233645   6.673   2.014  14.374 -0.2005  0.4198 -0.0660
 4077TIP3    H133646   6.659   1.923  14.399  0.3883 -0.0545 -1.4252
 4077TIP3    H233647   6.588   2.056  14.389 -1.1267 -0.8607 -1.5740
 4078TIP3   OH233648   4.439   0.731   5.227  0.2327  0.2819  0.3898
 4078TIP3    H133649   4.443   0.639   5.200 -1.0419  0.6644 -1.1643
 4078TIP3    H233650   4.356   0.738   5.275 -0.3110  0.8997 -0.6217
 4079TIP3   OH233651   2.122   6.704   3.730 -0.0623  0.1270 -0.1293
 4079TIP3    H133652   2.106   6.797   3.716  1.6109  0.5927  0.7877
 4079TIP3    H233653   2.072   6.682   3.809  1.5438  0.9005  1.1431
 4080TIP3   OH233654   1.751   4.571   0.693  0.0539 -0.3364 -0.2723
 4080TIP3    H133655   1.741   4.659   0.656  0.3715  0.2322  0.9462
 4080TIP3    H233656   1.844   4.551   0.680  0.6794  0.7962  2.1664
 4081TIP3   OH233657   4.953   3.885  13.117  0.4415  0.5876 -0.0387
 4081TIP3    H133658   4.881   3.865  13.176  0.8276  0.1336  0.2945
 4081TIP3    H233659   4.931   3.839  13.036 -0.4214  1.7706 -0.4902
 4082TIP3   OH233660   5.128   1.919  10.674 -0.1254 -0.1465  0.0189
 4082TIP3    H133661   5.183   1.854  10.716  1.1776  0.3219 -0.9210
 4082TIP3    H233662   5.067   1.869  10.621  1.9079 -0.5880 -1.9656
 4083TIP3   OH233663   2.287   5.429  13.921 -0.0395  0.2886  0.5550
 4083TIP3    H133664   2.252   5.444  14.008 -0.8179  1.7639  0.0100
 4083TIP3    H233665   2.235   5.358  13.885  0.2782 -0.3121  1.2840
 4084TIP3   OH233666   6.410   5.170  12.604  0.2372  0.2559 -0.1267
 4084TIP3    H133667   6.348   5.223  12.655 -1.7272 -1.7582 -0.3221
 4084TIP3    H233668   6.355   5.125  12.539  2.4263  1.1671 -2.6782
 4085TIP3   OH233669   3.493   6.270  13.027  0.2695 -0.0845  0.2498
 4085TIP3    H133670   3.561   6.242  12.965  1.1418  0.3054  1.0179
 4085TIP3    H233671   3.500   6.208  13.100  0.4335  0.5155  0.7535
 4086TIP3   OH233672   3.875   2.713  16.397  0.2093 -0.0712  0.1618
 4086TIP3    H133673   3.840   2.629  16.366  0.1707  0.2753 -0.7417
 4086TIP3    H233674   3.953   2.689  16.446  0.5515 -0.5968 -0.6202
 4087TIP3   OH233675   2.499   1.879  16.370  0.6253  0.7127 -0.3850
 4087TIP3    H133676   2.498   1.795  16.324  0.2274  0.9318 -0.7812
 4087TIP3    H233677   2.409   1.890  16.402  1.5902 -0.8399  3.0058
 4088TIP3   OH233678   6.538   1.468   1.510 -0.6237 -0.4929 -0.7037
 4088TIP3    H133679   6.474   1.502   1.447 -1.7496 -1.5576 -0.1795
 4088TIP3    H233680   6.536   1.373   1.497  1.0059 -0.5184 -0.8051
 4089TIP3   OH233681   1.954   4.829  17.109  0.5057 -0.0553 -0.4986
 4089TIP3    H133682   1.937   4.922  17.115 -0.4548 -0.2366 -0.3630
 4089TIP3    H233683   1.874   4.787  17.141  0.6086 -0.9271 -1.3444
 4090TIP3   OH233684   6.180   5.676   1.838  0.3459 -0.1879 -0.4613
 4090TIP3    H133685   6.106   5.623   1.867  0.0876  0.5090  0.1743
 4090TIP3    H233686   6.183   5.664   1.743  0.8619 -2.0621 -0.2331
 4091TIP3   OH233687   1.652   5.468  14.750 -0.4578  0.2855 -0.2736
 4091TIP3    H133688   1.609   5.520  14.683  0.9994 -0.8301 -2.1044
 4091TIP3    H233689   1.671   5.531  14.820 -4.2117  0.9479  0.2129
 4092TIP3   OH233690   0.327   4.066   0.656 -0.1217  0.3798 -0.3000
 4092TIP3    H133691   0.318   4.080   0.561  0.9246 -1.9403 -0.7800
 4092TIP3    H233692   0.419   4.044   0.668 -0.1187  1.2556  1.3575
 4093TIP3   OH233693   4.017   4.256  11.693  0.0049  0.1194  0.3135
 4093TIP3    H133694   3.957   4.324  11.722  0.5060  0.8618 -0.3965
 4093TIP3    H233695   4.042   4.281  11.605  0.8669 -0.5304  0.3646
 4094TIP3   OH233696   6.313   0.041  14.621 -0.1088 -0.2374 -0.6449
 4094TIP3    H133697   6.278   0.062  14.707  2.2553  1.5124 -0.0352
 4094TIP3    H233698   6.388  -0.016  14.640  0.4768  0.2338 -1.5024
 4095TIP3   OH233699   0.123   0.318   5.254  0.4805  0.0253 -0.1466
 4095TIP3    H133700   0.102   0.403   5.216 -3.3346 -1.0968 -0.7434
 4095TIP3    H233701   0.160   0.268   5.181  0.5656  0.4232 -0.3753
 4096TIP3   OH233702   6.675   1.110   3.658 -0.0385  0.6449  0.0536
 4096TIP3    H133703   6.638   1.198   3.664  0.2819  0.9536 -2.1578
 4096TIP3    H233704   6.600   1.052   3.675 -0.8756  1.3170 -1.2433
 4097TIP3   OH233705   3.211   4.284   4.874  0.4538 -0.2800  0.2943
 4097TIP3    H133706   3.298   4.283   4.914  0.6565 -0.0744 -0.1434
 4097TIP3    H233707   3.181   4.374   4.888  2.2769  1.0714 -3.7973
 4098TIP3   OH233708   0.032   0.236  15.235 -0.0051 -0.3882 -0.6859
 4098TIP3    H133709   0.040   0.154  15.186  0.6955  0.0512 -1.3118
 4098TIP3    H233710   0.058   0.213  15.325 -2.0043 -1.3675 -0.3181
 4099TIP3   OH233711   1.630   0.671   4.107  0.4878 -0.3289 -0.2478
 4099TIP3    H133712   1.697   0.699   4.170 -0.9793 -0.1303  1.2752
 4099TIP3    H233713   1.615   0.749   4.053  0.5660  0.0332  0.2449
 4100TIP3   OH233714   1.465   6.051  16.513  0.5735 -0.1616  0.2204
 4100TIP3    H133715   1.484   5.960  16.534  0.5460 -0.5398 -1.3603
 4100TIP3    H233716   1.475   6.097  16.596  1.8219 -1.4046  0.7712
 4101TIP3   OH233717   2.601   4.571  16.152 -0.1905  0.1667 -0.7314
 4101TIP3    H133718   2.676   4.578  16.211 -0.3205 -0.5629 -0.4679
 4101TIP3    H233719   2.609   4.646  16.093  1.1544 -0.2979 -1.1728
 4102TIP3   OH233720   1.581   4.532   0.966 -0.2603 -0.2708  0.8285
 4102TIP3    H133721   1.591   4.454   0.911 -2.6852 -0.0632  0.0265
 4102TIP3    H233722   1.545   4.498   1.048 -1.7686  0.0472  0.3054
 4103TIP3   OH233723   4.240   4.809   1.508 -0.2323 -0.2538  0.4481
 4103TIP3    H133724   4.156   4.853   1.522  0.1865  0.1753  1.6637
 4103TIP3    H233725   4.286   4.866   1.446  0.1186  0.7958  1.6496
 4104TIP3   OH233726   6.431   6.641  17.121 -0.1674  0.2922  0.4497
 4104TIP3    H133727   6.442   6.730  17.154 -1.0131 -0.4700  2.8350
 4104TIP3    H233728   6.519   6.617  17.090  0.3995  1.4146  1.1440
 4105TIP3   OH233729   4.392   1.053  11.914  0.0764  0.7154  0.7426
 4105TIP3    H133730   4.311   1.104  11.901  2.1470  3.9526 -0.0791
 4105TIP3    H233731   4.368   0.964  11.891 -3.4640  1.4635  1.2344
 4106TIP3   OH233732   2.815   2.457  12.098  0.6717 -0.8111 -0.0010
 4106TIP3    H133733   2.759   2.380  12.110  2.1193 -1.8729  0.0727
 4106TIP3    H233734   2.850   2.448  12.010  0.7311 -0.1491 -0.0470
 4107TIP3   OH233735   1.770   0.134  14.939  0.6190 -0.6288 -0.6910
 4107TIP3    H133736   1.676   0.145  14.957  0.7771  0.0521 -0.3036
 4107TIP3    H233737   1.794   0.055  14.987  0.7427  0.4375  1.0287
 4108TIP3   OH233738   1.933   4.595   4.912 -0.5419 -0.1851 -0.0391
 4108TIP3    H133739   1.897   4.672   4.870 -1.7369 -0.1611  1.0081
 4108TIP3    H233740   2.006   4.628   4.965 -0.6071  0.1318 -0.1492
 4109TIP3   OH233741   0.859   0.718  14.458 -0.0049  0.2024  0.6567
 4109TIP3    H133742   0.938   0.702  14.407 -1.4159 -0.9077 -1.2376
 4109TIP3    H233743   0.856   0.813  14.469  1.4718  0.2661  0.5781
 4110TIP3   OH233744   5.475   2.215  15.734 -0.0850  0.1951  0.3902
 4110TIP3    H133745   5.440   2.182  15.817 -2.6133 -0.0742 -0.7366
 4110TIP3    H233746   5.404   2.267  15.698  1.7382  1.9752 -0.6774
 4111TIP3   OH233747   5.604   0.519  14.007 -0.6392  0.0194  0.2653
 4111TIP3    H133748   5.623   0.596  14.060 -1.8254 -0.6591  1.7169
 4111TIP3    H233749   5.674   0.516  13.942 -0.4388  2.1708  0.3435
 4112TIP3   OH233750   1.330   6.410   1.485  0.4939  0.7065  0.2552
 4112TIP3    H133751   1.244   6.374   1.507  0.7914  1.0714  2.1215
 4112TIP3    H233752   1.330   6.498   1.524  0.6768  1.8176 -2.1611
 4113TIP3   OH233753   5.680   0.131   3.182  0.0848  0.9267 -0.5846
 4113TIP3    H133754   5.685   0.214   3.134  3.5732  0.8601 -0.4571
 4113TIP3    H233755   5.746   0.139   3.251 -1.4192 -0.9198  1.1524
 4114TIP3   OH233756   0.689   2.071  11.304  0.5854  0.2569 -0.1756
 4114TIP3    H133757   0.596   2.092  11.305  0.2334 -1.2404 -0.3103
 4114TIP3    H233758   0.693   1.975  11.311  2.1471  0.4004  1.4145
 4115TIP3   OH233759   3.056   0.362  13.734 -0.4326 -0.5061 -0.4229
 4115TIP3    H133760   2.989   0.343  13.668 -0.5520  0.1481 -0.5023
 4115TIP3    H233761   3.071   0.456  13.725 -0.0447 -0.5182  0.1048
 4116TIP3   OH233762   4.815   2.798  10.309  0.5080 -0.4249 -0.5510
 4116TIP3    H133763   4.838   2.739  10.237 -0.8789 -0.2912 -1.1106
 4116TIP3    H233764   4.727   2.771  10.335  0.7119  0.0066  0.6252
 4117TIP3   OH233765   4.645   0.592   0.088  0.7472 -0.1510  0.1091
 4117TIP3    H133766   4.733   0.569   0.057  1.4347  1.3714  0.8733
 4117TIP3    H233767   4.657   0.675   0.134 -1.4926  1.2842 -1.7882
 4118TIP3   OH233768   0.847   1.494   1.302 -0.1694 -0.6232 -0.0100
 4118TIP3    H133769   0.897   1.443   1.239 -0.8836 -0.7973 -0.4339
 4118TIP3    H233770   0.870   1.456   1.387  2.3510  0.9125  0.0551
 4119TIP3   OH233771   3.682   2.324   3.209 -0.1373  0.6344 -0.1882
 4119TIP3    H133772   3.707   2.332   3.117  0.9550 -2.6459 -0.2613
 4119TIP3    H233773   3.761   2.347   3.258 -0.8499  2.8249 -0.0141
 4120TIP3   OH233774   2.410   2.910   2.931 -0.0035 -0.2020  0.1522
 4120TIP3    H133775   2.489   2.952   2.964  0.4182 -0.9769  0.1285
 4120TIP3    H233776   2.342   2.977   2.941  0.3472 -0.0385  1.5554
 4121TIP3   OH233777   0.915   3.288  13.538 -0.0451 -0.6481 -0.2228
 4121TIP3    H133778   0.875   3.368  13.504  0.6731 -0.6018 -0.9753
 4121TIP3    H233779   0.872   3.273  13.622 -0.0333  0.6474  0.0189
 4122TIP3   OH233780   1.862   0.630  14.770 -0.2211 -0.4809  0.5142
 4122TIP3    H133781   1.785   0.616  14.715  0.3181  1.6275 -0.8118
 4122TIP3    H233782   1.845   0.575  14.847 -2.6973 -0.6437 -0.0743
 4123TIP3   OH233783   1.999   3.668  14.480  0.0969  0.2399  0.2502
 4123TIP3    H133784   2.050   3.597  14.518  0.3090  1.3397  2.0956
 4123TIP3    H233785   2.064   3.736  14.461 -0.3655  0.7097  0.3540
 4124TIP3   OH233786   0.281   3.851  14.754 -0.1615  0.3688  0.1659
 4124TIP3    H133787   0.223   3.918  14.789  1.0606  1.5648 -0.0675
 4124TIP3    H233788   0.230   3.810  14.683 -1.3941  0.1463  1.1556
 4125TIP3   OH233789   4.377   4.876  14.738 -0.2783  0.1344  0.4704
 4125TIP3    H133790   4.413   4.808  14.682  2.0839  0.2262  1.8049
 4125TIP3    H233791   4.331   4.935  14.679  1.5199 -0.1745 -1.2652
 4126TIP3   OH233792   3.088   5.040   1.428 -0.4477 -0.1698 -0.2658
 4126TIP3    H133793   3.113   5.079   1.344  1.6378  0.2826  0.5204
 4126TIP3    H233794   3.097   4.945   1.414  3.0659 -0.0062  0.3113
 4127TIP3   OH233795   3.241   1.567   1.929 -0.4298  0.4210 -0.3878
 4127TIP3    H133796   3.262   1.489   1.980  1.1319  1.7264  1.0191
 4127TIP3    H233797   3.157   1.597   1.965 -0.4896  0.0273 -0.1882
 4128TIP3   OH233798   1.605   4.801   0.894  0.7000  0.2865  0.1214
 4128TIP3    H133799   1.693   4.809   0.857  0.5512 -1.5824 -0.6540
 4128TIP3    H233800   1.599   4.710   0.924 -1.3234  0.1071 -0.7561
 4129TIP3   OH233801   2.486   1.896  11.420  0.0111  1.3646  0.2268
 4129TIP3    H133802   2.460   1.895  11.328 -1.3570  0.0767  0.6081
 4129TIP3    H233803   2.441   1.973  11.456 -3.7758 -1.0487  0.9661
 4130TIP3   OH233804   6.511   1.200  15.180 -0.0860  0.2774 -0.1887
 4130TIP3    H133805   6.436   1.243  15.139 -0.1249  0.3638 -0.0285
 4130TIP3    H233806   6.539   1.135  15.117 -2.6490 -2.3728  1.3120
 4131TIP3   OH233807   2.394   6.232   5.300  0.1504  0.2067  0.5041
 4131TIP3    H133808   2.470   6.240   5.358 -0.2595  0.3884  1.0227
 4131TIP3    H233809   2.319   6.258   5.355 -0.5127 -1.7099  0.5630
 4132TIP3   OH233810   2.961   4.596  11.793 -0.0632 -0.1680 -0.3335
 4132TIP3    H133811   2.928   4.507  11.801  2.9712 -1.1940  1.8835
 4132TIP3    H233812   3.006   4.613  11.875  1.7038  2.4295 -1.7352
 4133TIP3   OH233813   5.079   4.593  16.421 -0.1365  0.0537  0.1210
 4133TIP3    H133814   5.167   4.568  16.392  0.6187  0.6438  1.8100
 4133TIP3    H233815   5.083   4.688  16.431 -0.9543  0.0808  0.2384
 4134TIP3   OH233816   0.003   2.815   0.986  0.1507 -0.3262 -0.1510
 4134TIP3    H133817   0.013   2.910   0.978  0.0584 -0.3453 -0.4838
 4134TIP3    H233818  -0.013   2.784   0.897  1.2334 -0.7893 -0.1939
 4135TIP3   OH233819   2.543   1.742  15.066 -0.1917 -0.4237 -0.4205
 4135TIP3    H133820   2.606   1.674  15.043  0.1876 -0.2633  0.1377
 4135TIP3    H233821   2.490   1.753  14.987  0.5353 -0.4935 -0.9212
 4136TIP3   OH233822   0.619   5.541   1.650 -0.6406  0.6678 -0.1721
 4136TIP3    H133823   0.529   5.511   1.667  0.2343 -1.0213  1.7548
 4136TIP3    H233824   0.674   5.470   1.682  1.4120  1.9290 -0.8181
 4137TIP3   OH233825   0.258   4.741   3.540  0.1898 -0.2964  0.4656
 4137TIP3    H133826   0.179   4.730   3.487  0.7152 -0.8124 -0.2237
 4137TIP3    H233827   0.293   4.826   3.515  0.9712 -0.9547 -0.7619
 4138TIP3   OH233828   1.048   4.500  12.713  0.3629 -0.2378 -0.1567
 4138TIP3    H133829   1.104   4.434  12.753  0.0074  0.4848  1.5537
 4138TIP3    H233830   1.098   4.581  12.718  0.3984 -0.1676 -1.3742
 4139TIP3   OH233831   3.260   5.468   5.986 -0.0120  0.5562 -0.2413
 4139TIP3    H133832   3.274   5.490   5.894  0.8217  0.6287 -0.1032
 4139TIP3    H233833   3.330   5.514   6.032  0.4159 -0.6162  0.2848
 4140TIP3   OH233834   0.703   6.518   5.728 -0.4844 -0.5929 -0.0054
 4140TIP3    H133835   0.696   6.465   5.649  1.1579 -0.8680  0.0197
 4140TIP3    H233836   0.784   6.489   5.769  0.8415  2.4400 -0.3745
 4141TIP3   OH233837   6.237   3.810  11.694  0.1449  0.1156  0.7762
 4141TIP3    H133838   6.216   3.889  11.744 -3.9608 -0.3742  0.0473
 4141TIP3    H233839   6.157   3.757  11.700  2.4611 -3.5349  0.4066
 4142TIP3   OH233840   6.356   0.859  12.036  0.1019 -0.3755 -0.1828
 4142TIP3    H133841   6.370   0.949  12.004 -1.0924 -0.3666 -0.7309
 4142TIP3    H233842   6.391   0.804  11.966 -1.2519 -0.3440 -0.9029
 4143TIP3   OH233843   3.297   1.227   4.395  0.4159  0.1651  0.0009
 4143TIP3    H133844   3.363   1.293   4.415 -0.7270  1.2488  0.2269
 4143TIP3    H233845   3.214   1.268   4.417 -0.4407 -0.7162 -1.5140
 4144TIP3   OH233846   3.391   0.290  15.100 -0.8064 -0.3529  0.3723
 4144TIP3    H133847   3.463   0.340  15.138  1.0825 -1.6429 -1.4529
 4144TIP3    H233848   3.388   0.317  15.008 -1.4721 -1.6432 -0.0060
 4145TIP3   OH233849   5.000   1.056   0.721  0.2540  0.4288 -0.0978
 4145TIP3    H133850   4.907   1.070   0.737 -0.2505 -0.8843 -1.7050
 4145TIP3    H233851   5.031   1.009   0.797 -0.3885  0.9076  0.4649
 4146TIP3   OH233852   1.479   2.157   0.084  0.0432  0.3282  0.1366
 4146TIP3    H133853   1.480   2.240   0.036 -0.2121  1.5341  2.1366
 4146TIP3    H233854   1.535   2.098   0.033  1.0835  2.0561 -0.7627
 4147TIP3   OH233855   2.606   1.269  15.261 -0.3535  0.4774  0.2865
 4147TIP3    H133856   2.580   1.279  15.353 -0.5150  0.4677  0.2419
 4147TIP3    H233857   2.702   1.273  15.263 -0.3319 -0.1503  0.5300
 4148TIP3   OH233858   0.830   0.938  12.817  0.2517  0.1928 -0.3943
 4148TIP3    H133859   0.803   0.872  12.752 -1.3293 -1.3603  1.7712
 4148TIP3    H233860   0.756   0.998  12.822  0.5661  0.5778 -0.3660
 4149TIP3   OH233861   5.451   5.932   4.844  0.2171 -0.0030 -0.1845
 4149TIP3    H133862   5.382   5.995   4.864  0.4210  0.7004 -1.6319
 4149TIP3    H233863   5.521   5.951   4.907  0.3635  1.3790 -0.7473
 4150TIP3   OH233864   2.062   3.575  14.870 -0.4684 -0.8480 -0.6366
 4150TIP3    H133865   1.992   3.510  14.871 -0.7354 -0.5438  1.1325
 4150TIP3    H233866   2.114   3.556  14.947  0.2307  0.2034 -0.8386
 4151TIP3   OH233867   3.568   3.635   2.922  0.2692 -0.1540 -0.2890
 4151TIP3    H133868   3.600   3.545   2.916 -0.1175 -0.5179  2.2080
 4151TIP3    H233869   3.488   3.628   2.975 -0.7626  1.4492 -1.5910
 4152TIP3   OH233870   6.527   3.269  14.142  0.2782  0.2731  0.2592
 4152TIP3    H133871   6.471   3.250  14.218  0.0249  1.0455  0.2699
 4152TIP3    H233872   6.475   3.330  14.089  0.8611  0.5054 -0.0425
 4153TIP3   OH233873   2.851   3.979   5.520 -0.3671  0.2864  0.0301
 4153TIP3    H133874   2.932   3.998   5.473 -0.1859 -1.4549 -0.4044
 4153TIP3    H233875   2.868   4.007   5.610  1.5126 -1.9649  0.4365
 4154TIP3   OH233876   2.429   1.745   4.118  0.0401 -0.1777  0.7848
 4154TIP3    H133877   2.347   1.752   4.167  1.7230  0.2490  3.6230
 4154TIP3    H233878   2.404   1.763   4.027 -3.0741 -0.5403  1.5139
 4155TIP3   OH233879   1.620   4.212   1.251  0.1500  0.4330  0.5230
 4155TIP3    H133880   1.604   4.306   1.241 -1.1665  0.0707 -0.8979
 4155TIP3    H233881   1.605   4.195   1.344 -1.4862  1.2841  0.4291
 4156TIP3   OH233882   4.598   3.270  13.306 -0.4255 -0.3909  0.7921
 4156TIP3    H133883   4.594   3.264  13.402 -0.3822 -1.0788  0.7531
 4156TIP3    H233884   4.623   3.182  13.278  1.7647  0.3893  0.2688
 4157TIP3   OH233885   5.009   0.356  15.277  0.2754  0.1156  0.1409
 4157TIP3    H133886   5.016   0.271  15.321 -3.5057 -0.6246 -0.5304
 4157TIP3    H233887   5.033   0.338  15.186  4.4634  0.8954  0.9902
 4158TIP3   OH233888   6.106   5.989   1.506 -0.2022 -0.8886 -0.0575
 4158TIP3    H133889   6.043   6.016   1.439 -0.1196  0.2458  0.2976
 4158TIP3    H233890   6.054   5.977   1.586  0.2249  1.7227  0.6652
 4159TIP3   OH233891   2.562   5.728   1.119  0.0989  0.2742 -0.6729
 4159TIP3    H133892   2.563   5.632   1.114 -0.0128  0.1729  1.0839
 4159TIP3    H233893   2.545   5.748   1.211 -1.2599  1.9960 -1.2606
 4160TIP3   OH233894   2.083   4.462   3.154 -0.0002 -0.4933 -0.5730
 4160TIP3    H133895   2.006   4.410   3.177 -0.5244  0.4453 -0.1742
 4160TIP3    H233896   2.052   4.523   3.087  0.4866 -0.3398 -0.6642
 4161TIP3   OH233897   2.388   1.358  12.754  0.2511  0.0409  0.5383
 4161TIP3    H133898   2.371   1.308  12.834 -0.4230 -0.3087  0.1810
 4161TIP3    H233899   2.308   1.408  12.739  0.3632  0.0787  0.0560
 4162TIP3   OH233900   0.035   1.539   3.567 -0.2948  0.2810  0.5970
 4162TIP3    H133901   0.059   1.623   3.606  0.3643  0.8173 -0.9453
 4162TIP3    H233902   0.115   1.488   3.569 -0.3693  0.1536  0.3541
 4163TIP3   OH233903   5.375   2.567   2.517  0.0096  0.0710  0.3297
 4163TIP3    H133904   5.289   2.545   2.481 -0.1679  0.3760  0.5752
 4163TIP3    H233905   5.422   2.608   2.444 -0.9316  2.2355  0.9188
 4164TIP3   OH233906   1.050   2.284   6.135  0.0563  0.3516  0.2545
 4164TIP3    H133907   1.096   2.201   6.143 -0.5032  0.2317  2.5292
 4164TIP3    H233908   1.119   2.350   6.140  0.2721  0.0923  0.6739
 4165TIP3   OH233909   3.814   1.393  13.813 -0.2471 -0.1816  0.9947
 4165TIP3    H133910   3.894   1.433  13.848 -0.4068 -0.2382  1.4194
 4165TIP3    H233911   3.820   1.408  13.718 -0.9141  2.0178  1.2521
 4166TIP3   OH233912   4.543   0.331  12.013  0.0570  0.5568  0.0204
 4166TIP3    H133913   4.460   0.284  12.008 -1.5153  3.2445 -0.2512
 4166TIP3    H233914   4.571   0.340  11.922  1.2532 -1.3403  0.1844
 4167TIP3   OH233915   3.459   3.808  16.137  0.4853  0.4298  0.1856
 4167TIP3    H133916   3.519   3.743  16.100  0.6536  0.3550  0.5864
 4167TIP3    H233917   3.373   3.784  16.103  0.5081 -0.1621  0.5391
 4168TIP3   OH233918   5.416   2.546  14.553  0.2269 -0.3758 -0.0593
 4168TIP3    H133919   5.369   2.559  14.471 -1.5731  1.2074  1.1725
 4168TIP3    H233920   5.447   2.633  14.577  0.1689 -0.6969  1.2402
 4169TIP3   OH233921   2.409   0.902   6.187 -0.4684 -0.5716  0.8273
 4169TIP3    H133922   2.365   0.826   6.148 -0.4053 -1.3199  2.1483
 4169TIP3    H233923   2.341   0.943   6.241 -1.1421  1.6330 -1.5691
 4170TIP3   OH233924   0.387   4.686   2.105  0.2878 -0.2275  0.5921
 4170TIP3    H133925   0.391   4.657   2.196  1.2231  0.4721  0.7764
 4170TIP3    H233926   0.414   4.777   2.107 -0.2295 -0.0477 -0.3183
 4171TIP3   OH233927   3.600   5.977   1.761 -0.0532 -0.3626 -0.1381
 4171TIP3    H133928   3.663   5.923   1.713  1.8661  2.8112 -1.3885
 4171TIP3    H233929   3.526   5.985   1.701  1.0088  0.9753 -1.3174
 4172TIP3   OH233930   3.209   0.673  12.176 -0.8184  0.3395 -0.4596
 4172TIP3    H133931   3.183   0.663  12.084  1.3445 -1.1375 -0.9679
 4172TIP3    H233932   3.293   0.628  12.181 -0.8477  0.5319  2.2318
 4173TIP3   OH233933   4.801   2.930  14.439  0.3340 -0.1312  0.0855
 4173TIP3    H133934   4.804   2.972  14.353  0.0903 -0.3347 -0.0211
 4173TIP3    H233935   4.723   2.875  14.436 -0.6080  1.1302  1.0111
 4174TIP3   OH233936   2.514   5.623  13.009  0.5306  0.0961  0.3284
 4174TIP3    H133937   2.497   5.622  13.103 -1.8255  0.6156 -0.0515
 4174TIP3    H233938   2.462   5.550  12.974  0.7786  0.3789 -0.6572
 4175TIP3   OH233939   2.075   2.168   6.008 -0.2986 -0.2136  0.5821
 4175TIP3    H133940   2.011   2.133   6.070 -0.8951 -0.1539  0.0072
 4175TIP3    H233941   2.151   2.191   6.062 -2.0517  3.0581  1.8431
 4176TIP3   OH233942   1.287   2.786  11.157  0.1883  0.4655  0.3834
 4176TIP3    H133943   1.291   2.697  11.122 -1.2581  0.3246  0.5581
 4176TIP3    H233944   1.194   2.803  11.171  0.5476  1.4598  1.7626
 4177TIP3   OH233945   1.560   0.535  13.986 -0.2149 -0.3132 -0.2521
 4177TIP3    H133946   1.565   0.611  14.043 -2.8899 -0.2088 -0.0745
 4177TIP3    H233947   1.572   0.570  13.898  1.1847 -0.0914  0.0127
 4178TIP3   OH233948   6.428   4.975   2.437 -0.8263 -0.4361  0.3525
 4178TIP3    H133949   6.435   5.068   2.417  1.1817 -0.2419  1.7348
 4178TIP3    H233950   6.430   4.932   2.352  0.3727  0.6971 -0.2077
 4179TIP3   OH233951   2.433   5.186   1.759 -0.1307 -0.2397  0.0996
 4179TIP3    H133952   2.438   5.093   1.781 -1.3185 -0.7170 -1.5562
 4179TIP3    H233953   2.366   5.221   1.818 -0.2558 -0.6033  0.1773
 4180TIP3   OH233954   2.986   1.698   3.594 -0.1162  0.3656  0.3572
 4180TIP3    H133955   2.913   1.650   3.555  0.9967 -1.6441  0.6540
 4180TIP3    H233956   2.985   1.672   3.686 -0.3328  2.0079  0.8241
 4181TIP3   OH233957   0.822   4.496  16.933  0.2612  0.1295  0.0226
 4181TIP3    H133958   0.860   4.536  17.011  0.3690 -1.4218  0.7780
 4181TIP3    H233959   0.728   4.493  16.951  0.4642 -1.8927  0.9022
 4182TIP3   OH233960   3.439   3.395  14.323  0.2108 -0.4340  0.1960
 4182TIP3    H133961   3.524   3.351  14.336 -1.0989 -2.9300  0.5480
 4182TIP3    H233962   3.388   3.373  14.400 -1.0326  0.4770 -0.3418
 4183TIP3   OH233963   0.481   2.566  15.829  0.1420  0.4370  0.7113
 4183TIP3    H133964   0.420   2.639  15.842 -1.6172 -0.7268 -0.6993
 4183TIP3    H233965   0.441   2.493  15.875  0.6131 -0.2631  0.0256
 4184TIP3   OH233966   5.251   2.760   4.916 -0.2243  0.3488 -0.3270
 4184TIP3    H133967   5.172   2.792   4.960 -0.2674  0.9545 -0.8410
 4184TIP3    H233968   5.314   2.832   4.923  0.5397 -0.4021  0.7220
 4185TIP3   OH233969   2.112   5.236  16.906  0.4314 -0.3303 -0.2642
 4185TIP3    H133970   2.033   5.225  16.959  0.1935 -0.1509 -0.5825
 4185TIP3    H233971   2.087   5.297  16.837  1.0247  0.2240  0.0019
 4186TIP3   OH233972   4.130   4.615  12.252  0.3297  0.4406  0.4118
 4186TIP3    H133973   4.127   4.702  12.211 -0.2280  0.6640  0.9132
 4186TIP3    H233974   4.216   4.611  12.294 -0.4956  1.6669  2.3319
 4187TIP3   OH233975   4.016   1.271  14.575 -0.5903  0.3295 -0.2763
 4187TIP3    H133976   4.022   1.326  14.497 -1.3437  1.7449  0.6497
 4187TIP3    H233977   3.939   1.216  14.560 -1.0471  0.9788 -0.2845
 4188TIP3   OH233978   6.593   5.558   5.856  0.1457  0.1834  0.0313
 4188TIP3    H133979   6.523   5.622   5.838 -0.4890 -1.2165 -2.7399
 4188TIP3    H233980   6.647   5.559   5.777  1.7150 -0.7328  1.0674
 4189TIP3   OH233981   5.318   5.364  12.752  0.8556  0.4630 -0.0511
 4189TIP3    H133982   5.299   5.312  12.674 -1.7550  1.2518 -0.0062
 4189TIP3    H233983   5.308   5.303  12.824  0.4951  0.3795 -0.1699
 4190TIP3   OH233984   1.111   2.151  12.260  0.3799 -0.6901 -0.0556
 4190TIP3    H133985   1.148   2.064  12.247 -3.2043 -2.3615  0.1952
 4190TIP3    H233986   1.146   2.181  12.343  0.7059 -2.4540  0.4502
 4191TIP3   OH233987   1.829   0.204  11.600 -0.3584  0.3004  0.5681
 4191TIP3    H133988   1.778   0.169  11.673 -1.5560  0.4235 -0.1770
 4191TIP3    H233989   1.777   0.181  11.522 -0.1745  1.9649 -0.0814
 4192TIP3   OH233990   1.987   4.098   2.650 -0.3825 -0.4961  0.6240
 4192TIP3    H133991   1.994   4.037   2.576 -1.3176 -1.3297  1.2203
 4192TIP3    H233992   2.043   4.060   2.718  1.1354  0.6955  0.0893
 4193TIP3   OH233993   2.422   5.665  15.432 -0.2018 -0.0550 -0.4762
 4193TIP3    H133994   2.348   5.614  15.467 -0.5462  0.0111 -1.1025
 4193TIP3    H233995   2.491   5.600  15.417 -0.2719 -0.1777 -0.2739
 4194TIP3   OH233996   3.046   5.750  13.570  0.6660 -0.3758  0.0548
 4194TIP3    H133997   3.105   5.790  13.634 -2.7176  1.3353  2.2850
 4194TIP3    H233998   3.010   5.674  13.616  0.5610 -0.9604 -0.9898
 4195TIP3   OH233999   2.453   0.629   3.624 -0.7712 -0.0410 -0.5296
 4195TIP3    H134000   2.462   0.583   3.707  2.0176 -2.2409 -1.9543
 4195TIP3    H234001   2.534   0.680   3.616 -0.6377 -0.4723 -2.2195
 4196TIP3   OH234002   5.862   4.956   2.585  0.2310 -0.0967  0.2468
 4196TIP3    H134003   5.788   4.983   2.638 -1.2907 -0.9480 -1.3858
 4196TIP3    H234004   5.914   4.899   2.642  0.2415  1.4052  1.7527
 4197TIP3   OH234005   4.836   1.137  15.965  0.0236  0.7793  0.0291
 4197TIP3    H134006   4.892   1.176  15.897  0.4484 -1.3454 -0.8530
 4197TIP3    H234007   4.798   1.060  15.924 -2.1575  1.1857  1.2318
 4198TIP3   OH234008   5.315   5.304   2.493 -0.3123  0.0201  0.7723
 4198TIP3    H134009   5.336   5.347   2.576  1.1585 -0.6493  0.7591
 4198TIP3    H234010   5.325   5.373   2.427 -0.5172  0.3023  1.0348
 4199TIP3   OH234011   5.918   0.115  14.103 -0.1703 -0.4412 -0.2218
 4199TIP3    H134012   5.878   0.139  14.019  0.2564  1.5120  0.1185
 4199TIP3    H234013   6.012   0.109  14.084 -0.3238 -2.7043 -0.4772
 4200TIP3   OH234014   6.492   1.765  16.138 -0.5352  0.1046 -0.2193
 4200TIP3    H134015   6.541   1.834  16.181  1.2081 -1.1147 -0.2039
 4200TIP3    H234016   6.465   1.707  16.208 -2.2626  0.9063 -0.1977
 4201TIP3   OH234017   5.241   3.985  14.115 -0.3856 -0.6291 -0.3806
 4201TIP3    H134018   5.263   4.075  14.137  0.2943 -0.9619  0.2960
 4201TIP3    H234019   5.321   3.935  14.131 -0.7856 -1.3699 -0.6512
 4202TIP3   OH234020   2.791   3.364   3.945  0.4249 -0.5708  0.1335
 4202TIP3    H134021   2.841   3.326   4.018  0.5855 -0.2969  0.1667
 4202TIP3    H234022   2.847   3.433   3.910  0.0075 -0.1535  0.2722
 4203TIP3   OH234023   3.957   4.088  12.157 -0.1028 -0.5106  0.7104
 4203TIP3    H134024   3.998   4.065  12.073 -0.4662 -0.7273  0.5892
 4203TIP3    H234025   4.016   4.152  12.195 -0.1408 -0.1057  0.1023
 4204TIP3   OH234026   1.721   5.012   6.248  0.5226  0.0715  0.3979
 4204TIP3    H134027   1.643   5.002   6.302 -0.8239  1.6482 -1.2204
 4204TIP3    H234028   1.783   5.058   6.305  0.1982 -0.9417  1.5947
 4205TIP3   OH234029   2.714   3.939  14.225 -0.1639 -0.1647  0.2276
 4205TIP3    H134030   2.699   3.959  14.133 -0.1259 -0.7584  0.0921
 4205TIP3    H234031   2.786   3.996  14.250  0.2519 -0.4716 -0.2778
 4206TIP3   OH234032   4.167   0.666   0.708  0.8106  0.2503  0.0847
 4206TIP3    H134033   4.248   0.717   0.705  0.7251  0.3978  0.3013
 4206TIP3    H234034   4.196   0.575   0.717  0.9175  0.4734  2.1011
 4207TIP3   OH234035   3.140   3.953   5.039 -0.1524  0.0848 -0.0205
 4207TIP3    H134036   3.198   3.956   5.115 -1.2641 -0.4556  0.8690
 4207TIP3    H234037   3.150   4.039   4.997  0.7106  0.2673  0.5452
 4208TIP3   OH234038   0.053   3.562  11.796 -0.4456  1.0075 -0.2450
 4208TIP3    H134039   0.094   3.485  11.835 -0.2517  1.6362  0.8250
 4208TIP3    H234040   0.016   3.531  11.713  2.9675  0.6111 -1.7010
 4209TIP3   OH234041   5.906   3.694  16.562 -0.0860 -0.2434  0.5271
 4209TIP3    H134042   5.953   3.721  16.484 -2.0026  0.5372 -0.3999
 4209TIP3    H234043   5.864   3.612  16.538 -0.3543 -0.2106  0.8659
 4210TIP3   OH234044   5.940   6.683   1.354  0.6942  0.3985  0.0038
 4210TIP3    H134045   6.009   6.643   1.301  1.5067  2.8370 -0.8468
 4210TIP3    H234046   5.883   6.726   1.291  0.6556  1.7956  0.9784
 4211TIP3   OH234047   0.800   0.459   1.114  0.2277 -0.1588 -0.3325
 4211TIP3    H134048   0.798   0.507   1.198  2.0493 -0.6661  0.0200
 4211TIP3    H234049   0.854   0.382   1.132 -0.4746 -0.9640 -1.6348
 4212TIP3   OH234050   2.595   5.294   2.573 -0.0998  0.1177  0.3023
 4212TIP3    H134051   2.678   5.273   2.531 -0.8170  0.4581 -1.3126
 4212TIP3    H234052   2.595   5.389   2.584  0.8787 -0.1343  2.8106
 4213TIP3   OH234053   5.947   2.173  15.501 -0.3854  0.2467  0.0564
 4213TIP3    H134054   6.017   2.125  15.545 -1.2676 -1.4250 -0.3209
 4213TIP3    H234055   5.887   2.197  15.572  0.0309  0.7658  0.2370
 4214TIP3   OH234056   0.113   1.332  14.329 -0.2284 -0.2461  0.6748
 4214TIP3    H134057   0.101   1.279  14.250 -0.7000 -0.7643  1.0924
 4214TIP3    H234058   0.088   1.421  14.302 -2.6500 -0.8400  0.8602
 4215TIP3   OH234059   3.959   1.911  12.239  0.6424  0.1868 -0.3745
 4215TIP3    H134060   3.869   1.932  12.261  0.7065  0.0197  0.0491
 4215TIP3    H234061   4.012   1.978  12.281  0.8017 -0.4439  0.4408
 4216TIP3   OH234062   4.628   0.300   4.273 -0.2617  0.2189  0.4480
 4216TIP3    H134063   4.688   0.231   4.243  1.3139  1.8400 -0.1646
 4216TIP3    H234064   4.649   0.313   4.365  0.1521  0.6010  0.3004
 4217TIP3   OH234065   1.014   1.493  11.645 -0.0003 -0.4104  0.3346
 4217TIP3    H134066   1.069   1.479  11.568  0.0782 -0.8216  0.4651
 4217TIP3    H234067   0.925   1.475  11.614  0.0070 -0.3444  0.2772
 4218TIP3   OH234068   6.565   1.967   4.685 -0.0412  0.3592  0.7823
 4218TIP3    H134069   6.629   1.898   4.695  0.0665  0.6929  2.4230
 4218TIP3    H234070   6.508   1.960   4.762 -2.6533 -0.6200 -1.1392
 4219TIP3   OH234071   1.186   1.620   0.978 -0.0678 -0.1031 -0.2245
 4219TIP3    H134072   1.196   1.644   1.070  1.5299  2.8755 -1.1033
 4219TIP3    H234073   1.093   1.636   0.959 -0.1682  0.2736  0.5912
 4220TIP3   OH234074   3.882   1.895  13.903  0.3435  0.1847  0.5021
 4220TIP3    H134075   3.799   1.921  13.863  0.8797  0.6420 -0.3389
 4220TIP3    H234076   3.878   1.800  13.907 -1.0334  0.2815  2.2718
 4221TIP3   OH234077   2.384   3.553   1.742 -0.3625  0.5926 -0.6388
 4221TIP3    H134078   2.299   3.561   1.699  0.5004 -0.8932 -2.7126
 4221TIP3    H234079   2.430   3.634   1.721 -0.4399  0.4405 -1.3898
 4222TIP3   OH234080   1.504   1.602   0.518 -0.1700  0.1878  0.2082
 4222TIP3    H134081   1.453   1.626   0.595 -1.5180 -0.9319 -0.3109
 4222TIP3    H234082   1.561   1.531   0.547 -1.9360 -1.4466 -0.2363
 4223TIP3   OH234083   1.663   6.233  16.176 -0.0709 -0.4439 -0.5961
 4223TIP3    H134084   1.742   6.191  16.142 -0.2964 -0.7009 -0.7948
 4223TIP3    H234085   1.598   6.222  16.107 -0.1799  0.0816 -0.5816
 4224TIP3   OH234086   6.503   4.734   0.979 -0.1824 -0.4375 -0.3225
 4224TIP3    H134087   6.437   4.803   0.988 -0.2695 -0.4674 -0.6823
 4224TIP3    H234088   6.452   4.653   0.971 -0.0798 -0.5487  0.1680
 4225TIP3   OH234089   3.365   3.661   3.108 -0.1995 -0.2837 -0.1621
 4225TIP3    H134090   3.398   3.750   3.104  0.1276 -0.3628  0.6319
 4225TIP3    H234091   3.355   3.644   3.202 -0.9302 -0.8324 -0.3344
 4226TIP3   OH234092   1.314   3.386  16.239 -0.0801  0.0388 -0.0338
 4226TIP3    H134093   1.322   3.481  16.227 -0.8134 -0.1900 -2.6496
 4226TIP3    H234094   1.404   3.355  16.250  0.1247  1.0826  1.4072
 4227TIP3   OH234095   1.201   6.607  11.832 -0.2857 -0.0351  0.2078
 4227TIP3    H134096   1.142   6.593  11.758  0.2102  1.1839 -0.4195
 4227TIP3    H234097   1.155   6.569  11.906 -1.3601 -0.1118 -0.4865
 4228TIP3   OH234098   0.193   6.598   0.980  0.4495  0.3618  0.0878
 4228TIP3    H134099   0.155   6.551   1.053 -2.9806  2.2574 -0.3616
 4228TIP3    H234100   0.138   6.575   0.905  1.2993  1.7905 -1.0124
 4229TIP3   OH234101   0.974   4.789  13.887 -0.0446 -0.0819  0.0621
 4229TIP3    H134102   0.946   4.699  13.907  2.7654 -1.2084 -0.7655
 4229TIP3    H234103   0.946   4.803  13.797  1.2646 -0.9154 -0.4972
 4230TIP3   OH234104   4.502   2.135  11.738 -0.3301  0.6270  0.0386
 4230TIP3    H134105   4.478   2.045  11.757  0.5762  0.3831  0.0433
 4230TIP3    H234106   4.589   2.129  11.698  0.1295  1.5652  0.8878
 4231TIP3   OH234107   3.561   2.584   4.636 -0.0627  0.1387 -0.3401
 4231TIP3    H134108   3.530   2.565   4.724 -0.3561 -0.1389 -0.5032
 4231TIP3    H234109   3.654   2.603   4.646  0.2349 -1.3655 -0.1755
 4232TIP3   OH234110   6.217   6.127  15.622 -0.6197 -0.6564  0.1108
 4232TIP3    H134111   6.133   6.082  15.625 -0.9010 -0.1253  0.1086
 4232TIP3    H234112   6.197   6.216  15.595 -0.1021 -0.4221  0.4837
 4233TIP3   OH234113   5.386   1.247   4.329 -0.1867  0.0133  0.3211
 4233TIP3    H134114   5.324   1.184   4.365 -1.0778  1.4041  1.2582
 4233TIP3    H234115   5.460   1.194   4.300 -1.1272 -1.5033  0.6532
 4234TIP3   OH234116   2.167   1.797  11.545 -0.6065  0.2564 -0.0154
 4234TIP3    H134117   2.226   1.847  11.600  1.8791 -1.1133 -1.3730
 4234TIP3    H234118   2.148   1.718  11.596  0.4591 -0.3009 -0.4860
 4235TIP3   OH234119   3.406   6.636  15.452  0.1233  0.5047  0.3539
 4235TIP3    H134120   3.387   6.721  15.412  2.5026  1.2787  0.7897
 4235TIP3    H234121   3.436   6.581  15.379  0.9513  0.7982  0.4705
 4236TIP3   OH234122   1.577   4.726  15.635  0.4139 -0.1435 -0.2645
 4236TIP3    H134123   1.599   4.819  15.630 -0.9644  0.1728 -0.6495
 4236TIP3    H234124   1.565   4.700  15.544 -1.4959 -0.1234 -0.0376
 4237TIP3   OH234125   2.251   6.431  15.979  0.6596  0.7822  0.0324
 4237TIP3    H134126   2.338   6.418  16.016  1.5199 -3.2585 -2.9717
 4237TIP3    H234127   2.267   6.453  15.887 -1.4476 -1.5317 -0.9559
 4238TIP3   OH234128   3.674   1.177  15.162  0.8205  0.0650 -0.2442
 4238TIP3    H134129   3.741   1.141  15.103  0.5274 -0.3021 -0.3602
 4238TIP3    H234130   3.695   1.270  15.170  0.6958  0.1720 -1.1545
 4239TIP3   OH234131   6.083   0.116  16.444 -1.0497  0.3090  0.0922
 4239TIP3    H134132   6.093   0.164  16.526  1.4728 -0.7313  0.4277
 4239TIP3    H234133   6.014   0.164  16.397 -2.2012  1.1881  2.5886
 4240TIP3   OH234134   5.144   1.918   5.352  0.0262 -0.9161 -0.1727
 4240TIP3    H134135   5.237   1.909   5.330  0.1077 -1.5324  0.3989
 4240TIP3    H234136   5.143   1.948   5.443 -0.3321 -0.6835 -0.2512
 4241TIP3   OH234137   2.853   1.956   2.876 -0.1852 -0.6037 -0.3338
 4241TIP3    H134138   2.939   1.914   2.864  0.6953  1.2187 -0.6078
 4241TIP3    H234139   2.854   1.987   2.966 -0.9423 -1.4274 -0.0457
 4242TIP3   OH234140   3.102   0.010   2.488 -0.1998  0.1738 -0.4161
 4242TIP3    H134141   3.066  -0.010   2.574 -0.1799  0.3370 -0.3703
 4242TIP3    H234142   3.031   0.057   2.443 -0.4875 -0.5702 -0.7546
 4243TIP3   OH234143   3.800   3.163   2.667 -0.0460 -0.5002  0.4216
 4243TIP3    H134144   3.764   3.217   2.597 -0.9960 -1.9245 -0.2200
 4243TIP3    H234145   3.723   3.128   2.712  0.5592 -0.0152  1.8522
 4244TIP3   OH234146   5.247   5.512   3.503  0.5523  0.5424  0.4834
 4244TIP3    H134147   5.216   5.562   3.578 -0.7727  1.0377 -0.3856
 4244TIP3    H234148   5.229   5.568   3.428  2.3732  0.2899 -0.1688
 4245TIP3   OH234149   1.737   4.051  13.870  0.0518 -0.0746  0.5056
 4245TIP3    H134150   1.769   4.104  13.797 -1.8043 -0.1359 -0.3747
 4245TIP3    H234151   1.718   3.966  13.831 -2.4477  0.3597  0.7090
 4246TIP3   OH234152   4.071   3.158  12.938  0.1563  0.0921 -0.3554
 4246TIP3    H134153   4.107   3.241  12.907  0.9829 -0.1003  0.0843
 4246TIP3    H234154   4.090   3.096  12.867  1.8079 -0.2883  0.4063
 4247TIP3   OH234155   3.396   2.782  14.949 -0.1114 -0.1298 -0.0347
 4247TIP3    H134156   3.327   2.831  14.904 -0.4803  0.1525  0.8256
 4247TIP3    H234157   3.417   2.835  15.026 -0.9129 -1.6000  1.2149
 4248TIP3   OH234158   2.340   1.523   5.847  0.3244  0.3347  0.0112
 4248TIP3    H134159   2.403   1.591   5.872 -0.2155  0.0286  2.3420
 4248TIP3    H234160   2.286   1.564   5.780  1.8359  1.2191 -0.7021
 4249TIP3   OH234161   4.436   0.601   0.629  0.3172  0.0011  0.3702
 4249TIP3    H134162   4.483   0.627   0.549  0.3661  1.1711  0.7740
 4249TIP3    H234163   4.504   0.566   0.686  0.3872 -0.1993  0.1653
 4250TIP3   OH234164   1.804   4.619   1.159  0.2594 -0.4982  0.1527
 4250TIP3    H134165   1.807   4.527   1.184  1.1351 -0.6636 -0.4943
 4250TIP3    H234166   1.712   4.637   1.144  0.1456 -1.4780 -0.4184
 4251TIP3   OH234167   0.903   4.403   4.038 -0.6144 -0.0876 -0.1175
 4251TIP3    H134168   0.888   4.429   3.947 -0.7714 -0.4299 -0.1898
 4251TIP3    H234169   0.842   4.331   4.053 -0.2401 -0.3604  0.1068
 4252TIP3   OH234170   3.551   5.670   3.599 -0.3953 -0.6623 -0.3004
 4252TIP3    H134171   3.578   5.601   3.661  0.8615 -0.1110 -0.2057
 4252TIP3    H234172   3.611   5.742   3.617 -2.9458  1.2247  0.9536
 4253TIP3   OH234173   6.171   6.683   0.412 -0.2155 -0.1371  0.4383
 4253TIP3    H134174   6.217   6.655   0.491 -0.4485 -0.6632  0.3951
 4253TIP3    H234175   6.081   6.699   0.441 -0.6008 -1.5073  0.0625
 4254TIP3   OH234176   4.192   2.533   4.441 -0.4621 -0.5256  0.7620
 4254TIP3    H134177   4.253   2.562   4.373  1.0622 -2.1798  1.4079
 4254TIP3    H234178   4.108   2.572   4.415  1.0009  2.4612  0.3283
 4255TIP3   OH234179   0.675   5.941   2.491 -0.4752  0.3117  0.4480
 4255TIP3    H134180   0.752   5.911   2.442  0.8079  0.5693  2.2820
 4255TIP3    H234181   0.668   5.880   2.564 -2.0295  0.3051  0.3176
 4256TIP3   OH234182   6.429   5.902   2.705  0.0290  0.1567  0.0948
 4256TIP3    H134183   6.502   5.844   2.728  0.3789  0.7614  0.5172
 4256TIP3    H234184   6.470   5.988   2.694 -0.2719  0.0979 -1.7782
 4257TIP3   OH234185   2.367   3.651   0.189 -0.1204  0.4243 -0.4036
 4257TIP3    H134186   2.445   3.598   0.171 -1.0887 -0.3726 -2.4361
 4257TIP3    H234187   2.294   3.591   0.174 -1.1425  0.8851  2.4152
 4258TIP3   OH234188   0.104   4.987   6.420 -0.3090 -0.4851 -0.2085
 4258TIP3    H134189   0.034   4.934   6.382  0.2655 -1.2675 -0.1974
 4258TIP3    H234190   0.179   4.928   6.422  0.6129  0.6486 -1.0946
 4259TIP3   OH234191   2.797   2.618  12.358 -0.1450  0.2060  0.4468
 4259TIP3    H134192   2.728   2.681  12.336 -1.3712 -0.6949  1.6048
 4259TIP3    H234193   2.815   2.572  12.276 -0.0209  1.3105 -0.1498
 4260TIP3   OH234194   2.991   2.369  16.226 -0.2148 -0.0240 -0.1199
 4260TIP3    H134195   2.958   2.329  16.307  1.2048  0.6681  0.8262
 4260TIP3    H234196   2.969   2.462  16.235 -0.5740 -0.0391 -0.8082
 4261TIP3   OH234197   0.631   3.753   3.109 -0.4335 -0.8549 -0.6504
 4261TIP3    H134198   0.548   3.741   3.062 -0.4503 -1.8422 -0.3658
 4261TIP3    H234199   0.657   3.665   3.136 -1.2230 -0.1337  2.6123
 4262TIP3   OH234200   3.006   5.442   2.012 -0.4441  0.1594 -0.5126
 4262TIP3    H134201   3.024   5.531   2.042 -1.0192  0.3009 -0.5812
 4262TIP3    H234202   3.035   5.386   2.084 -2.7829  0.5323  0.8084
 4263TIP3   OH234203   4.896   4.176   3.531  0.4673  0.1731  0.3152
 4263TIP3    H134204   4.897   4.251   3.590 -3.2244  0.9092 -0.4314
 4263TIP3    H234205   4.927   4.210   3.448  3.1069 -0.2435  1.0824
 4264TIP3   OH234206   1.494   4.170  16.242  0.4743  0.8978  0.0580
 4264TIP3    H134207   1.468   4.169  16.334 -1.4870 -1.2777 -0.4670
 4264TIP3    H234208   1.570   4.111  16.239 -0.8921 -0.9084 -0.0602
 4265TIP3   OH234209   3.665   6.593   2.016 -0.2751  0.5307 -0.2859
 4265TIP3    H134210   3.573   6.591   2.043  0.0196  0.4536  0.7309
 4265TIP3    H234211   3.699   6.675   2.053  0.2692  0.1655  0.0245
 4266TIP3   OH234212   2.431   0.130  15.149 -0.6279  0.3267 -0.4714
 4266TIP3    H134213   2.446   0.046  15.106  0.8113  0.3462 -0.0518
 4266TIP3    H234214   2.518   0.159  15.176 -1.2850  1.2017  0.7909
 4267TIP3   OH234215   0.840   1.320  12.687 -0.3419 -0.5111 -0.3393
 4267TIP3    H134216   0.897   1.389  12.652  0.3575  0.1622  2.0380
 4267TIP3    H234217   0.841   1.252  12.620  1.1548  0.6176 -1.5084
 4268TIP3   OH234218   4.364   1.081   1.230  0.0602  0.1843  0.2201
 4268TIP3    H134219   4.396   0.997   1.262 -0.4492 -0.1148 -0.0748
 4268TIP3    H234220   4.410   1.095   1.147 -0.8579 -0.4252 -0.3960
 4269TIP3   OH234221   1.775   1.550  12.499  0.0091  0.0304  0.4068
 4269TIP3    H134222   1.721   1.524  12.424 -0.5465  0.0968  0.7903
 4269TIP3    H234223   1.748   1.639  12.519  0.8320  0.3563  0.0849
 4270TIP3   OH234224   6.715   4.902  12.985 -0.0882  0.1399 -0.1040
 4270TIP3    H134225   6.755   4.958  13.052  0.3021  2.0808 -1.9091
 4270TIP3    H234226   6.644   4.956  12.949 -2.6516 -2.2435  1.1921
 4271TIP3   OH234227   2.218   3.205  11.289 -0.0703  0.0863 -0.6639
 4271TIP3    H134228   2.156   3.160  11.231 -0.6683  1.3883 -1.0337
 4271TIP3    H234229   2.289   3.233  11.232 -0.4095  0.9119 -0.6794
 4272TIP3   OH234230   1.336   6.012  14.812  0.0042 -0.0567 -0.1277
 4272TIP3    H134231   1.402   6.073  14.779  0.1992 -0.3336 -0.2591
 4272TIP3    H234232   1.253   6.044  14.776  0.2516 -0.5271 -1.1509
 4273TIP3   OH234233   5.342   6.646  12.790 -0.2687 -0.1981 -0.0283
 4273TIP3    H134234   5.387   6.564  12.812 -0.4104  0.1064  1.4339
 4273TIP3    H234235   5.270   6.620  12.732  0.9333 -0.8548 -1.2545
 4274TIP3   OH234236   5.002   1.398   5.900 -0.0193  0.4329 -0.2522
 4274TIP3    H134237   4.954   1.451   5.837 -0.6131  0.1565 -0.0439
 4274TIP3    H234238   4.936   1.375   5.966 -0.1013 -1.6424 -1.0242
 4275TIP3   OH234239   6.748   4.492  16.732  0.3430 -0.4491 -0.7616
 4275TIP3    H134240   6.741   4.587  16.720 -0.4970 -0.5734 -1.2255
 4275TIP3    H234241   6.822   4.482  16.792 -0.1817  0.5532  0.0793
 4276TIP3   OH234242   2.623   3.403   3.628 -0.2855 -0.3023  0.4150
 4276TIP3    H134243   2.601   3.489   3.593  1.0011  0.0581  0.4460
 4276TIP3    H234244   2.602   3.409   3.721  1.6601  0.6705  0.8248
 4277TIP3   OH234245   3.962   3.842   2.427 -0.5178  0.0863  0.3147
 4277TIP3    H134246   4.007   3.779   2.370  0.5813 -1.0629  2.3841
 4277TIP3    H234247   3.884   3.795   2.456 -1.9859  1.2948 -1.5506
 4278TIP3   OH234248   5.496   1.375   4.079 -0.1653  0.1302  0.3515
 4278TIP3    H134249   5.496   1.437   4.152  1.3044  1.9795 -1.1533
 4278TIP3    H234250   5.546   1.300   4.111  2.0790  1.7181  0.6421
 4279TIP3   OH234251   2.210   2.147   4.740  0.8189 -0.3517 -0.0605
 4279TIP3    H134252   2.134   2.154   4.681 -1.1245 -0.9292  2.2944
 4279TIP3    H234253   2.260   2.227   4.723 -1.7240  1.3565  0.2097
 4280TIP3   OH234254   4.547   5.311  11.640  0.1497  0.6705 -0.3767
 4280TIP3    H134255   4.566   5.401  11.615  1.5763  0.3565 -0.4445
 4280TIP3    H234256   4.539   5.264  11.557  1.6813  0.2781 -0.3099
 4281TIP3   OH234257   4.701   0.747   4.435  0.6135 -0.2641 -0.6506
 4281TIP3    H134258   4.721   0.699   4.355  1.5500  0.3602 -0.7981
 4281TIP3    H234259   4.693   0.838   4.408 -0.9040 -0.2808 -0.3219
 4282TIP3   OH234260   3.390   1.617  12.866 -0.4500  0.1029  0.5543
 4282TIP3    H134261   3.401   1.666  12.947  2.2519  1.0236 -0.3153
 4282TIP3    H234262   3.351   1.680  12.805 -2.8052 -0.6863  1.1787
 4283TIP3   OH234263   4.789   2.502   0.163 -0.3442  0.7615  0.3942
 4283TIP3    H134264   4.853   2.440   0.198 -0.1505  2.3030  2.9559
 4283TIP3    H234265   4.841   2.579   0.141 -1.1410  1.6214  1.4494
 4284TIP3   OH234266   0.312   4.593   0.742  0.1370 -0.3333  0.2153
 4284TIP3    H134267   0.407   4.594   0.745  0.1312 -1.0237  0.7947
 4284TIP3    H234268   0.288   4.501   0.754 -0.6510  0.1065  2.3215
 4285TIP3   OH234269   2.729   6.125   0.762 -0.1614 -0.5145 -0.0187
 4285TIP3    H134270   2.798   6.128   0.696 -0.2581  0.6759 -0.0791
 4285TIP3    H234271   2.770   6.084   0.838  0.5727  0.0404 -0.1120
 4286TIP3   OH234272   6.076   2.546   3.586  0.3307  0.2999 -0.1024
 4286TIP3    H134273   6.098   2.639   3.586 -0.6253  0.5300  0.5403
 4286TIP3    H234274   5.986   2.542   3.617  1.0747 -1.0047  2.0450
 4287TIP3   OH234275   6.763   2.734   0.729  0.0405  0.6753 -0.7053
 4287TIP3    H134276   6.828   2.789   0.684 -0.1082 -0.5935 -2.5403
 4287TIP3    H234277   6.680   2.757   0.687 -0.4208  0.9302  0.3351
 4288TIP3   OH234278   3.355   3.425   3.399 -0.2338  0.4020 -0.1988
 4288TIP3    H134279   3.264   3.452   3.397 -1.1703 -2.6082 -0.3109
 4288TIP3    H234280   3.377   3.405   3.308  0.1382 -0.2012  0.0203
 4289TIP3   OH234281   2.302   4.548  14.407 -0.4124  0.2761 -0.6115
 4289TIP3    H134282   2.361   4.518  14.337  1.4956 -2.9092  2.1878
 4289TIP3    H234283   2.221   4.499  14.392  0.3527 -1.1978 -0.0267
 4290TIP3   OH234284   3.406   3.637   4.546  0.6998  0.6621  0.1941
 4290TIP3    H134285   3.493   3.652   4.583  0.6938 -0.4193  0.6650
 4290TIP3    H234286   3.392   3.543   4.556 -1.4951  1.1642  2.3218
 4291TIP3   OH234287   4.392   2.024  17.218 -0.8659 -0.6459 -0.7191
 4291TIP3    H134288   4.458   1.967  17.178 -0.6933 -0.4817 -0.6703
 4291TIP3    H234289   4.374   2.090  17.152 -2.4278 -1.8193 -1.5072
 4292TIP3   OH234290   2.306   4.255  17.172 -0.0924 -0.1939  0.0991
 4292TIP3    H134291   2.269   4.341  17.149 -1.9480 -0.8812  0.3915
 4292TIP3    H234292   2.236   4.212  17.221  0.0517 -2.6389 -1.7836
 4293TIP3   OH234293   0.588   2.005   5.901  0.0520  0.0120  0.3416
 4293TIP3    H134294   0.626   1.923   5.931  1.0825 -0.6488 -2.6572
 4293TIP3    H234295   0.519   2.024   5.965  0.1766 -2.8636  1.3992
 4294TIP3   OH234296   2.282   0.302  17.061 -0.3693 -0.0757 -0.4027
 4294TIP3    H134297   2.203   0.259  17.094 -0.8059 -0.9287 -2.4806
 4294TIP3    H234298   2.252   0.350  16.984  1.1942 -0.6072 -1.3537
 4295TIP3   OH234299   6.247   0.175   1.902 -0.0625  0.1691  0.4328
 4295TIP3    H134300   6.260   0.214   1.816 -2.5416  1.5802  0.6486
 4295TIP3    H234301   6.165   0.125   1.894  1.7263 -2.9859  0.8796
 4296TIP3   OH234302   6.448   1.924  11.725  0.2882  0.0015  0.3457
 4296TIP3    H134303   6.435   2.015  11.702  0.6553 -0.1480 -0.4693
 4296TIP3    H234304   6.365   1.881  11.704  0.5254 -0.0803 -0.4642
 4297TIP3   OH234305   4.365   4.592   3.524  0.1297 -0.1126 -0.4049
 4297TIP3    H134306   4.414   4.674   3.526 -0.4256  0.2068  1.6513
 4297TIP3    H234307   4.431   4.524   3.536  0.3303  0.1894  0.2350
 4298TIP3   OH234308   2.660   1.977  13.855  0.2289  0.3974 -0.1070
 4298TIP3    H134309   2.740   1.997  13.806 -0.1676  0.4997 -0.7176
 4298TIP3    H234310   2.637   1.888  13.828  1.3871 -0.4867  1.7873
 4299TIP3   OH234311   0.462   5.851   3.395  0.4374 -0.0387  0.0501
 4299TIP3    H134312   0.425   5.896   3.319 -0.2953 -0.1909  0.3107
 4299TIP3    H234313   0.461   5.759   3.372  1.8681  0.0580 -0.4535
 4300TIP3   OH234314   2.397   5.804   3.423  0.4449  0.1421 -0.5097
 4300TIP3    H134315   2.445   5.727   3.393  0.9657 -0.2089  1.1743
 4300TIP3    H234316   2.442   5.878   3.383  0.4485 -0.3712 -1.4723
 4301TIP3   OH234317   5.125   1.510   6.160 -0.8880 -1.0242 -0.1738
 4301TIP3    H134318   5.059   1.575   6.185  1.1006  1.5531 -1.4843
 4301TIP3    H234319   5.102   1.485   6.070  0.2648  0.3661 -0.8715
 4302TIP3   OH234320   4.207   2.209   5.115 -0.5401  0.8814 -0.1388
 4302TIP3    H134321   4.267   2.137   5.135 -0.5095  0.8822 -0.2271
 4302TIP3    H234322   4.219   2.272   5.185 -1.2057  0.3948  0.4253
 4303TIP3   OH234323   6.282   5.403   3.299  0.7499 -0.2612  0.0116
 4303TIP3    H134324   6.210   5.466   3.305  0.0852 -1.1141  1.4269
 4303TIP3    H234325   6.240   5.321   3.274  0.9892 -1.0869  2.1387
 4304TIP3   OH234326   3.130   5.334   5.346 -0.5411 -0.2387  0.0940
 4304TIP3    H134327   3.133   5.354   5.440 -0.1759  0.1427  0.0036
 4304TIP3    H234328   3.081   5.252   5.341  0.2614 -0.7707  0.7024
 4305TIP3   OH234329   4.663   3.819  14.824 -0.0919  0.3808  0.4380
 4305TIP3    H134330   4.601   3.842  14.755 -0.3776  0.1553  0.6187
 4305TIP3    H234331   4.748   3.840  14.787 -0.1953 -0.3499 -0.2391
 4306TIP3   OH234332   3.553   4.218  16.771  0.2076 -0.1100  0.6436
 4306TIP3    H134333   3.643   4.197  16.796  0.8569  0.2712 -1.3057
 4306TIP3    H234334   3.508   4.134  16.769  0.8565 -0.4498  0.3133
 4307TIP3   OH234335   5.752   3.873  11.722  0.8221 -0.3123  0.4747
 4307TIP3    H134336   5.758   3.907  11.633 -4.9731 -0.9605 -0.3373
 4307TIP3    H234337   5.737   3.949  11.777  1.5148 -0.2120  0.5304
 4308TIP3   OH234338   6.091   3.538   1.580 -0.0802 -0.0925 -0.0677
 4308TIP3    H134339   6.029   3.500   1.642 -0.7978  0.2963 -0.5449
 4308TIP3    H234340   6.111   3.625   1.617  1.7066 -0.9883  1.1242
 4309TIP3   OH234341   1.236   0.118   1.037  0.1682 -0.0648  0.0504
 4309TIP3    H134342   1.256   0.201   0.992 -0.9806 -0.0555 -0.4568
 4309TIP3    H234343   1.321   0.087   1.069  0.6708  1.0863 -0.1471
 4310TIP3   OH234344   1.523   5.652  15.174 -0.2030 -0.1611  0.3207
 4310TIP3    H134345   1.581   5.627  15.246 -0.7631 -1.0674  0.4569
 4310TIP3    H234346   1.436   5.658  15.214 -0.3753  0.1750 -0.1000
 4311TIP3   OH234347   5.771   4.531  13.156 -0.4720 -0.1511  0.0735
 4311TIP3    H134348   5.696   4.537  13.215 -0.8013  0.0964 -0.3680
 4311TIP3    H234349   5.839   4.489  13.208 -1.4755 -1.9914 -0.0779
 4312TIP3   OH234350   2.348   6.738  13.120 -0.4976 -0.1895 -0.6247
 4312TIP3    H134351   2.377   6.746  13.211 -0.2135 -1.3355 -0.6117
 4312TIP3    H234352   2.326   6.828  13.094 -0.6621  0.1329  0.5991
 4313TIP3   OH234353   5.930   0.036   0.502  0.1181 -0.1710 -0.8526
 4313TIP3    H134354   5.842   0.068   0.481 -0.5458 -1.0580  0.5090
 4313TIP3    H234355   5.953   0.080   0.584  0.2254 -1.2322 -0.3021
 4314TIP3   OH234356   1.300   0.061  14.443  0.2862 -0.1271 -0.3576
 4314TIP3    H134357   1.375   0.115  14.419  1.1729 -0.9798  0.5196
 4314TIP3    H234358   1.314  -0.023  14.399  0.1664 -0.5078  0.3291
 4315TIP3   OH234359   4.101   5.212  16.204 -0.1306 -0.4419 -0.6366
 4315TIP3    H134360   4.145   5.127  16.197  0.3402 -0.4391  2.0120
 4315TIP3    H234361   4.171   5.276  16.191  0.1677 -0.4542  0.8523
 4316TIP3   OH234362   0.565   2.650  12.807 -0.1745 -0.0884  0.5616
 4316TIP3    H134363   0.634   2.715  12.792 -0.5397  0.7391  2.3518
 4316TIP3    H234364   0.508   2.690  12.873 -0.9906 -1.8055  0.9339
 4317TIP3   OH234365   6.688   5.518  16.593  0.7031 -0.3279  0.4189
 4317TIP3    H134366   6.631   5.551  16.523  4.2383  0.6961 -2.1063
 4317TIP3    H234367   6.683   5.423  16.586 -1.4091 -0.2928  0.9165
 4318TIP3   OH234368   6.120   1.881  14.837 -0.2865 -0.1795 -0.0891
 4318TIP3    H134369   6.042   1.835  14.868  0.3824 -0.2832  1.4506
 4318TIP3    H234370   6.194   1.830  14.870  0.4545  0.1499 -1.1863
 4319TIP3   OH234371   1.162   1.679  12.799 -0.6306  0.8998  0.0082
 4319TIP3    H134372   1.255   1.680  12.779 -0.7450  0.1259 -0.5803
 4319TIP3    H234373   1.123   1.739  12.735 -0.7321 -0.0052 -0.7987
 4320TIP3   OH234374   3.274   6.773  17.004  0.1227  0.5958 -0.0618
 4320TIP3    H134375   3.226   6.850  17.033  0.2723  0.8412 -0.4550
 4320TIP3    H234376   3.264   6.710  17.075 -1.2135  0.4561 -0.3437
 4321TIP3   OH234377   4.156   3.314  12.000 -0.3050  0.3935  0.2789
 4321TIP3    H134378   4.090   3.329  12.067  1.4912 -0.5017  2.3251
 4321TIP3    H234379   4.216   3.388  12.010 -0.6832  0.9050 -1.1816
 4322TIP3   OH234380   0.955   5.866   6.397 -0.2789 -0.1667 -0.3463
 4322TIP3    H134381   1.011   5.899   6.468 -1.1643 -1.4377  0.9830
 4322TIP3    H234382   1.002   5.790   6.363 -0.7864 -0.7285  0.2017
 4323TIP3   OH234383   3.327   2.047  15.599  0.0938 -0.0539  0.4126
 4323TIP3    H134384   3.397   2.082  15.654  1.0990  0.6501 -1.2759
 4323TIP3    H234385   3.373   2.010  15.523 -1.4301  1.8156 -1.4821
 4324TIP3   OH234386   2.845   0.464  14.273 -1.1440 -0.3482 -0.6107
 4324TIP3    H134387   2.825   0.375  14.303  1.2449 -0.9986 -0.8236
 4324TIP3    H234388   2.870   0.453  14.181 -3.6886  0.9662 -1.4893
 4325TIP3   OH234389   1.527   3.715  12.376  0.5897  0.0647  0.1170
 4325TIP3    H134390   1.577   3.775  12.320 -1.4804  0.1044 -1.7326
 4325TIP3    H234391   1.586   3.642  12.391  0.8218 -0.4169 -2.9976
 4326TIP3   OH234392   1.946   2.863  13.009 -0.0041 -0.5095  0.2534
 4326TIP3    H134393   2.015   2.872  13.075 -1.0875 -1.4220  1.5110
 4326TIP3    H234394   1.940   2.950  12.969  0.9015 -0.0496  1.1029
 4327TIP3   OH234395   2.723   0.038   3.845 -0.0673 -0.0776 -0.5202
 4327TIP3    H134396   2.802  -0.015   3.849  0.7116  0.9517 -1.7422
 4327TIP3    H234397   2.658  -0.019   3.804  0.1453 -0.7949  0.1300
 4328TIP3   OH234398   0.810   2.325  15.434 -0.1807 -0.5851  0.1893
 4328TIP3    H134399   0.834   2.293  15.521  0.0206 -2.4803 -0.5381
 4328TIP3    H234400   0.842   2.416  15.433 -1.4504 -0.0657  2.5681
 4329TIP3   OH234401   3.275   3.590   0.066  0.3970  0.0628 -0.4701
 4329TIP3    H134402   3.316   3.617   0.148 -1.2294  1.6600 -0.1415
 4329TIP3    H234403   3.307   3.501   0.051 -0.1806 -0.6834  2.4790
 4330TIP3   OH234404   6.684   0.615  11.015  0.2839 -0.3240  0.9004
 4330TIP3    H134405   6.593   0.641  11.028  0.8536  1.5138  1.2548
 4330TIP3    H234406   6.714   0.665  10.939  1.1372 -0.5989  1.0429
 4331TIP3   OH234407   2.310   5.561  16.494  0.3707 -0.3495 -0.3631
 4331TIP3    H134408   2.339   5.588  16.407 -0.8645 -0.1849 -0.7374
 4331TIP3    H234409   2.289   5.468  16.484 -3.6462  0.5665 -1.3259
 4332TIP3   OH234410   3.862   4.577   2.433  0.0025 -0.1880 -0.1988
 4332TIP3    H134411   3.878   4.657   2.383 -2.9026  0.9249  0.5541
 4332TIP3    H234412   3.934   4.575   2.497  0.2035  1.7636 -0.3145
 4333TIP3   OH234413   5.317   2.304  14.577  0.2888  0.0201  0.4551
 4333TIP3    H134414   5.377   2.372  14.547 -1.2436  0.8543 -0.7764
 4333TIP3    H234415   5.330   2.302  14.672  1.0852  1.3104  0.3889
 4334TIP3   OH234416   5.480   0.173  13.813  0.4835  0.3328 -0.0659
 4334TIP3    H134417   5.564   0.171  13.767  1.2268  1.8585  1.1983
 4334TIP3    H234418   5.430   0.242  13.769  0.2117  0.0377 -0.2306
 4335TIP3   OH234419   0.621   3.231  10.093 -0.3732 -0.1897 -0.1724
 4335TIP3    H134420   0.677   3.181  10.152 -1.0615 -1.2142 -0.3810
 4335TIP3    H234421   0.667   3.315  10.082  0.5089 -0.5637  0.6107
 4336TIP3   OH234422   5.818   4.259   3.141 -0.1568 -0.2886 -0.2740
 4336TIP3    H134423   5.888   4.323   3.156 -0.2637 -0.1514 -0.3599
 4336TIP3    H234424   5.767   4.295   3.069 -1.3120  0.4528  0.8696
 4337TIP3   OH234425   3.342   6.395   0.976  0.2076 -0.3957 -0.4131
 4337TIP3    H134426   3.317   6.475   1.022  1.2580  0.2878 -1.0124
 4337TIP3    H234427   3.322   6.413   0.884  1.1617 -0.5340 -0.6477
 4338TIP3   OH234428   5.254   3.092   4.199  0.7762 -0.3999  0.2014
 4338TIP3    H134429   5.251   3.180   4.160  1.7820  0.9941  3.1194
 4338TIP3    H234430   5.330   3.050   4.159  0.7260  0.3263 -0.6749
 4339TIP3   OH234431   2.151   4.931  16.543  0.4968 -0.1500 -0.2042
 4339TIP3    H134432   2.232   4.881  16.548  0.2519 -0.5349 -0.0265
 4339TIP3    H234433   2.177   5.017  16.509  1.6987  1.3379  4.1783
 4340TIP3   OH234434   3.883   0.828   4.906 -0.0092 -0.3584  0.2466
 4340TIP3    H134435   3.818   0.786   4.849  0.6142 -2.4801  1.0631
 4340TIP3    H234436   3.951   0.762   4.919  1.9159  1.5334  0.1131
 4341TIP3   OH234437   2.474   4.804  11.922  0.0876  0.0509 -0.7632
 4341TIP3    H134438   2.537   4.852  11.975 -1.3384  1.0188  0.0772
 4341TIP3    H234439   2.412   4.870  11.893 -0.4515 -0.8618 -1.7342
 4342TIP3   OH234440   2.398   2.575  16.385  0.1662  0.2610  0.3039
 4342TIP3    H134441   2.348   2.547  16.308  0.0640 -0.0912  0.4983
 4342TIP3    H234442   2.489   2.559  16.361  0.0565 -1.0498  0.7451
 4343TIP3   OH234443   2.275   4.912   2.147 -0.1884 -0.6675 -0.0730
 4343TIP3    H134444   2.199   4.969   2.134 -1.1019 -2.0772 -1.0938
 4343TIP3    H234445   2.296   4.920   2.240  0.0642  1.7552 -0.3134
 4344TIP3   OH234446   4.298   6.121   0.191 -0.2246  0.1058  0.6769
 4344TIP3    H134447   4.383   6.077   0.189  0.6397  1.7212  0.8764
 4344TIP3    H234448   4.251   6.080   0.264  0.3552 -0.8379  0.5289
 4345TIP3   OH234449   1.076   0.812  16.441  0.4730 -0.3220  0.5494
 4345TIP3    H134450   1.060   0.754  16.367 -0.1228  0.2094  0.2556
 4345TIP3    H234451   1.127   0.884  16.405 -1.4880  0.9396  0.2056
 4346TIP3   OH234452   0.215   2.199   5.852  0.6140 -0.2508  0.0055
 4346TIP3    H134453   0.143   2.158   5.899  0.1695 -0.6711 -1.0254
 4346TIP3    H234454   0.265   2.244   5.920 -0.4631 -0.1752  0.7672
 4347TIP3   OH234455   4.568   1.466   0.949  0.3160  0.2720  0.3091
 4347TIP3    H134456   4.558   1.540   0.889 -0.1494  0.1005  0.1738
 4347TIP3    H234457   4.525   1.495   1.029  1.5434  0.7749  0.8121
 4348TIP3   OH234458   1.928   2.473   4.088  0.4680 -0.0394  0.0575
 4348TIP3    H134459   1.947   2.435   4.174 -0.0308 -1.6910 -0.5587
 4348TIP3    H234460   2.003   2.532   4.071  2.9719 -3.2446 -0.4692
 4349TIP3   OH234461   6.019   0.845   5.705  0.2704  0.5210 -0.0585
 4349TIP3    H134462   6.002   0.760   5.664 -4.4194  0.7422  1.1184
 4349TIP3    H234463   6.045   0.902   5.633 -0.6729 -0.8738 -1.5439
 4350TIP3   OH234464   5.056   0.107   0.695  0.1467 -0.8286 -0.3294
 4350TIP3    H134465   5.016   0.098   0.782 -0.4935 -0.7135 -0.6101
 4350TIP3    H234466   5.022   0.189   0.661  0.2680 -0.9555 -0.7587
 4351TIP3   OH234467   3.510   3.657  13.429  0.2420  0.0476  0.4473
 4351TIP3    H134468   3.575   3.672  13.360  0.8763  1.8282  1.4009
 4351TIP3    H234469   3.537   3.574  13.469  2.1919  0.9709  1.0908
 4352TIP3   OH234470   0.644   5.274  16.460  0.7155  0.0407 -0.0856
 4352TIP3    H134471   0.591   5.318  16.526  3.3026 -1.2253  2.9759
 4352TIP3    H234472   0.701   5.342  16.425  3.4017 -0.3558  3.2909
 4353TIP3   OH234473   3.392   0.050  14.035 -0.1963 -0.2049 -0.1228
 4353TIP3    H134474   3.341   0.110  13.981 -2.4890 -1.0514  1.0558
 4353TIP3    H234475   3.462   0.105  14.071 -0.2025  0.9536 -1.7876
 4354TIP3   OH234476   4.613   1.825  10.139 -0.2021  0.3218  0.9584
 4354TIP3    H134477   4.596   1.905  10.089  0.5073 -0.4318 -0.5320
 4354TIP3    H234478   4.656   1.767  10.076  0.3212 -0.8073  2.3456
 4355TIP3   OH234479   1.617   3.338  14.078 -0.0252  0.2068  0.5259
 4355TIP3    H134480   1.708   3.315  14.091  0.1041  0.1753 -0.3980
 4355TIP3    H234481   1.570   3.255  14.083  0.2172 -0.0228 -0.8758
 4356TIP3   OH234482   0.674   2.850  10.988  0.1595 -0.3539 -0.1466
 4356TIP3    H134483   0.705   2.891  11.069 -0.2114 -2.0452  0.8664
 4356TIP3    H234484   0.750   2.805  10.953  0.0537 -0.4908 -0.1999
 4357TIP3   OH234485   0.455   6.298   3.674 -0.5640 -0.1631  0.0725
 4357TIP3    H134486   0.450   6.207   3.645 -0.1523 -0.2129  0.1488
 4357TIP3    H234487   0.508   6.295   3.753  1.9659  0.4905 -1.5314
 4358TIP3   OH234488   6.644   4.442   0.138  0.5622  0.5362  0.5027
 4358TIP3    H134489   6.593   4.371   0.179  0.2152  0.3855 -0.1777
 4358TIP3    H234490   6.710   4.396   0.086  0.8406  0.7257  0.6890
 4359TIP3   OH234491   0.393   6.759  16.069 -1.1715  0.4569  0.0699
 4359TIP3    H134492   0.465   6.713  16.025  0.3157  0.8045  2.0722
 4359TIP3    H234493   0.388   6.844  16.025 -0.3650  0.4264 -0.0857
 4360TIP3   OH234494   0.252   2.519   1.333 -0.2090 -0.2096  0.1768
 4360TIP3    H134495   0.221   2.607   1.355 -0.7195 -0.9727  2.7049
 4360TIP3    H234496   0.178   2.479   1.288  0.3783  0.9361 -1.9179
 4361TIP3   OH234497   1.783   2.909  10.543  0.3053 -0.2285  0.0700
 4361TIP3    H134498   1.863   2.861  10.563  1.1311  1.0543 -0.0427
 4361TIP3    H234499   1.812   3.000  10.530 -1.3003  0.4570  1.0245
 4362TIP3   OH234500   4.244   0.446   0.480  0.0359  0.0724  0.3030
 4362TIP3    H134501   4.325   0.467   0.527 -1.2388 -0.5560  2.9244
 4362TIP3    H234502   4.238   0.350   0.483 -0.3943  0.0701 -0.5521
 4363TIP3   OH234503   1.316   2.191  10.720 -0.0823  0.2003 -0.0607
 4363TIP3    H134504   1.261   2.113  10.711 -0.3374  0.2271  1.1992
 4363TIP3    H234505   1.389   2.162  10.776  0.2820  0.6318 -0.3072
 4364TIP3   OH234506   3.050   4.062  11.532 -0.1790  0.0139 -0.0614
 4364TIP3    H134507   2.993   4.113  11.475  1.1632  1.4290 -0.1723
 4364TIP3    H234508   2.995   3.990  11.564 -1.5342  0.4121 -1.4593
 4365TIP3   OH234509   0.768   1.140  16.466  1.3338 -0.0429 -0.1829
 4365TIP3    H134510   0.817   1.071  16.511  1.1072  0.4828  0.8942
 4365TIP3    H234511   0.795   1.220  16.510  0.6990  0.4193 -0.6377
 4366TIP3   OH234512   4.328   4.092   4.329  0.3561 -0.5934 -0.1835
 4366TIP3    H134513   4.315   4.099   4.235  1.1520 -2.3119 -0.4451
 4366TIP3    H234514   4.406   4.144   4.347 -1.0179  1.4807 -0.1355
 4367TIP3   OH234515   6.649   0.796   1.812  0.3190 -0.4049 -0.2802
 4367TIP3    H134516   6.687   0.737   1.747  3.0633  0.0631  0.8122
 4367TIP3    H234517   6.716   0.864   1.824 -1.1603  0.8330  1.2610
 4368TIP3   OH234518   4.894   1.682   1.709 -0.0849 -0.4968  0.1613
 4368TIP3    H134519   4.810   1.637   1.716  1.3295 -3.1062  1.3702
 4368TIP3    H234520   4.907   1.693   1.615 -0.6846 -2.3297 -0.1737
 4369TIP3   OH234521   6.750   5.827  12.322  0.1373 -0.7008  0.0695
 4369TIP3    H134522   6.662   5.817  12.287  0.0610 -1.6789  0.5262
 4369TIP3    H234523   6.806   5.778  12.262  0.2364 -0.9027  0.3220
 4370TIP3   OH234524   1.249   3.251   2.907  0.0756 -0.1190  0.4317
 4370TIP3    H134525   1.291   3.191   2.968  0.2901  1.7045  2.1030
 4370TIP3    H234526   1.155   3.237   2.919  0.1132  0.4010  1.3678
 4371TIP3   OH234527   5.754   3.404   5.112  0.1099 -0.0740 -0.0215
 4371TIP3    H134528   5.746   3.485   5.164  0.0593 -0.4579  0.5759
 4371TIP3    H234529   5.817   3.351   5.161  0.6529 -0.1191 -0.7725
 4372TIP3   OH234530   2.343   3.811  12.883  0.2355 -0.0871 -0.3009
 4372TIP3    H134531   2.338   3.770  12.797  2.9984 -0.8049 -0.1615
 4372TIP3    H234532   2.383   3.897  12.867 -0.1066  0.1612  0.1582
 4373TIP3   OH234533   1.936   1.471  17.196 -0.3230 -1.7796  0.4713
 4373TIP3    H134534   2.020   1.515  17.180 -0.9018 -0.7383  0.2364
 4373TIP3    H234535   1.930   1.467  17.292 -2.5766  3.3641  0.7543
 4374TIP3   OH234536   4.262   1.454   3.792 -0.2804  0.2670  0.4714
 4374TIP3    H134537   4.266   1.397   3.715 -2.1236 -0.1370  0.6534
 4374TIP3    H234538   4.174   1.491   3.789 -0.2943  0.3946  2.2855
 4375TIP3   OH234539   0.699   5.925  12.186 -0.0262  0.3631 -0.1453
 4375TIP3    H134540   0.688   5.832  12.205  0.3982 -0.2309 -2.6889
 4375TIP3    H234541   0.792   5.942  12.202 -0.1182  0.3994  0.3895
 4376TIP3   OH234542   4.286   1.494  12.919  0.2894 -0.1920 -0.6938
 4376TIP3    H134543   4.293   1.410  12.963  0.1529  0.6459  0.9770
 4376TIP3    H234544   4.373   1.533  12.928 -0.0419  0.4467 -0.2064
 4377TIP3   OH234545   2.780   0.212  14.360  0.3240 -0.7606 -0.1552
 4377TIP3    H134546   2.779   0.134  14.305 -0.2876 -1.7824  1.2757
 4377TIP3    H234547   2.688   0.229  14.380  0.4832  0.0635 -0.0913
 4378TIP3   OH234548   5.252   2.900  11.068  0.5917 -0.0110 -0.0191
 4378TIP3    H134549   5.330   2.853  11.038  1.2365 -0.3990  2.2224
 4378TIP3    H234550   5.217   2.846  11.138 -1.1606  0.6684 -0.3531
 4379TIP3   OH234551   2.355   1.574  16.663  0.4163  0.3279  0.4188
 4379TIP3    H134552   2.369   1.517  16.588  1.4624  0.0748  0.7836
 4379TIP3    H234553   2.415   1.647  16.649  0.0544  0.6669  0.6217
 4380TIP3   OH234554   5.257   4.269   1.584  0.6376 -0.2373  0.3055
 4380TIP3    H134555   5.260   4.307   1.672  3.6315  0.2028  0.0849
 4380TIP3    H234556   5.343   4.229   1.573  1.0311  1.3940 -3.1393
 4381TIP3   OH234557   4.743   3.775  13.280 -0.1451 -0.0454 -0.2542
 4381TIP3    H134558   4.694   3.735  13.352  0.6213 -1.7559 -0.6780
 4381TIP3    H234559   4.698   3.746  13.201  0.5543 -0.2690 -0.5735
 4382TIP3   OH234560   6.423   0.913  12.917  0.2195 -0.1310  0.1545
 4382TIP3    H134561   6.455   0.979  12.855  0.7185  0.0725  0.6247
 4382TIP3    H234562   6.496   0.900  12.977 -0.0744 -0.7223  0.3803
 4383TIP3   OH234563   1.417   3.371  13.737  0.6032 -0.2159  0.0875
 4383TIP3    H134564   1.508   3.400  13.737  0.9328 -1.2343  1.3630
 4383TIP3    H234565   1.373   3.429  13.800 -0.1192  1.7199 -2.1374
 4384TIP3   OH234566   2.523   2.545   3.276 -0.3453  0.4967  0.2122
 4384TIP3    H134567   2.454   2.606   3.302  0.3621  0.3765  2.5332
 4384TIP3    H234568   2.477   2.463   3.257 -0.9988  0.8892  0.0914
 4385TIP3   OH234569   6.544   0.352   2.160  0.0292 -0.1192 -0.4788
 4385TIP3    H134570   6.579   0.437   2.134 -0.5751  0.3831  0.3231
 4385TIP3    H234571   6.469   0.373   2.216 -0.5227 -1.1773 -0.8065
 4386TIP3   OH234572   2.575   2.695   4.185 -0.4918  0.8719 -0.6845
 4386TIP3    H134573   2.539   2.613   4.217 -2.1406  1.9572  0.3220
 4386TIP3    H234574   2.603   2.742   4.264  1.5235  0.8052 -1.3325
 4387TIP3   OH234575   0.834   4.908   2.577  0.5426  0.3876 -0.1301
 4387TIP3    H134576   0.840   4.818   2.546  0.8636 -0.0272  1.0971
 4387TIP3    H234577   0.828   4.900   2.672 -1.1157  1.5934 -0.1113
 4388TIP3   OH234578   3.027   3.928   2.680  0.5752 -0.0659  0.3470
 4388TIP3    H134579   3.103   3.897   2.730 -0.1510 -1.4331  0.6458
 4388TIP3    H234580   2.978   3.982   2.741  0.7690 -0.0300  0.4709
 4389TIP3   OH234581   4.875   1.194  14.527 -0.0584  0.3142  0.0504
 4389TIP3    H134582   4.962   1.204  14.567 -0.1976 -0.3772  0.5352
 4389TIP3    H234583   4.879   1.248  14.448  1.1629 -0.5066 -0.4721
 4390TIP3   OH234584   2.703   6.251   1.813 -0.0395 -0.0963 -0.8068
 4390TIP3    H134585   2.742   6.166   1.794 -0.2580 -0.4956  0.4547
 4390TIP3    H234586   2.619   6.229   1.855 -0.4110  0.7463 -1.1053
 4391TIP3   OH234587   2.684   5.057  14.114 -0.2556 -0.2793  0.4249
 4391TIP3    H134588   2.616   5.106  14.068  0.7389  0.0797 -0.6687
 4391TIP3    H234589   2.635   4.992  14.166 -1.4700  0.6149  0.4239
 4392TIP3   OH234590   1.671   4.005   2.415 -0.1899  0.8475  0.0730
 4392TIP3    H134591   1.679   4.096   2.443 -0.5621  0.5478  1.1763
 4392TIP3    H234592   1.662   3.955   2.496  0.7538 -0.2587 -0.4823
 4393TIP3   OH234593   3.803   5.754  14.717  0.1406 -0.3068 -0.1977
 4393TIP3    H134594   3.744   5.731  14.646 -1.8978 -1.2108  1.7289
 4393TIP3    H234595   3.889   5.726  14.687 -0.6343 -0.3947 -2.4106
 4394TIP3   OH234596   1.176   2.425  15.298  0.2425 -0.4073  0.3075
 4394TIP3    H134597   1.099   2.459  15.252 -1.0275 -1.3234  1.6808
 4394TIP3    H234598   1.166   2.330  15.292  1.5576 -0.5296  0.0498
 4395TIP3   OH234599   5.554   3.138  15.765  0.2953 -0.2920  0.2765
 4395TIP3    H134600   5.584   3.226  15.743 -0.9997 -0.1029 -0.7696
 4395TIP3    H234601   5.631   3.083  15.751  0.7003  0.4606 -0.5128
 4396TIP3   OH234602   6.180   2.871  11.274  0.1858  0.0838  0.7315
 4396TIP3    H134603   6.223   2.931  11.214  1.2619 -0.2430  1.1557
 4396TIP3    H234604   6.104   2.839  11.226 -0.5896  2.0151  0.6164
 4397TIP3   OH234605   2.238   5.247   5.226  0.8750 -0.2927 -0.1827
 4397TIP3    H134606   2.311   5.219   5.282 -0.3754  0.9006  2.1370
 4397TIP3    H234607   2.233   5.342   5.241  0.4051  0.0153 -2.2318
 4398TIP3   OH234608   2.395   0.974   4.122 -0.0053 -0.4785  0.3637
 4398TIP3    H134609   2.471   0.938   4.168  0.2605 -0.7973 -0.3296
 4398TIP3    H234610   2.362   0.902   4.068 -0.0747  0.0152 -0.2587
 4399TIP3   OH234611   6.414   3.616  11.198 -0.2602  0.0543 -0.0460
 4399TIP3    H134612   6.462   3.696  11.177  0.0080 -0.0303  0.2414
 4399TIP3    H234613   6.354   3.604  11.125  0.7386 -0.2848 -0.8264
 4400TIP3   OH234614   5.410   6.556  14.865 -0.2896  0.1436 -0.0481
 4400TIP3    H134615   5.483   6.576  14.923  0.4116  0.1773 -0.9308
 4400TIP3    H234616   5.371   6.641  14.843 -0.3649  0.1540  0.1257
 4401TIP3   OH234617   3.727   5.835   3.721 -0.0031 -0.0627  0.4714
 4401TIP3    H134618   3.794   5.900   3.698 -0.1306  0.8736  2.5715
 4401TIP3    H234619   3.683   5.873   3.797 -0.9378 -2.0347  0.9444
 4402TIP3   OH234620   4.006   1.623  14.268 -0.1854 -0.1670 -0.3130
 4402TIP3    H134621   3.974   1.707  14.301 -1.0487 -0.3100 -0.7766
 4402TIP3    H234622   4.099   1.638  14.251 -0.5696  0.9974 -1.3988
 4403TIP3   OH234623   6.437   1.845   1.492  0.3064  0.1240 -0.4591
 4403TIP3    H134624   6.410   1.802   1.574  1.1518  0.6964  0.1259
 4403TIP3    H234625   6.532   1.831   1.488  0.2395 -0.0748 -1.4492
 4404TIP3   OH234626   3.302   6.445   0.706  0.2451  0.0738  0.1064
 4404TIP3    H134627   3.248   6.423   0.630  0.1773  0.0297  0.1668
 4404TIP3    H234628   3.318   6.539   0.698 -1.0546  0.3858  0.8527
 4405TIP3   OH234629   2.748   2.994   4.672  0.2421 -0.4936  0.2757
 4405TIP3    H134630   2.732   2.939   4.595 -0.2211  0.3699 -0.2638
 4405TIP3    H234631   2.668   2.985   4.725  0.2767 -0.5557  0.3164
 4406TIP3   OH234632   1.235   1.515  12.359  0.1364 -0.2390 -0.0291
 4406TIP3    H134633   1.270   1.428  12.336  2.4482  0.1438  1.8282
 4406TIP3    H234634   1.272   1.573  12.293  0.9042 -0.2525  0.3782
 4407TIP3   OH234635   4.362   4.161   5.458 -0.2599 -0.0950 -0.0345
 4407TIP3    H134636   4.399   4.139   5.373  0.0113  0.7783 -0.1460
 4407TIP3    H234637   4.267   4.164   5.443 -0.3190 -1.2432  0.0039
 4408TIP3   OH234638   2.330   4.462   5.465  0.5825 -0.0804 -0.3843
 4408TIP3    H134639   2.424   4.448   5.469  0.7723  0.9790 -0.9218
 4408TIP3    H234640   2.316   4.544   5.512 -0.0499 -0.1337 -0.4772
 4409TIP3   OH234641   6.184   4.366   4.126  0.4474 -0.6166 -0.1085
 4409TIP3    H134642   6.261   4.309   4.119 -0.4461 -1.8383 -0.0324
 4409TIP3    H234643   6.110   4.306   4.135 -0.2555  0.5775  2.5650
 4410TIP3   OH234644   0.190   5.449   3.183 -0.6506 -0.5925 -0.0772
 4410TIP3    H134645   0.185   5.535   3.225 -1.3617 -0.1231 -1.1218
 4410TIP3    H234646   0.104   5.410   3.197 -0.3615 -1.1071  0.3137
 4411TIP3   OH234647   3.354   4.474  13.908  0.0498  0.1239  0.3238
 4411TIP3    H134648   3.344   4.504  13.818  0.1631 -0.1045  0.2323
 4411TIP3    H234649   3.412   4.397  13.900 -2.3093 -1.6928  0.2610
 4412TIP3   OH234650   0.543   5.476  16.606  0.2182  0.3937 -0.2158
 4412TIP3    H134651   0.507   5.527  16.533  0.1626 -1.1570 -1.3047
 4412TIP3    H234652   0.545   5.536  16.680 -0.3972  1.7878 -1.3263
 4413TIP3   OH234653   0.744   0.091  13.393  0.2379  0.0365 -0.6161
 4413TIP3    H134654   0.764   0.014  13.340  0.5218 -0.3155 -0.0028
 4413TIP3    H234655   0.786   0.163  13.345 -1.6251  0.1248 -2.1965
 4414TIP3   OH234656   6.295   5.015  11.128  0.5623 -0.3017  0.0914
 4414TIP3    H134657   6.349   4.996  11.052 -0.3914 -1.9307 -0.1972
 4414TIP3    H234658   6.218   5.060  11.093 -0.1538 -1.5727  0.0072
 4415TIP3   OH234659   3.607   3.560  14.798  0.1189  0.2350  0.2740
 4415TIP3    H134660   3.617   3.650  14.829 -0.0384  0.8965 -1.5272
 4415TIP3    H234661   3.565   3.568  14.712  1.0996 -1.4752 -0.4050
 4416TIP3   OH234662   0.192   2.080  12.163 -0.0791  0.4034 -0.5352
 4416TIP3    H134663   0.285   2.070  12.182  0.0540  0.9753 -0.8686
 4416TIP3    H234664   0.189   2.107  12.071 -0.4464  2.4251  0.0469
 4417TIP3   OH234665   2.802   3.395   0.080  0.1399  0.3234 -0.1289
 4417TIP3    H134666   2.726   3.345   0.109  0.2357  1.1999  1.6841
 4417TIP3    H234667   2.872   3.370   0.140  0.4603  1.8597  0.1539
 4418TIP3   OH234668   2.437   3.525   1.058  0.4138 -0.2536  0.4613
 4418TIP3    H134669   2.371   3.487   0.999  0.6460  1.2362 -0.7759
 4418TIP3    H234670   2.427   3.619   1.047  3.3160 -0.0160 -0.3592
 4419TIP3   OH234671   3.654   4.711   3.035 -0.1849 -0.8537 -0.2417
 4419TIP3    H134672   3.596   4.767   2.982  0.1840 -0.9565 -0.7593
 4419TIP3    H234673   3.683   4.768   3.106 -0.3622 -0.5899 -0.3756
 4420TIP3   OH234674   1.577   0.473   4.735 -0.7589  0.0621 -0.4275
 4420TIP3    H134675   1.634   0.496   4.809 -1.0444  2.0974 -0.8072
 4420TIP3    H234676   1.493   0.514   4.756 -0.5363  1.5937 -2.3606
 4421TIP3   OH234677   6.227   5.993  15.345 -0.2929 -0.2165  0.1473
 4421TIP3    H134678   6.318   6.011  15.368 -0.8296  0.9626  1.4328
 4421TIP3    H234679   6.197   5.931  15.412 -1.0408  1.0600  1.0297
 4422TIP3   OH234680   2.439   3.283   2.140 -0.6338  0.6073 -0.1200
 4422TIP3    H134681   2.482   3.338   2.075 -0.6947  1.9589  0.9724
 4422TIP3    H234682   2.506   3.219   2.166  0.6603  2.4870  1.3293
 4423TIP3   OH234683   0.153   4.438  13.012  0.5599  0.0350  0.0410
 4423TIP3    H134684   0.166   4.381  12.937 -0.0737 -0.2349  0.1360
 4423TIP3    H234685   0.147   4.526  12.975 -0.2212 -0.1482 -0.2617
 4424TIP3   OH234686   0.666   0.448   4.176 -0.4132 -0.6274 -0.6322
 4424TIP3    H134687   0.576   0.421   4.191  0.5397 -4.0979 -0.7233
 4424TIP3    H234688   0.662   0.544   4.170 -3.7472 -0.5605  1.4163
 4425TIP3   OH234689   0.614   0.095   1.094  0.3270 -0.0735  0.4946
 4425TIP3    H134690   0.545   0.079   1.158 -0.3669  0.2625 -0.1538
 4425TIP3    H234691   0.681   0.145   1.141 -0.4401  0.6670  0.8033
 4426TIP3   OH234692   1.143   5.589   3.467 -0.9885  0.0891  0.6488
 4426TIP3    H134693   1.172   5.645   3.395 -0.1224 -1.9709 -0.6596
 4426TIP3    H234694   1.047   5.594   3.463 -0.9209  1.4834  0.5652
 4427TIP3   OH234695   2.822   4.101  13.369 -0.2382 -0.1194  0.3048
 4427TIP3    H134696   2.916   4.115  13.375 -0.1588 -0.6972  0.4062
 4427TIP3    H234697   2.812   4.009  13.345 -0.7949 -0.4424  1.6790
 4428TIP3   OH234698   1.255   5.510  11.608  0.4785  0.1297  0.5527
 4428TIP3    H134699   1.195   5.500  11.534  0.4845 -1.2536  0.7289
 4428TIP3    H234700   1.329   5.454  11.587  1.3323  1.1756  0.7403
 4429TIP3   OH234701   5.929   4.578   0.786 -0.3100 -0.0357 -0.5802
 4429TIP3    H134702   5.864   4.563   0.716 -0.9866  0.7329 -0.1279
 4429TIP3    H234703   5.983   4.499   0.785 -1.9575 -1.2085 -0.2129
 4430TIP3   OH234704   1.535   6.212  14.028  0.4777 -0.2775 -0.7563
 4430TIP3    H134705   1.472   6.146  14.057  1.4610 -0.8461  0.1217
 4430TIP3    H234706   1.539   6.200  13.933  0.4977 -1.3623 -0.6265
 4431TIP3   OH234707   1.241   1.523  15.039 -0.7215 -0.0992  0.1507
 4431TIP3    H134708   1.316   1.534  15.098 -1.3332 -0.2058  0.9498
 4431TIP3    H234709   1.175   1.584  15.072 -0.4967  0.9949 -1.3781
 4432TIP3   OH234710   0.006   0.108   1.241  1.0313  0.2374  1.0673
 4432TIP3    H134711   0.031   0.064   1.322 -0.6488 -0.6645  1.1141
 4432TIP3    H234712   0.029   0.046   1.172  1.4044  0.5287  0.9280
 4433TIP3   OH234713   4.446   1.249   3.432 -0.1030 -0.2841  0.1208
 4433TIP3    H134714   4.386   1.230   3.504  1.5740 -0.7564  1.4269
 4433TIP3    H234715   4.397   1.226   3.354 -1.3247 -1.4982  1.2063
 4434TIP3   OH234716   5.289   2.058   2.327  0.1747  0.4323  0.0391
 4434TIP3    H134717   5.225   1.989   2.346  0.9004 -0.4263 -0.5698
 4434TIP3    H234718   5.292   2.110   2.407 -0.9372  0.2029  0.2431
 4435TIP3   OH234719   1.592   4.679  15.059  0.3922 -0.1537 -0.8516
 4435TIP3    H134720   1.618   4.761  15.102 -0.9078 -1.3420  2.3455
 4435TIP3    H234721   1.654   4.614  15.092 -0.3661 -1.0278 -1.1320
 4436TIP3   OH234722   6.351   1.632  10.797  0.0549  0.3215  0.4175
 4436TIP3    H134723   6.262   1.609  10.825  0.1894  0.8856  1.3214
 4436TIP3    H234724   6.363   1.722  10.828  1.2960 -0.0846  1.1413
 4437TIP3   OH234725   4.005   5.596  10.505  0.8244  0.0356  0.0953
 4437TIP3    H134726   4.004   5.687  10.476 -1.7800 -0.0419 -0.2081
 4437TIP3    H234727   3.983   5.545  10.427 -1.9406 -0.4969  1.1451
 4438TIP3   OH234728   6.226   3.304  12.418  0.3998 -0.4660  0.3545
 4438TIP3    H134729   6.202   3.267  12.333  3.3881 -1.9348  0.0953
 4438TIP3    H234730   6.193   3.240  12.481  0.6831 -0.8074  0.1610
 4439TIP3   OH234731   5.835   3.896  13.649 -0.1390 -0.1637  0.0677
 4439TIP3    H134732   5.806   3.888  13.740  2.1341  1.3153  0.9850
 4439TIP3    H234733   5.849   3.806  13.619  0.6434 -0.6141  1.7304
 4440TIP3   OH234734   6.156   2.239  12.117  0.3213  0.1935 -0.5989
 4440TIP3    H134735   6.239   2.237  12.071  0.9119 -0.7823  0.4673
 4440TIP3    H234736   6.180   2.259  12.208 -0.5299 -0.8640 -0.1377
 4441TIP3   OH234737   5.853   0.808  14.627 -0.1160  0.6468 -0.3987
 4441TIP3    H134738   5.931   0.864  14.634 -0.2811  0.7843  0.4694
 4441TIP3    H234739   5.818   0.825  14.540  0.3341  1.2520 -0.4584
 4442TIP3   OH234740   0.614   3.734   2.604 -0.1193 -0.3652 -0.7167
 4442TIP3    H134741   0.602   3.723   2.509  0.2483  0.0318 -0.8118
 4442TIP3    H234742   0.708   3.748   2.614 -0.3449  0.9384 -0.4308
 4443TIP3   OH234743   2.153   0.825   0.902  0.0352  0.3682 -0.4262
 4443TIP3    H134744   2.151   0.733   0.926 -0.7335  0.6624  0.6659
 4443TIP3    H234745   2.245   0.850   0.913  0.4727 -0.5523 -1.8800
 4444TIP3   OH234746   3.756   6.501   3.733  0.1150  0.4430 -0.6736
 4444TIP3    H134747   3.740   6.416   3.693 -0.2006  0.5129 -0.6981
 4444TIP3    H234748   3.677   6.518   3.785  0.1385  0.7600 -0.7404
 4445TIP3   OH234749   1.031   6.706   0.579 -0.0047 -0.6843 -0.2809
 4445TIP3    H134750   1.045   6.663   0.663 -0.6934  0.1559  0.2739
 4445TIP3    H234751   0.949   6.754   0.590 -0.2223 -0.7603 -1.5114
 4446TIP3   OH234752   1.046   4.883  12.112 -0.2776  0.1500  0.4986
 4446TIP3    H134753   1.000   4.967  12.113  1.0593  0.9031 -0.1608
 4446TIP3    H234754   1.137   4.906  12.097  0.1817 -1.3969  0.8299
 4447TIP3   OH234755   6.065   1.498   6.300  0.1656  0.2507  0.0544
 4447TIP3    H134756   6.027   1.525   6.384  0.0703 -0.3150  0.1923
 4447TIP3    H234757   5.993   1.456   6.253  0.0797  1.0259 -0.5304
 4448TIP3   OH234758   2.543   0.880   0.530 -0.1157 -0.6345 -0.4293
 4448TIP3    H134759   2.610   0.813   0.544  0.3783 -0.1646 -0.5068
 4448TIP3    H234760   2.546   0.933   0.610  0.4984  0.1561 -0.9769
 4449TIP3   OH234761   3.976   2.536   3.582 -0.4059  0.5905  0.5729
 4449TIP3    H134762   4.049   2.488   3.622  0.9771  0.9914 -1.4046
 4449TIP3    H234763   4.015   2.618   3.552 -1.2875  0.1031 -2.0213
 4450TIP3   OH234764   2.594   0.888   4.309  0.2688  0.3060  0.0231
 4450TIP3    H134765   2.575   0.942   4.386  0.4848  0.2699  0.1016
 4450TIP3    H234766   2.686   0.907   4.290  0.8126 -1.2777  1.0233
 4451TIP3   OH234767   1.305   6.595   5.395  0.2159 -0.0691 -0.6812
 4451TIP3    H134768   1.333   6.504   5.402  0.9438  0.2871  1.2530
 4451TIP3    H234769   1.212   6.594   5.417  0.2468 -0.3351 -0.5713
 4452TIP3   OH234770   5.567   1.526  13.274 -0.9222  0.5511  0.0512
 4452TIP3    H134771   5.529   1.613  13.287  2.0886  1.8524  0.6412
 4452TIP3    H234772   5.596   1.499  13.361  2.7948  1.2442 -0.8996
 4453TIP3   OH234773   4.973   0.248  14.269 -0.6389 -0.0915 -0.5042
 4453TIP3    H134774   5.002   0.288  14.186 -1.6984  1.0919 -0.3326
 4453TIP3    H234775   4.995   0.314  14.335  1.4267 -1.6062  0.3452
 4454TIP3   OH234776   2.483   5.269   3.772  0.8739 -0.0916  0.5357
 4454TIP3    H134777   2.427   5.306   3.840  1.2428 -0.4165  1.0194
 4454TIP3    H234778   2.539   5.341   3.744  2.0203 -0.4169  1.9124
 4455TIP3   OH234779   2.454   6.086  14.512 -0.4671  0.1081  0.0253
 4455TIP3    H134780   2.526   6.115  14.569 -0.1316 -0.7359  0.0460
 4455TIP3    H234781   2.448   6.152  14.444  1.8474 -0.9562 -1.2797
 4456TIP3   OH234782   3.272   1.753   3.052 -0.1616  0.3591  0.5220
 4456TIP3    H134783   3.334   1.755   2.979 -0.0061 -1.7636  0.5524
 4456TIP3    H234784   3.323   1.777   3.129 -0.0414  1.3708  0.1355
 4457TIP3   OH234785   4.454   3.356  14.219 -0.7804  0.2048  0.4804
 4457TIP3    H134786   4.473   3.379  14.310 -0.9501 -1.2634  0.9117
 4457TIP3    H234787   4.418   3.267  14.224  0.0759 -0.2593 -1.1043
 4458TIP3   OH234788   0.664   5.671   5.456 -0.0179 -0.1156  0.4786
 4458TIP3    H134789   0.608   5.705   5.385  0.1786  0.5267  0.6250
 4458TIP3    H234790   0.618   5.593   5.487 -0.7421  0.2932  0.4633
 4459TIP3   OH234791   1.192   3.039  15.243 -0.0907 -0.3360 -0.0576
 4459TIP3    H134792   1.159   3.028  15.154  0.6405  1.5107 -0.5668
 4459TIP3    H234793   1.152   2.966  15.292  0.3078 -1.9896 -2.1000
 4460TIP3   OH234794   4.247   4.101   2.045  0.1386  0.5765 -0.1632
 4460TIP3    H134795   4.260   4.188   2.081  2.6044  0.0568  0.3285
 4460TIP3    H234796   4.255   4.042   2.120 -2.4926 -0.0415 -0.3193
 4461TIP3   OH234797   0.051   2.675   0.131  0.2848 -0.0671 -0.4012
 4461TIP3    H134798   0.013   2.631   0.054 -0.1126  1.8076 -1.3131
 4461TIP3    H234799   0.010   2.631   0.206 -1.2588 -0.2522 -1.3116
 4462TIP3   OH234800   0.928   6.607   2.977 -0.3803  0.2633  0.1380
 4462TIP3    H134801   1.006   6.598   2.922 -0.8807 -0.7341 -0.4306
 4462TIP3    H234802   0.915   6.702   2.986 -0.1140  0.4344 -1.2145
 4463TIP3   OH234803   3.089   2.533   0.994  0.1070 -0.4964 -0.1233
 4463TIP3    H134804   3.131   2.584   0.924  0.4985 -2.5120 -1.3775
 4463TIP3    H234805   3.002   2.514   0.961 -0.3102 -0.0399  0.6729
 4464TIP3   OH234806   2.712   4.359  13.395 -0.1843  0.0589 -0.0957
 4464TIP3    H134807   2.737   4.433  13.340 -2.6793 -0.1037 -1.5666
 4464TIP3    H234808   2.749   4.283  13.350  1.2389  0.2680  0.6917
 4465TIP3   OH234809   1.960   3.002  15.428 -0.2701  0.0451 -0.1063
 4465TIP3    H134810   1.897   2.953  15.374  0.3534  0.0574 -0.8544
 4465TIP3    H234811   1.905   3.054  15.487 -0.9784  0.3828 -1.0415
 4466TIP3   OH234812   1.727   4.697   5.584  0.7567  0.2297 -0.0038
 4466TIP3    H134813   1.683   4.617   5.555  0.0988  0.2941  0.8302
 4466TIP3    H234814   1.754   4.679   5.674  0.8363  0.8554  0.1003
 4467TIP3   OH234815   2.517   6.757   5.138  0.0256 -0.2406  0.0374
 4467TIP3    H134816   2.548   6.672   5.168 -0.3507 -0.3831  0.0247
 4467TIP3    H234817   2.525   6.815   5.214 -2.0137 -0.8745  0.7662
 4468TIP3   OH234818   0.513   0.290  14.976  0.1451  0.7651  0.3360
 4468TIP3    H134819   0.595   0.277  14.929  0.0265  1.5587 -0.1178
 4468TIP3    H234820   0.534   0.356  15.042 -0.5579  2.4408 -1.0398
 4469TIP3   OH234821   0.491   2.490  13.177 -0.1536  0.2788  0.6273
 4469TIP3    H134822   0.498   2.414  13.120  1.9037  1.9298 -1.4401
 4469TIP3    H234823   0.434   2.462  13.248 -1.1936 -2.4722 -1.2191
 4470TIP3   OH234824   5.597   0.684   4.514  0.2697  0.9342  0.1415
 4470TIP3    H134825   5.565   0.674   4.603 -0.6372  0.6304 -0.2174
 4470TIP3    H234826   5.664   0.616   4.505 -1.0392 -0.3567 -0.0466
 4471TIP3   OH234827   6.782   0.347   3.886 -0.7021 -0.1789 -0.3138
 4471TIP3    H134828   6.827   0.387   3.812 -2.2546 -0.8743 -1.6523
 4471TIP3    H234829   6.758   0.259   3.855  1.2659 -1.6203  2.0346
 4472TIP3   OH234830   1.806   5.169   1.570  0.2150 -0.2742 -0.3011
 4472TIP3    H134831   1.746   5.239   1.595 -1.9581 -1.8537 -0.9134
 4472TIP3    H234832   1.764   5.089   1.603  1.2469 -1.5744 -2.0647
 4473TIP3   OH234833   2.799   0.229  13.290 -0.1774 -0.9853  0.1109
 4473TIP3    H134834   2.847   0.176  13.225 -0.4973 -0.5281 -0.5037
 4473TIP3    H234835   2.728   0.172  13.319 -1.2677 -0.4841 -1.4635
 4474TIP3   OH234836   1.635   2.089  12.864 -0.0598  0.0651 -0.1338
 4474TIP3    H134837   1.586   2.062  12.786 -0.7337 -1.4451  0.7891
 4474TIP3    H234838   1.567   2.102  12.930  0.7098 -0.9636  0.8541
 4475TIP3   OH234839   4.387   4.221  14.649 -0.9978  0.2856 -0.3007
 4475TIP3    H134840   4.342   4.304  14.633 -0.6630  0.5958  0.3383
 4475TIP3    H234841   4.453   4.242  14.715 -0.1331 -0.2469 -0.9885
 4476TIP3   OH234842   5.405   5.522  12.369  0.2597 -0.0156  0.1718
 4476TIP3    H134843   5.402   5.570  12.452 -0.2147  2.4961 -1.2505
 4476TIP3    H234844   5.318   5.535  12.331  0.7497 -0.4413 -1.1120
 4477TIP3   OH234845   1.253   5.688  12.291  0.6719  0.0551  0.1891
 4477TIP3    H134846   1.258   5.778  12.326 -0.4705 -0.0750  0.6914
 4477TIP3    H234847   1.317   5.639  12.344 -0.4395  0.0473  1.5464
 4478TIP3   OH234848   3.772   5.759  15.985  0.6134 -0.1035  0.2405
 4478TIP3    H134849   3.847   5.710  16.021  0.8745 -0.9552 -1.4417
 4478TIP3    H234850   3.787   5.760  15.891 -0.5754  1.2933  0.0605
 4479TIP3   OH234851   1.972   1.222   1.782  0.5554 -0.3114 -0.0813
 4479TIP3    H134852   2.035   1.194   1.849  1.0152 -1.8324 -1.1209
 4479TIP3    H234853   1.935   1.303   1.817  1.0613 -0.8707  1.8519
 4480TIP3   OH234854   0.672   4.914   1.300 -0.1496  0.2951  0.3102
 4480TIP3    H134855   0.581   4.896   1.274 -0.4009  1.7713  0.1326
 4480TIP3    H234856   0.715   4.942   1.220 -0.1394  1.8737  0.8578
 4481TIP3   OH234857   5.079   0.130   3.018  0.7230 -0.1793 -0.9261
 4481TIP3    H134858   5.143   0.117   3.088 -0.1973 -2.0330 -0.3746
 4481TIP3    H234859   5.019   0.196   3.052  0.5938 -0.6788 -0.1716
 4482TIP3   OH234860   0.953   0.736   0.783  0.2756  0.2637 -0.2743
 4482TIP3    H134861   0.894   0.807   0.807 -0.0584  0.1650 -0.8121
 4482TIP3    H234862   1.010   0.773   0.715  1.4668  0.6560  0.9147
 4483TIP3   OH234863   5.675   3.989  14.285  0.6033 -0.0007  0.8920
 4483TIP3    H134864   5.682   3.907  14.236 -1.3636 -0.1869  0.8789
 4483TIP3    H234865   5.617   4.044  14.231 -0.1097  0.4619  2.1157
 4484TIP3   OH234866   2.903   0.711   3.727  0.0056  0.0369 -0.1295
 4484TIP3    H134867   2.881   0.622   3.756 -1.4259  0.0144 -1.2265
 4484TIP3    H234868   2.933   0.700   3.637  2.1165  0.3917  0.5151
 4485TIP3   OH234869   2.071   4.852  13.354 -0.0239 -0.6801  0.2698
 4485TIP3    H134870   2.025   4.771  13.332 -1.6407  0.6399 -1.3549
 4485TIP3    H234871   2.096   4.889  13.270  2.4118 -0.4257  1.0740
 4486TIP3   OH234872   1.917   1.959   4.656 -0.2515 -0.1447 -0.2120
 4486TIP3    H134873   1.823   1.974   4.656 -0.2927 -0.3360  1.1182
 4486TIP3    H234874   1.954   2.044   4.632 -0.7642 -0.1199 -0.9303
 4487TIP3   OH234875   3.127   2.878  10.959 -0.0199  0.0039  0.2634
 4487TIP3    H134876   3.095   2.803  11.010  1.8378 -1.3819 -0.5728
 4487TIP3    H234877   3.209   2.848  10.921  0.7430  2.4733 -0.1087
 4488TIP3   OH234878   6.595   3.035  13.204  0.4558  0.0803 -0.1710
 4488TIP3    H134879   6.566   2.955  13.161  0.1283 -0.2221  0.5954
 4488TIP3    H234880   6.553   3.105  13.155 -0.4206 -0.2899  0.0414
 4489TIP3   OH234881   6.264   3.281  11.495  0.3496  0.1501 -0.2830
 4489TIP3    H134882   6.250   3.186  11.490 -0.6056  0.3497 -1.5693
 4489TIP3    H234883   6.246   3.313  11.407 -0.0763  1.6309  0.3167
 4490TIP3   OH234884   2.334   5.318  17.023 -0.2869 -0.2736  0.0620
 4490TIP3    H134885   2.257   5.267  16.997 -0.1758 -0.5895  0.3551
 4490TIP3    H234886   2.408   5.268  16.989 -0.2403  0.4699 -0.9855
 4491TIP3   OH234887   4.419   0.371   4.079  0.5600 -0.0222 -0.1413
 4491TIP3    H134888   4.482   0.347   4.147 -2.4193 -2.6766  1.8407
 4491TIP3    H234889   4.403   0.465   4.093  1.6343 -0.0445  1.4025
 4492TIP3   OH234890   1.881   6.726   1.697  0.2322 -0.0709  0.2195
 4492TIP3    H134891   1.823   6.655   1.723 -0.7718  0.2298 -1.1687
 4492TIP3    H234892   1.969   6.689   1.706 -0.2528 -1.2887  0.0721
 4493TIP3   OH234893   4.125   2.845  16.339  0.0726  0.0090 -0.2440
 4493TIP3    H134894   4.033   2.863  16.317 -0.0675  0.3300  0.5530
 4493TIP3    H234895   4.120   2.770  16.399 -0.0340  2.5400  3.0859
 4494TIP3   OH234896   0.664   1.658   1.165 -0.2898  0.2514 -0.3411
 4494TIP3    H134897   0.727   1.593   1.195 -1.0693 -0.6404 -0.6024
 4494TIP3    H234898   0.644   1.710   1.243 -1.4998 -1.3803  0.4769
 4495TIP3   OH234899   5.412   5.090   5.306 -0.2741  0.3405 -0.0279
 4495TIP3    H134900   5.448   5.076   5.394 -0.8742 -0.1937  0.1368
 4495TIP3    H234901   5.399   5.185   5.301  0.7969  0.5015  0.0440
 4496TIP3   OH234902   5.725   4.253   2.469  0.2879 -0.2412  0.4239
 4496TIP3    H134903   5.643   4.220   2.507 -0.9966  0.3869 -1.7288
 4496TIP3    H234904   5.759   4.179   2.418  0.6785 -0.2502  0.6917
 4497TIP3   OH234905   5.756   1.911  16.222  0.0881 -0.4700 -0.8406
 4497TIP3    H134906   5.789   1.890  16.135  2.7884 -0.5368  0.1636
 4497TIP3    H234907   5.828   1.891  16.282 -1.8130 -0.7276  1.4752
 4498TIP3   OH234908   4.764   2.312  13.782 -0.1531 -0.2747  0.3136
 4498TIP3    H134909   4.829   2.255  13.823  0.8346 -0.4474 -1.5020
 4498TIP3    H234910   4.762   2.390  13.837 -0.1961 -1.2747  1.7659
 4499TIP3   OH234911   4.510   5.336  16.503  1.0022 -0.1290  0.0480
 4499TIP3    H134912   4.529   5.429  16.517  1.1525  0.1759 -2.0447
 4499TIP3    H234913   4.572   5.309  16.435 -2.8117 -0.2751 -3.5796
 4500TIP3   OH234914   5.315   0.775  13.600 -0.4705 -0.1070  0.4787
 4500TIP3    H134915   5.258   0.719  13.548  0.4161 -1.7139  1.2010
 4500TIP3    H234916   5.358   0.715  13.661  1.2880  1.2047  0.5572
 4501TIP3   OH234917   1.243   4.371  13.015 -0.2503  0.8309 -0.2389
 4501TIP3    H134918   1.266   4.330  13.098  0.7369  0.2083 -0.8229
 4501TIP3    H234919   1.186   4.308  12.972  1.7803 -0.2475 -1.4197
 4502TIP3   OH234920   2.115   6.639  14.167  0.0228 -0.7245 -0.0553
 4502TIP3    H134921   2.088   6.564  14.220 -0.6032 -0.3123  0.2139
 4502TIP3    H234922   2.044   6.702  14.176  0.1156 -0.4612 -1.0160
 4503TIP3   OH234923   1.968   3.353   3.702  0.2795 -0.1109 -0.1550
 4503TIP3    H134924   2.019   3.275   3.725 -0.2162 -0.6409 -0.8275
 4503TIP3    H234925   1.941   3.390   3.786  3.2837  1.2232  0.3187
 4504TIP3   OH234926   0.714   4.782   4.967  0.2185  0.0142 -0.1283
 4504TIP3    H134927   0.788   4.779   5.028 -0.6440 -2.3256  0.8585
 4504TIP3    H234928   0.662   4.856   4.997  1.6990  1.1497 -0.2976
 4505TIP3   OH234929   5.221   2.423   3.152 -0.2229 -0.0344  0.5558
 4505TIP3    H134930   5.126   2.419   3.155 -0.1974 -0.9708  0.3925
 4505TIP3    H234931   5.244   2.507   3.192 -1.2109  1.0621 -1.1305
 4506TIP3   OH234932   4.268   3.238  14.601  0.0866 -0.0792 -0.0162
 4506TIP3    H134933   4.314   3.196  14.673 -0.3087  2.0034  1.4864
 4506TIP3    H234934   4.243   3.324  14.634 -2.4554 -0.0764 -1.7248
 4507TIP3   OH234935   3.850   2.021  13.571  0.0418  0.2631  0.2582
 4507TIP3    H134936   3.818   2.061  13.490  0.6632  0.8340  0.2902
 4507TIP3    H234937   3.778   2.032  13.633  0.1450  1.1904  0.2177
 4508TIP3   OH234938   6.442   0.588   0.021  0.2091 -0.1718  0.2264
 4508TIP3    H134939   6.484   0.631  -0.053  0.3909 -0.4995  0.1403
 4508TIP3    H234940   6.457   0.495   0.007  0.3091 -0.2333  0.7114
 4509TIP3   OH234941   2.966   4.857  14.456  0.5168  0.3248 -0.0016
 4509TIP3    H134942   3.049   4.865  14.409  0.8368  0.2923  0.5505
 4509TIP3    H234943   2.981   4.902  14.539  0.2911 -0.5074  0.5033
 4510TIP3   OH234944   1.491   5.464  16.356 -0.3407 -0.0955 -0.6137
 4510TIP3    H134945   1.448   5.541  16.394  0.0903 -0.7614  1.2691
 4510TIP3    H234946   1.525   5.416  16.431 -1.0743 -2.4311 -1.7158
 4511TIP3   OH234947   5.403   4.939   4.263  0.3150 -0.7585  0.0400
 4511TIP3    H134948   5.439   4.910   4.180  0.5862  0.5012 -0.2882
 4511TIP3    H234949   5.474   4.989   4.304  0.1582 -1.2967  0.9890
 4512TIP3   OH234950   1.423   5.217  14.571  0.3128  0.0186 -0.3399
 4512TIP3    H134951   1.344   5.266  14.596  0.4866  0.3718 -0.4801
 4512TIP3    H234952   1.389   5.139  14.526 -0.0161 -0.7530  1.1783
 4513TIP3   OH234953   1.959   6.754   1.415  0.1530  0.1730  0.2509
 4513TIP3    H134954   1.891   6.699   1.455  0.7416  0.6530  1.9406
 4513TIP3    H234955   1.958   6.730   1.322 -1.0364 -1.1702  0.6012
 4514TIP3   OH234956   5.276   1.578  12.444 -0.0944 -0.5232  0.5126
 4514TIP3    H134957   5.242   1.667  12.444  1.4975  0.1206  2.0949
 4514TIP3    H234958   5.339   1.576  12.372 -0.6187 -0.5744  0.0521
 4515TIP3   OH234959   2.709   6.329  13.932  0.1820  0.1977 -0.5890
 4515TIP3    H134960   2.748   6.388  13.867  0.0606  0.6372 -0.2592
 4515TIP3    H234961   2.650   6.273  13.881 -0.1101  0.7167 -0.8240
 4516TIP3   OH234962   5.246   1.597   4.670 -0.3823 -0.4681  0.5599
 4516TIP3    H134963   5.339   1.582   4.651 -0.7379 -0.8906 -0.9269
 4516TIP3    H234964   5.238   1.580   4.764  1.3696  1.2978  1.0790
 4517TIP3   OH234965   1.019   6.030   2.709 -0.0165  0.0147  0.8274
 4517TIP3    H134966   1.088   6.086   2.673 -1.6643  0.9524 -0.9539
 4517TIP3    H234967   0.962   6.090   2.757 -1.8509 -0.0670 -1.1804
 4518TIP3   OH234968   5.411   5.796  10.796 -0.2982  0.2614  0.5339
 4518TIP3    H134969   5.358   5.872  10.773 -1.1192 -0.0312  1.4264
 4518TIP3    H234970   5.463   5.824  10.871  0.3390  0.3348  0.0758
 4519TIP3   OH234971   2.080   0.626  17.195  0.5213  0.3345 -0.2600
 4519TIP3    H134972   2.081   0.577  17.277  0.9612  0.7981  0.0215
 4519TIP3    H234973   1.988   0.653  17.185  0.4001 -0.0168 -0.0948
 4520TIP3   OH234974   4.652   2.311  16.541 -0.1237  0.6454 -0.4856
 4520TIP3    H134975   4.612   2.335  16.624 -0.3718 -0.9103 -0.1502
 4520TIP3    H234976   4.707   2.387  16.518 -1.1954  1.6951  0.3431
 4521TIP3   OH234977   5.631   1.187   4.261  0.6182 -0.3202 -0.1918
 4521TIP3    H134978   5.697   1.255   4.274 -0.4589  0.7081  0.0248
 4521TIP3    H234979   5.670   1.108   4.296  1.1470  0.5958  1.3496
 4522TIP3   OH234980   4.132   6.609  11.702 -0.1686 -0.0605  0.4095
 4522TIP3    H134981   4.190   6.548  11.654  0.7434 -1.1416  2.8189
 4522TIP3    H234982   4.044   6.587  11.671  0.4163 -0.4825 -1.0242
 4523TIP3   OH234983   3.568   0.202  15.424  0.0023  0.4177  0.4851
 4523TIP3    H134984   3.576   0.298  15.427  3.0889  0.1668  1.6627
 4523TIP3    H234985   3.539   0.178  15.512 -2.5373  0.3418 -0.3153
 4524TIP3   OH234986   2.496   4.322   3.399  0.1477 -0.0749 -0.1029
 4524TIP3    H134987   2.557   4.249   3.395 -0.5179 -0.7661  1.6863
 4524TIP3    H234988   2.417   4.290   3.354  0.6093  0.3332 -1.2205
 4525TIP3   OH234989   4.741   0.623  13.737  0.4361  0.6686 -0.3093
 4525TIP3    H134990   4.727   0.713  13.766 -1.9850  0.3904 -0.5002
 4525TIP3    H234991   4.730   0.626  13.642 -0.6074  0.0409 -0.2247
 4526TIP3   OH234992   6.546   0.485  13.625  0.2595  0.1944 -0.0773
 4526TIP3    H134993   6.546   0.420  13.695  0.7411  1.5136  1.1927
 4526TIP3    H234994   6.634   0.524  13.630  0.4007  0.0924 -1.6295
 4527TIP3   OH234995   0.102   5.111   5.255  0.0713  0.5134 -0.3624
 4527TIP3    H134996   0.053   5.083   5.332 -1.1228 -0.4861 -1.4782
 4527TIP3    H234997   0.192   5.084   5.273 -0.2956 -0.2102  0.4215
 4528TIP3   OH234998   1.456   0.029   2.977  0.2024 -0.0434  0.2736
 4528TIP3    H134999   1.546   0.059   2.984 -0.4468  1.7941  1.1314
 4528TIP3    H235000   1.446  -0.036   3.046  1.0132 -0.6617 -0.1855
 4529TIP3   OH235001   3.382   5.559   4.794 -0.9368  0.9496 -0.1212
 4529TIP3    H135002   3.397   5.608   4.713  0.8127  1.0904  0.2653
 4529TIP3    H235003   3.366   5.469   4.765  1.6458  0.5773 -0.5746
 4530TIP3   OH235004   5.961   6.040  14.499 -0.4360 -0.4161 -0.0544
 4530TIP3    H135005   6.005   6.107  14.550 -0.9171 -0.2609  0.1564
 4530TIP3    H235006   5.966   6.071  14.408 -1.0825  0.1456  0.0967
 4531TIP3   OH235007   5.572   3.978   2.246 -0.2318 -1.0321  0.1094
 4531TIP3    H135008   5.528   4.044   2.300 -0.2043 -2.3695  1.8196
 4531TIP3    H235009   5.657   3.967   2.288 -0.0306 -1.7553 -0.4973
 4532TIP3   OH235010   4.496   2.231   0.143 -0.0861 -0.3020 -0.2755
 4532TIP3    H135011   4.452   2.160   0.097  2.0011 -2.2322  0.6533
 4532TIP3    H235012   4.471   2.220   0.235  1.8712 -1.1008  0.1807
 4533TIP3   OH235013   0.585   4.033  15.798 -0.1095 -0.3251 -0.0901
 4533TIP3    H135014   0.516   3.966  15.791  1.7656 -2.5144  1.6773
 4533TIP3    H235015   0.566   4.080  15.879  0.0082 -0.4035 -0.0154
 4534TIP3   OH235016   5.221   1.189   4.052  0.6166 -0.1655  0.3309
 4534TIP3    H135017   5.304   1.225   4.083  1.6302 -1.3107 -1.0370
 4534TIP3    H235018   5.208   1.229   3.966  0.0452 -0.4433  0.2894
 4535TIP3   OH235019   2.532   1.343   3.025 -0.2938 -0.7096 -0.6601
 4535TIP3    H135020   2.478   1.313   2.953  0.1246  0.7044 -1.5741
 4535TIP3    H235021   2.609   1.286   3.023 -0.5680 -1.0663 -0.9380
 4536TIP3   OH235022   1.199   2.672  15.094  0.1051 -0.2098 -0.1289
 4536TIP3    H135023   1.294   2.680  15.103  0.1888 -1.3625  0.0925
 4536TIP3    H235024   1.170   2.760  15.069  1.1801  0.2444  0.1842
 4537TIP3   OH235025   4.687   2.427  11.703 -0.1278 -0.4430  0.4025
 4537TIP3    H135026   4.679   2.403  11.795 -0.7284 -0.8961  0.2389
 4537TIP3    H235027   4.702   2.344  11.658  2.5057  0.0160  0.3262
 4538TIP3   OH235028   2.282   3.464   3.649  0.1155  0.0707 -0.1392
 4538TIP3    H135029   2.328   3.389   3.610  0.3975  1.5045 -2.6995
 4538TIP3    H235030   2.322   3.475   3.735  2.6354 -0.4857 -1.1973
 4539TIP3   OH235031   3.374   5.249  13.788  0.1356  0.3726  0.1634
 4539TIP3    H135032   3.392   5.194  13.864  0.5928 -0.2887 -0.4138
 4539TIP3    H235033   3.287   5.286  13.806 -1.3816 -2.5896 -0.5859
 4540TIP3   OH235034   1.247   0.140  14.126 -0.2470  0.0319 -0.0039
 4540TIP3    H135035   1.168   0.100  14.163  0.5570 -1.4785  0.1343
 4540TIP3    H235036   1.251   0.227  14.166 -1.6450 -0.0032  0.2475
 4541TIP3   OH235037   0.037   4.387   2.767  0.2228  0.0264 -0.1726
 4541TIP3    H135038   0.094   4.396   2.843  0.4803 -2.3768 -0.0426
 4541TIP3    H235039  -0.050   4.414   2.798  0.0471 -2.2045  1.3925
 4542TIP3   OH235040   0.439   1.890   0.239 -0.1853 -0.2516  0.1848
 4542TIP3    H135041   0.383   1.813   0.248 -1.2246  0.5990  1.1859
 4542TIP3    H235042   0.459   1.895   0.146 -0.4835 -1.4617  0.0451
 4543TIP3   OH235043   1.963   4.160  13.318 -0.0254  0.4424 -0.9273
 4543TIP3    H135044   1.970   4.253  13.300 -0.5701  0.5252 -0.7141
 4543TIP3    H235045   2.034   4.142  13.380 -1.1015  1.0889  0.5077
 4544TIP3   OH235046   1.536   2.880  13.546 -0.5446  0.2495  0.7084
 4544TIP3    H135047   1.605   2.845  13.489 -0.5764  1.4906 -0.1184
 4544TIP3    H235048   1.552   2.974  13.547  0.0263  0.1653  3.5199
 4545TIP3   OH235049   0.571   2.443  14.558 -0.1929 -0.2692  0.0202
 4545TIP3    H135050   0.542   2.393  14.634  0.7756  0.5807  0.9681
 4545TIP3    H235051   0.583   2.378  14.489  2.1169 -1.5015  1.5441
 4546TIP3   OH235052   6.394   1.095   4.850 -0.5880 -0.3763  0.0587
 4546TIP3    H135053   6.448   1.090   4.929 -0.4364 -1.1006 -0.0929
 4546TIP3    H235054   6.458   1.103   4.779 -0.7537  3.2409  0.2113
 4547TIP3   OH235055   4.651   4.155   5.757 -0.1946 -0.0396  0.0444
 4547TIP3    H135056   4.700   4.177   5.678  0.8071 -0.7419  0.4612
 4547TIP3    H235057   4.562   4.186   5.740  0.2361  0.6438 -0.9850
 4548TIP3   OH235058   5.840   2.236  12.145  0.3293 -0.2121 -0.3606
 4548TIP3    H135059   5.932   2.256  12.158 -0.0568 -0.3543  3.0084
 4548TIP3    H235060   5.836   2.140  12.144  0.2231 -0.2064 -0.5915
 4549TIP3   OH235061   1.713   3.824   2.666  0.2581 -0.6965 -0.1014
 4549TIP3    H135062   1.716   3.847   2.758 -0.6591  0.2257 -0.2946
 4549TIP3    H235063   1.788   3.766   2.653  0.6255 -0.5024  1.1272
 4550TIP3   OH235064   0.223   0.816   1.709  0.3270  0.4126  0.3746
 4550TIP3    H135065   0.225   0.794   1.803 -2.3505 -0.4269  0.2950
 4550TIP3    H235066   0.243   0.909   1.706  2.0763  0.1167  1.6179
 4551TIP3   OH235067   4.857   6.099   0.633 -0.0943 -0.6017  0.6623
 4551TIP3    H135068   4.846   6.142   0.717 -0.2689  0.8317 -0.0806
 4551TIP3    H235069   4.942   6.056   0.639  1.3298  2.1001  0.4717
 4552TIP3   OH235070   4.399   1.952  16.917  0.1905 -0.5031  0.0003
 4552TIP3    H135071   4.487   1.956  16.955 -0.6469  1.6334  1.7927
 4552TIP3    H235072   4.413   1.917  16.829  2.5460 -2.4709  1.0952
 4553TIP3   OH235073   0.302   1.483   3.544  0.6979 -0.0914  0.5745
 4553TIP3    H135074   0.387   1.508   3.580  1.0395  0.2308 -0.4339
 4553TIP3    H235075   0.299   1.526   3.458 -0.6663  0.2724  0.7927
 4554TIP3   OH235076   3.669   3.677   3.828  0.0878 -0.1063  0.2232
 4554TIP3    H135077   3.726   3.750   3.855  1.0658 -2.1092  3.9980
 4554TIP3    H235078   3.584   3.698   3.866 -0.4669  0.5207 -1.3194
 4555TIP3   OH235079   4.000   6.372   0.978 -0.1177 -0.2057 -0.1688
 4555TIP3    H135080   4.065   6.439   0.958  0.6802 -0.6712  0.7595
 4555TIP3    H235081   4.038   6.291   0.944  0.0242 -0.5562  0.7922
 4556TIP3   OH235082   3.574   2.249  14.768  0.5621 -0.5769 -0.4044
 4556TIP3    H135083   3.643   2.215  14.710 -0.1787 -3.0342  0.1064
 4556TIP3    H235084   3.621   2.270  14.849  1.3275  1.3354 -1.3194
 4557TIP3   OH235085   4.261   2.549   3.853 -0.0087 -0.4068  0.1888
 4557TIP3    H135086   4.224   2.505   3.777 -1.2040 -1.1655  1.1858
 4557TIP3    H235087   4.352   2.567   3.829 -0.8348  0.9032 -2.0430
 4558TIP3   OH235088   2.065   3.159  14.657 -0.1342  0.2169 -0.5279
 4558TIP3    H135089   2.089   3.138  14.747 -0.3565  0.7629 -0.3388
 4558TIP3    H235090   2.044   3.075  14.617  3.2864 -0.4413 -1.0678
 4559TIP3   OH235091   2.109   3.108   5.589  0.0857 -0.5375  0.0578
 4559TIP3    H135092   2.112   3.062   5.673 -0.7479 -1.2960 -0.3149
 4559TIP3    H235093   2.197   3.097   5.553  0.2255 -0.8587  0.4849
 4560TIP3   OH235094   1.204   0.946  15.591  0.4553 -0.0720 -0.0581
 4560TIP3    H135095   1.229   0.980  15.676  0.0010 -0.4029  0.2105
 4560TIP3    H235096   1.273   0.884  15.568  0.2255 -0.4940  0.3800
 4561TIP3   OH235097   0.698   4.532   4.571  0.2559  0.4155 -0.0603
 4561TIP3    H135098   0.628   4.580   4.614  0.8287  0.7901  0.4585
 4561TIP3    H235099   0.706   4.451   4.621 -0.2388  0.0798 -0.5139
 4562TIP3   OH235100   2.353   5.739  12.284  0.3157 -0.2985  0.3251
 4562TIP3    H135101   2.403   5.677  12.338  1.9297  1.5888  1.0414
 4562TIP3    H235102   2.294   5.783  12.346  1.4050  1.1002  0.3893
 4563TIP3   OH235103   1.780   2.928   3.002 -0.0706  0.8051  0.4786
 4563TIP3    H135104   1.687   2.924   3.022 -0.5100 -0.9556 -1.7199
 4563TIP3    H235105   1.789   3.004   2.945 -0.1936  0.8739  0.5507
 4564TIP3   OH235106   3.862   4.406  16.080  0.0916  0.1580  0.3103
 4564TIP3    H135107   3.830   4.484  16.035 -0.7687 -0.8949 -0.9475
 4564TIP3    H235108   3.858   4.429  16.173  0.4383  1.8131 -0.0697
 4565TIP3   OH235109   4.681   2.458   3.582  0.0414 -0.3867  0.1067
 4565TIP3    H135110   4.689   2.429   3.491 -0.9862  1.6822 -0.6979
 4565TIP3    H235111   4.727   2.542   3.585  0.4098 -0.6209  1.6024
 4566TIP3   OH235112   4.014   2.718   2.759  0.1428 -0.3690  0.2145
 4566TIP3    H135113   3.958   2.791   2.786 -1.0304 -1.4621  0.7885
 4566TIP3    H235114   3.988   2.645   2.816  2.3016 -0.8504  0.6333
 4567TIP3   OH235115   0.926   6.406   0.705  0.2654 -0.3393  0.7298
 4567TIP3    H135116   0.855   6.362   0.658  0.5728 -0.0811  0.0186
 4567TIP3    H235117   0.883   6.481   0.747  0.1527 -0.0322  0.0893
 4568TIP3   OH235118   5.617   4.751  17.205 -0.3374 -0.7217 -0.2696
 4568TIP3    H135119   5.696   4.708  17.237 -0.7124 -1.3638 -0.2118
 4568TIP3    H235120   5.626   4.842  17.235  0.8262 -0.5515 -1.0637
 4569TIP3   OH235121   4.737   3.095   1.124 -0.2191  0.2174 -0.1872
 4569TIP3    H135122   4.810   3.136   1.171 -0.2505 -0.2226  0.2414
 4569TIP3    H235123   4.691   3.043   1.190 -0.5094 -0.0687 -0.6114
 4570TIP3   OH235124   0.820   6.756   0.252 -0.1429 -0.0470 -0.5064
 4570TIP3    H135125   0.883   6.711   0.195 -0.0079 -1.2911  0.5965
 4570TIP3    H235126   0.757   6.688   0.277 -0.4890  0.6029  0.4098
 4571TIP3   OH235127   4.457   0.159  16.134  0.3415 -0.3388  0.2632
 4571TIP3    H135128   4.531   0.121  16.087 -0.6452  0.0016 -1.6214
 4571TIP3    H235129   4.457   0.251  16.108 -1.3651 -0.5656 -0.5788
 4572TIP3   OH235130   6.099   4.628   2.204 -0.1245 -0.0544  0.4407
 4572TIP3    H135131   6.021   4.607   2.255 -0.3614  0.1523  0.1684
 4572TIP3    H235132   6.069   4.694   2.142  0.5928  1.0202  1.2300
 4573TIP3   OH235133   3.415   0.915   6.467  0.0570  0.0369  0.2782
 4573TIP3    H135134   3.504   0.947   6.453  0.2308 -0.7423 -0.4860
 4573TIP3    H235135   3.423   0.819   6.459 -0.5354 -0.1674  1.9320
 4574TIP3   OH235136   5.576   0.872  14.433  0.0524  0.2016 -0.0365
 4574TIP3    H135137   5.606   0.822  14.357  1.5006  0.4965  0.3137
 4574TIP3    H235138   5.579   0.963  14.405  0.0795  0.2765  0.2038
 4575TIP3   OH235139   1.923   1.552   4.649  0.4922  0.6695 -0.0490
 4575TIP3    H135140   1.903   1.644   4.667  1.9092  0.7163  1.4490
 4575TIP3    H235141   1.944   1.515   4.735  1.9578 -0.5320 -0.8955
 4576TIP3   OH235142   3.228   2.314   1.403  0.3196 -0.3992  0.9271
 4576TIP3    H135143   3.169   2.374   1.357 -0.2506 -2.0844 -0.6205
 4576TIP3    H235144   3.315   2.347   1.383  0.0557 -0.7883 -0.9570
 4577TIP3   OH235145   3.419   5.795   4.251 -0.1855 -0.0746 -0.0123
 4577TIP3    H135146   3.412   5.820   4.159 -3.0512 -1.2879 -0.1806
 4577TIP3    H235147   3.411   5.700   4.250  0.6836 -0.1728  1.4416
 4578TIP3   OH235148   4.759   0.076   6.474 -0.2223 -0.1380 -0.5385
 4578TIP3    H135149   4.820   0.009   6.506 -0.8452 -0.5759 -0.2560
 4578TIP3    H235150   4.800   0.159   6.498  0.2736 -0.4326 -0.3649
 4579TIP3   OH235151   6.233   3.440   3.732 -0.4169  0.1592 -0.1787
 4579TIP3    H135152   6.158   3.473   3.684 -2.5327 -0.5272  2.5635
 4579TIP3    H235153   6.221   3.472   3.821  2.1135 -0.6570  0.5044
 4580TIP3   OH235154   1.968   5.865   2.242 -0.0138  0.0511  0.3276
 4580TIP3    H135155   1.951   5.771   2.248  0.7262 -0.2775 -2.1024
 4580TIP3    H235156   2.039   5.881   2.305  1.3819 -1.4471 -0.8240
 4581TIP3   OH235157   2.087   1.808  12.959  0.0464  0.5737 -0.6050
 4581TIP3    H135158   2.156   1.744  12.944 -0.3620 -0.2852  1.1017
 4581TIP3    H235159   2.093   1.830  13.052 -1.9459  0.5156 -0.4308
 4582TIP3   OH235160   4.579   6.629  16.666  0.0360 -0.2622 -0.3235
 4582TIP3    H135161   4.658   6.576  16.667 -1.0793 -1.9434  0.9127
 4582TIP3    H235162   4.527   6.594  16.594  0.1560  0.4637 -0.7704
 4583TIP3   OH235163   3.200   1.851   3.470  0.2413  0.0587  0.1873
 4583TIP3    H135164   3.222   1.915   3.538 -0.7983 -0.1048  0.6873
 4583TIP3    H235165   3.126   1.802   3.505 -1.6478  1.3241 -1.8720
 4584TIP3   OH235166   3.889   5.051  14.668  0.1554 -0.1175  0.6536
 4584TIP3    H135167   3.844   5.104  14.602  2.1842 -0.4702 -1.0646
 4584TIP3    H235168   3.818   5.009  14.718 -1.4248 -0.5527 -1.8684
 4585TIP3   OH235169   3.874   3.694   2.133  0.4280  0.4151 -0.0562
 4585TIP3    H135170   3.919   3.686   2.217 -0.1292  0.2915  0.2324
 4585TIP3    H235171   3.838   3.783   2.133 -0.8418 -0.0879  0.4770
 4586TIP3   OH235172   4.618   4.208   3.756 -0.0695 -0.2810  0.2879
 4586TIP3    H135173   4.708   4.183   3.736 -0.8535 -1.7257 -1.5059
 4586TIP3    H235174   4.577   4.128   3.789 -1.2506 -0.1525 -0.8208
 4587TIP3   OH235175   5.480   0.837   2.045 -0.2166 -0.1879 -0.1541
 4587TIP3    H135176   5.481   0.744   2.019 -1.0409 -0.5261  1.0139
 4587TIP3    H235177   5.433   0.838   2.128 -1.3866  1.4544 -0.8149
 4588TIP3   OH235178   3.783   0.172   1.263  0.5817 -0.8527 -0.1956
 4588TIP3    H135179   3.850   0.215   1.211  1.0413 -1.5119 -0.1529
 4588TIP3    H235180   3.702   0.217   1.240  0.9874 -0.2667 -0.4831
 4589TIP3   OH235181   4.578   2.224   1.594  0.1492  0.1915  0.2428
 4589TIP3    H135182   4.506   2.241   1.533  1.1011  0.0721 -0.9446
 4589TIP3    H235183   4.578   2.299   1.653  0.2252  1.1146 -0.9108
 4590TIP3   OH235184   1.554   4.384   0.648 -0.7912  0.0056  0.4321
 4590TIP3    H135185   1.577   4.312   0.589 -1.2115 -0.1842  0.4972
 4590TIP3    H235186   1.631   4.440   0.650  0.7523 -2.0922  2.8363
 4591TIP3   OH235187   3.260   1.956   4.918 -0.1908  0.6676 -0.2278
 4591TIP3    H135188   3.320   1.990   4.983  3.4667 -0.4481 -2.8318
 4591TIP3    H235189   3.275   1.861   4.919  0.1795  0.6648 -2.8666
 4592TIP3   OH235190   2.345   4.634  11.010 -0.0208 -0.2636 -0.0322
 4592TIP3    H135191   2.377   4.593  11.090 -0.0219 -1.9923 -0.9117
 4592TIP3    H235192   2.323   4.561  10.952 -2.0595  0.9420 -0.8173
 4593TIP3   OH235193   3.680   5.682  13.757 -0.0748 -0.8093  0.0771
 4593TIP3    H135194   3.596   5.639  13.742  1.0888 -3.3285  0.6267
 4593TIP3    H235195   3.686   5.693  13.852  0.3540 -0.9159  0.0654
 4594TIP3   OH235196   6.539   1.339   5.319  0.3301  0.2316 -0.1593
 4594TIP3    H135197   6.619   1.389   5.304  0.3441 -0.0181 -0.9242
 4594TIP3    H235198   6.566   1.248   5.311 -0.0352  0.1472 -0.4290
 4595TIP3   OH235199   5.771   0.810  11.577 -0.3616 -0.3033  0.2361
 4595TIP3    H135200   5.686   0.780  11.546  0.1851 -0.2239 -1.4124
 4595TIP3    H235201   5.762   0.905  11.586 -0.0524 -0.1180 -1.2873
 4596TIP3   OH235202   1.677   2.400  13.736  0.0360  0.5989 -0.5272
 4596TIP3    H135203   1.662   2.407  13.830 -1.8715 -0.8607 -0.6993
 4596TIP3    H235204   1.644   2.482  13.700 -0.7694  0.4575 -0.1082
 4597TIP3   OH235205   3.557   5.324   1.549 -0.3929  0.2342 -0.0185
 4597TIP3    H135206   3.570   5.307   1.456 -0.0140 -0.0876  0.0889
 4597TIP3    H235207   3.627   5.385   1.572 -0.1311 -0.1350  0.1781
 4598TIP3   OH235208   5.970   1.334  13.211 -0.1936 -0.1264 -0.0320
 4598TIP3    H135209   5.907   1.353  13.141  0.9204  0.3437 -0.9206
 4598TIP3    H235210   5.976   1.238  13.213 -1.6199 -0.2126  0.6868
 4599TIP3   OH235211   0.002   5.866  16.324 -0.1230 -0.0160 -0.1602
 4599TIP3    H135212   0.029   5.946  16.278  0.1607 -0.9863 -1.7131
 4599TIP3    H235213  -0.094   5.868  16.321 -0.1029 -0.4164 -1.4339
 4600TIP3   OH235214   4.291   1.431  11.777  0.0886 -0.1187  0.0819
 4600TIP3    H135215   4.214   1.375  11.785  0.2171 -0.2140  0.6484
 4600TIP3    H235216   4.359   1.375  11.740 -0.3307  0.1643 -1.1308
 4601TIP3   OH235217   3.219   2.237   4.482  0.5748  0.3215  0.0475
 4601TIP3    H135218   3.267   2.237   4.565  2.4982 -2.8305 -0.9518
 4601TIP3    H235219   3.208   2.144   4.462  0.1553  1.0416 -3.2202
 4602TIP3   OH235220   6.367   3.451  13.238  0.6022 -0.3187 -0.0095
 4602TIP3    H135221   6.359   3.523  13.301  0.0916  1.0690 -1.6190
 4602TIP3    H235222   6.312   3.381  13.274 -1.1498  1.1202  0.1985
 4603TIP3   OH235223   2.075   0.089   2.784 -0.3811  0.2153 -0.4573
 4603TIP3    H135224   2.097   0.143   2.708 -1.7966 -1.0993 -1.8180
 4603TIP3    H235225   2.153   0.094   2.840  0.9665  0.5996 -2.3253
 4604TIP3   OH235226   6.695   3.767  16.697  0.1094 -0.1471  0.5950
 4604TIP3    H135227   6.629   3.811  16.643 -0.3884 -1.1185  0.4164
 4604TIP3    H235228   6.776   3.776  16.646  0.0361  0.6379  0.6017
 4605TIP3   OH235229   0.614   1.882  15.613  0.6792 -0.2642 -0.2615
 4605TIP3    H135230   0.599   1.930  15.695 -1.0621 -2.4632  0.7578
 4605TIP3    H235231   0.543   1.910  15.555  0.7648 -0.1803 -0.3246
 4606TIP3   OH235232   2.987   2.815  13.355 -0.3024  0.7712  0.5268
 4606TIP3    H135233   3.001   2.868  13.276 -1.2790 -1.0616 -0.9365
 4606TIP3    H235234   3.031   2.732  13.335 -1.0464  0.0927  1.6708
 4607TIP3   OH235235   5.735   3.956  16.208 -0.3080  0.0717  0.9754
 4607TIP3    H135236   5.761   3.878  16.159 -2.9532  0.7070 -1.5651
 4607TIP3    H235237   5.758   4.029  16.150 -4.0726  0.8247  0.3520
 4608TIP3   OH235238   2.085   3.937   5.795  0.9305  0.7340  0.3309
 4608TIP3    H135239   2.072   3.844   5.776  0.1066  0.8981  0.0895
 4608TIP3    H235240   2.090   3.942   5.891 -0.4795  0.6268  0.4164
 4609TIP3   OH235241   4.891   1.723   3.904  0.1305 -0.6172 -0.4208
 4609TIP3    H135242   4.825   1.772   3.856 -0.6716 -0.5371  0.7289
 4609TIP3    H235243   4.970   1.729   3.851 -0.4011  0.5308 -1.0921
 4610TIP3   OH235244   0.301   6.162  15.888  0.0597  0.6176 -0.2385
 4610TIP3    H135245   0.293   6.244  15.937  1.7897  0.7103 -0.0910
 4610TIP3    H235246   0.360   6.183  15.816  1.1857 -0.7155  0.2745
 4611TIP3   OH235247   6.180   2.468   5.394  0.1875 -0.4710  0.1113
 4611TIP3    H135248   6.251   2.516   5.438  0.4664 -2.5690  2.0568
 4611TIP3    H235249   6.211   2.455   5.305  1.1236  0.8503  0.2211
 4612TIP3   OH235250   0.879   5.266  16.218 -0.2362 -0.2214  0.5257
 4612TIP3    H135251   0.840   5.349  16.194  2.0216  0.5738 -0.5193
 4612TIP3    H235252   0.927   5.284  16.300 -0.8436 -0.8258  1.0261
 4613TIP3   OH235253   6.151   5.464  15.013 -0.2577  0.4886  0.2786
 4613TIP3    H135254   6.119   5.381  14.976  2.0548 -0.6628  0.7631
 4613TIP3    H235255   6.219   5.492  14.951 -1.3110  2.2547 -0.0952
 4614TIP3   OH235256   0.586   0.983   3.393 -0.7421 -0.5511  0.3456
 4614TIP3    H135257   0.645   1.001   3.466 -0.7413  0.2546  0.1517
 4614TIP3    H235258   0.500   0.970   3.434 -0.3531 -2.2690  0.6779
 4615TIP3   OH235259   2.187   4.879   4.411  0.2513  0.3762 -0.7404
 4615TIP3    H135260   2.162   4.971   4.412  0.1095  0.3840 -3.2556
 4615TIP3    H235261   2.181   4.853   4.320  4.5191 -0.9782 -0.7387
 4616TIP3   OH235262   5.827   5.885   3.428  0.0761  0.4019 -0.2798
 4616TIP3    H135263   5.830   5.813   3.364  2.6725 -0.4467  0.7383
 4616TIP3    H235264   5.869   5.959   3.383  1.5431 -0.0796  0.2739
 4617TIP3   OH235265   0.214   2.972   1.862  0.2356  0.1642  0.9292
 4617TIP3    H135266   0.173   3.017   1.789 -0.8089 -1.5547  0.4368
 4617TIP3    H235267   0.279   3.035   1.896  0.8353  0.9172 -1.5338
 4618TIP3   OH235268   5.496   2.488  12.713  0.4985 -0.5114  0.0563
 4618TIP3    H135269   5.582   2.446  12.710  0.5366 -0.3755 -1.2161
 4618TIP3    H235270   5.473   2.502  12.621  0.0494  1.3628  0.4233
 4619TIP3   OH235271   5.241   0.109  11.351 -0.0952 -0.6509 -0.5753
 4619TIP3    H135272   5.151   0.079  11.341 -0.3262  0.1078 -0.7918
 4619TIP3    H235273   5.273   0.118  11.261 -0.3609  0.7380 -0.5410
 4620TIP3   OH235274   1.058   1.823   1.515 -0.2920  0.0215 -0.6874
 4620TIP3    H135275   1.128   1.874   1.475 -1.5547  1.7870 -0.7042
 4620TIP3    H235276   1.048   1.860   1.603 -1.5212  0.1373 -0.8544
 4621TIP3   OH235277   3.154   1.180   4.858  0.0478 -0.2670 -0.0054
 4621TIP3    H135278   3.094   1.253   4.838 -0.4386 -0.8224 -0.6206
 4621TIP3    H235279   3.128   1.111   4.796  0.6459 -0.8836  0.4309
 4622TIP3   OH235280   0.900   4.878   3.226  0.2765 -0.0984 -0.3490
 4622TIP3    H135281   0.939   4.949   3.176  0.9516  0.1470  0.5139
 4622TIP3    H235282   0.974   4.830   3.262 -0.1878  0.0573  0.8677
 4623TIP3   OH235283   3.708   6.501   6.354  0.9144 -0.2743 -0.4986
 4623TIP3    H135284   3.745   6.415   6.334  2.0043  0.0831 -0.0775
 4623TIP3    H235285   3.761   6.562   6.302  1.6421  0.3473  0.9554
 4624TIP3   OH235286   1.474   1.799  14.831  0.1849  0.2739 -0.3933
 4624TIP3    H135287   1.428   1.735  14.777 -0.6648 -1.1509  1.9517
 4624TIP3    H235288   1.409   1.868  14.846 -0.6405 -0.8974  1.4764
 4625TIP3   OH235289   0.167   2.504  10.662  0.5242  0.4264 -0.3679
 4625TIP3    H135290   0.202   2.526  10.575 -0.1450 -1.1654 -1.0502
 4625TIP3    H235291   0.118   2.583  10.688  1.7610  1.3870 -0.8766
 4626TIP3   OH235292   3.021   4.399   3.693  0.4206  0.5196  0.0064
 4626TIP3    H135293   2.967   4.466   3.652  0.5067  0.4991 -0.1407
 4626TIP3    H235294   3.067   4.445   3.764 -1.2858  0.1097  1.4023
 4627TIP3   OH235295   4.166   0.444   3.153  0.3029 -0.1412  0.0935
 4627TIP3    H135296   4.083   0.451   3.108 -0.6767 -1.3140  1.6646
 4627TIP3    H235297   4.147   0.473   3.243  1.7606  0.3239  0.2681
 4628TIP3   OH235298   5.859   6.625   1.819 -0.0233  0.3234 -0.3321
 4628TIP3    H135299   5.922   6.553   1.813  0.7388  0.7427  2.1301
 4628TIP3    H235300   5.791   6.602   1.755  0.6782 -2.1056 -0.2731
 4629TIP3   OH235301   1.912   3.407  15.328  0.1574  0.6255  1.0583
 4629TIP3    H135302   1.931   3.497  15.301  2.0903  0.1079  0.6469
 4629TIP3    H235303   1.817   3.399  15.318  0.1245  2.2162 -0.1172
 4630TIP3   OH235304   0.341   5.948  11.594  0.5361 -0.1455 -0.5077
 4630TIP3    H135305   0.273   6.007  11.625  0.8916 -0.1479  0.2702
 4630TIP3    H235306   0.293   5.874  11.556  0.1140 -0.6934  1.0790
 4631TIP3   OH235307   3.061   6.159   3.731 -0.0572  0.3337  0.2972
 4631TIP3    H135308   3.148   6.125   3.752  0.0100  0.1627 -0.2448
 4631TIP3    H235309   3.072   6.200   3.645 -0.8257 -0.9217 -0.4167
 4632TIP3   OH235310   4.768   0.918  16.537 -0.1013  0.0385 -0.2343
 4632TIP3    H135311   4.691   0.952  16.493 -0.6099 -0.0695  0.5614
 4632TIP3    H235312   4.842   0.951  16.485 -0.7096 -0.8758 -1.7179
 4633TIP3   OH235313   3.733   1.102   5.862  0.3418 -0.0522  0.5712
 4633TIP3    H135314   3.710   1.054   5.783  1.0946 -0.7630  0.7747
 4633TIP3    H235315   3.805   1.159   5.836  0.3291  0.0010  0.6518
 4634TIP3   OH235316   4.689   2.995   4.725  0.5470  0.3508  0.0680
 4634TIP3    H135317   4.620   2.934   4.697  0.8019  0.0179  0.1688
 4634TIP3    H235318   4.757   2.940   4.763 -0.0559  0.8406  1.9310
 4635TIP3   OH235319   0.943   5.453  17.104  0.0378  0.1482  0.1018
 4635TIP3    H135320   0.991   5.482  17.027 -0.6750  0.6722 -0.1449
 4635TIP3    H235321   0.919   5.533  17.149 -1.2740 -0.0782 -0.1777
 4636TIP3   OH235322   3.588   1.462  15.820 -0.1309  0.2371 -0.0673
 4636TIP3    H135323   3.599   1.378  15.864 -1.6870 -0.1247 -0.3559
 4636TIP3    H235324   3.635   1.452  15.737 -2.0423 -1.0662 -1.0144
 4637TIP3   OH235325   4.493   0.367  15.209 -0.4958  0.4299 -0.1449
 4637TIP3    H135326   4.503   0.343  15.301 -0.3611 -0.4794 -0.3910
 4637TIP3    H235327   4.512   0.461  15.206  2.2512 -0.0557  0.3265
 4638TIP3   OH235328   5.803   4.775  11.604 -0.2342  0.8110  0.1557
 4638TIP3    H135329   5.732   4.802  11.661 -0.2992  0.9109  0.0270
 4638TIP3    H235330   5.825   4.686  11.633  1.9261  2.0309  2.5276
 4639TIP3   OH235331   0.894   1.543  16.726 -0.2657 -0.2937 -0.0001
 4639TIP3    H135332   0.901   1.543  16.821 -3.2486 -0.9789  0.2611
 4639TIP3    H235333   0.977   1.579  16.696  1.0064 -0.7305  2.8297
 4640TIP3   OH235334   3.843   2.869   5.813 -0.3479  0.0811 -0.2629
 4640TIP3    H135335   3.876   2.944   5.863  0.5036 -0.2841 -0.2668
 4640TIP3    H235336   3.749   2.884   5.806 -0.5282  0.0233  1.6912
 4641TIP3   OH235337   1.192   1.727   5.549 -0.4375 -0.0223  0.1271
 4641TIP3    H135338   1.119   1.706   5.607  0.1869  1.0716  1.2999
 4641TIP3    H235339   1.246   1.789   5.597 -0.2915  1.4757 -1.8938
 4642TIP3   OH235340   2.271   1.404   1.462  0.2996  0.5399  0.0034
 4642TIP3    H135341   2.294   1.395   1.554  0.0926 -1.5448 -0.1287
 4642TIP3    H235342   2.183   1.366   1.455  0.9222 -0.7090 -1.3074
 4643TIP3   OH235343   5.225   0.395  12.545  0.3984 -0.5187 -0.0659
 4643TIP3    H135344   5.289   0.328  12.522  1.2168 -0.8463  3.0237
 4643TIP3    H235345   5.141   0.349  12.547  0.6524 -0.9753 -0.0526
 4644TIP3   OH235346   2.382   2.094  12.572 -0.3011  0.1919  0.3243
 4644TIP3    H135347   2.428   2.039  12.508  1.4532 -0.0921  1.7803
 4644TIP3    H235348   2.352   2.033  12.639 -0.5816  0.7089  0.6717
 4645TIP3   OH235349   1.505   5.400  16.645  0.3170 -0.3042 -0.0197
 4645TIP3    H135350   1.443   5.359  16.705  2.2762 -1.1721  1.4801
 4645TIP3    H235351   1.508   5.492  16.672 -1.6550  0.1816 -1.3060
 4646TIP3   OH235352   1.201   5.372  14.039  0.4901  0.5700 -0.0436
 4646TIP3    H135353   1.216   5.349  14.130  1.5506  0.7927 -0.1634
 4646TIP3    H235354   1.128   5.315  14.012 -1.1216  1.8487  1.4736
 4647TIP3   OH235355   4.047   0.581   4.943 -0.4941  0.3590 -0.0244
 4647TIP3    H135356   4.080   0.549   5.027 -1.4544  2.0057  1.0223
 4647TIP3    H235357   4.012   0.504   4.899  0.1028 -0.5310  1.0501
 4648TIP3   OH235358   4.685   5.921   0.464  0.2386  0.3996 -0.4396
 4648TIP3    H135359   4.733   5.983   0.519  0.5398  0.0399 -0.2905
 4648TIP3    H235360   4.748   5.896   0.396  0.2507 -0.0410 -0.2692
 4649TIP3   OH235361   0.749   0.147  14.505 -0.0184 -0.1704 -0.0877
 4649TIP3    H135362   0.682   0.214  14.521  0.4537  0.1085  0.7613
 4649TIP3    H235363   0.733   0.081  14.573  0.3764 -0.2513 -0.0729
 4650TIP3   OH235364   4.374   4.742  13.808 -0.5674 -0.0070 -0.4579
 4650TIP3    H135365   4.433   4.787  13.869 -1.9279  1.1911  0.0152
 4650TIP3    H235366   4.289   4.740  13.854 -1.2169 -0.5070 -1.6559
 4651TIP3   OH235367   4.054   0.140   0.555 -0.4769  0.0076  0.1798
 4651TIP3    H135368   3.989   0.090   0.505 -0.7886  0.0206  0.5750
 4651TIP3    H235369   4.133   0.135   0.501  0.0968 -2.6839  1.1753
 4652TIP3   OH235370   5.531   5.524   2.180 -0.4656 -0.3504 -0.0029
 4652TIP3    H135371   5.442   5.502   2.208 -0.3012  0.4508  1.2370
 4652TIP3    H235372   5.527   5.618   2.160  0.3293 -0.0616  1.1037
 4653TIP3   OH235373   1.460   5.137  12.158 -0.5037  0.8776 -0.2828
 4653TIP3    H135374   1.481   5.050  12.190 -1.3905  0.4903 -0.7364
 4653TIP3    H235375   1.509   5.197  12.214  2.6775 -0.0387 -1.9823
 4654TIP3   OH235376   3.915   3.167   1.921 -0.1600  0.4845 -0.3205
 4654TIP3    H135377   3.862   3.201   1.849  0.3610 -0.6378 -1.2582
 4654TIP3    H235378   3.980   3.234   1.937 -1.7622  1.8258  0.7555
 4655TIP3   OH235379   3.594   3.621  15.952  0.0300 -0.2772  0.0428
 4655TIP3    H135380   3.551   3.645  15.870  0.6517 -0.8323 -0.4449
 4655TIP3    H235381   3.562   3.534  15.972  0.1940 -0.3072  0.1787
 4656TIP3   OH235382   0.378   5.143  13.971 -0.4656 -0.2392 -0.0309
 4656TIP3    H135383   0.374   5.085  14.047 -2.5270 -0.6937 -0.4532
 4656TIP3    H235384   0.463   5.125  13.931  0.0873 -0.9247  1.4216
 4657TIP3   OH235385   4.249   0.331   1.313  0.6161  0.0335  0.1286
 4657TIP3    H135386   4.194   0.299   1.242  1.6137  1.5336 -1.3640
 4657TIP3    H235387   4.319   0.267   1.321  1.4795  0.7400 -1.4680
 4658TIP3   OH235388   0.949   6.011   1.291 -0.7136  0.1647 -0.8294
 4658TIP3    H135389   0.992   5.944   1.344  0.7018  0.6359 -1.3631
 4658TIP3    H235390   0.972   6.094   1.333 -1.2274  0.4210 -1.0358
 4659TIP3   OH235391   2.333   0.108   0.461  0.1343 -0.1910 -0.2578
 4659TIP3    H135392   2.279   0.101   0.383 -0.1487  2.4401 -0.3394
 4659TIP3    H235393   2.387   0.186   0.447  0.7161 -0.1827  1.7784
 4660TIP3   OH235394   6.156   0.055  14.843  0.0033  0.8818  0.6836
 4660TIP3    H135395   6.147   0.099  14.927 -1.5215 -0.8899  1.4831
 4660TIP3    H235396   6.081   0.087  14.792  0.0568  0.7924  0.5468
 4661TIP3   OH235397   0.327   0.321  15.374 -0.1523 -0.2507  0.5704
 4661TIP3    H135398   0.406   0.299  15.324 -1.3679 -0.4051 -1.3254
 4661TIP3    H235399   0.289   0.237  15.397 -0.8377 -0.1688 -0.2600
 4662TIP3   OH235400   1.919   5.782  13.299  0.4599 -0.4541 -0.2274
 4662TIP3    H135401   1.963   5.778  13.215 -1.2120 -0.2531 -1.1432
 4662TIP3    H235402   1.925   5.693  13.334  2.0917 -0.2845 -0.0494
 4663TIP3   OH235403   5.169   6.209   4.306  0.1641 -0.5114 -0.3461
 4663TIP3    H135404   5.247   6.239   4.258  0.0944  0.3981  0.0937
 4663TIP3    H235405   5.097   6.258   4.266 -0.2593 -1.6880 -1.0597
 4664TIP3   OH235406   4.173   2.423   6.468 -0.9105  0.4808 -0.5809
 4664TIP3    H135407   4.114   2.478   6.416  2.1061  3.3259 -1.1788
 4664TIP3    H235408   4.239   2.394   6.405 -0.9229 -1.6274  0.3430
 4665TIP3   OH235409   0.330   6.646  11.531  0.1352 -0.0331  0.6349
 4665TIP3    H135410   0.368   6.719  11.482 -0.6929 -0.8935 -1.3359
 4665TIP3    H235411   0.398   6.620  11.593  2.0025 -0.2918 -1.4953
 4666TIP3   OH235412   0.533   3.415   4.052 -0.0047  0.3989 -0.4163
 4666TIP3    H135413   0.476   3.419   4.129 -1.5296 -1.1121 -1.4452
 4666TIP3    H235414   0.621   3.409   4.088 -0.4864  2.5223  1.1960
 4667TIP3   OH235415   2.863   3.181   0.928 -0.1654  0.2185  0.5222
 4667TIP3    H135416   2.930   3.241   0.961 -0.5822  2.0443 -1.8203
 4667TIP3    H235417   2.782   3.232   0.927 -0.8044 -0.7781 -0.3179
 4668TIP3   OH235418   6.398   6.427  11.786  0.2168 -0.0477  0.1122
 4668TIP3    H135419   6.379   6.340  11.752  1.9855 -0.6833  0.6558
 4668TIP3    H235420   6.425   6.478  11.709  4.1594 -1.4686  0.4063
 4669TIP3   OH235421   6.705   6.667  13.220  0.0195 -0.3068  0.4810
 4669TIP3    H135422   6.710   6.600  13.152  0.7675 -0.7741  0.9864
 4669TIP3    H235423   6.731   6.748  13.177 -0.5253 -0.4136 -0.0440
 4670TIP3   OH235424   1.496   2.584   3.302  0.1194 -0.0828 -0.2456
 4670TIP3    H135425   1.567   2.633   3.261  0.2843 -1.8537 -2.1532
 4670TIP3    H235426   1.425   2.588   3.238 -1.8437  2.3756  1.9895
 4671TIP3   OH235427   2.449   5.265   6.038 -0.0003 -1.2575 -0.0965
 4671TIP3    H135428   2.377   5.227   5.988 -0.9468 -0.7408  0.8652
 4671TIP3    H235429   2.446   5.221   6.123 -0.4658  0.2244  0.6671
 4672TIP3   OH235430   2.412   6.214  11.641  0.3651  0.8141 -0.3580
 4672TIP3    H135431   2.349   6.252  11.702 -0.7440  1.6936 -1.9961
 4672TIP3    H235432   2.414   6.121  11.662 -0.6028  0.9762  0.4599
 4673TIP3   OH235433   1.330   5.868   5.736 -0.4139  0.1431 -0.1324
 4673TIP3    H135434   1.419   5.833   5.748 -0.4728  0.4088  1.1628
 4673TIP3    H235435   1.340   5.940   5.674  0.1467 -0.3919 -0.6582
 4674TIP3   OH235436   0.025   4.328  12.706 -0.3800  0.2270 -0.3542
 4674TIP3    H135437  -0.032   4.396  12.670  0.8919  0.3303 -2.2378
 4674TIP3    H235438  -0.025   4.291  12.779 -1.8640  1.9019 -0.4871
 4675TIP3   OH235439   4.659   4.919   2.145  0.7601  0.3211  0.0301
 4675TIP3    H135440   4.650   4.948   2.235 -0.7085  2.2750 -0.7279
 4675TIP3    H235441   4.578   4.873   2.126  0.4686  1.1621 -0.7541
 4676TIP3   OH235442   5.647   5.070   4.321  0.3548  0.5376 -0.2917
 4676TIP3    H135443   5.656   5.139   4.388 -0.4118  0.3791 -0.0199
 4676TIP3    H235444   5.651   5.117   4.238 -0.1779  0.9205 -0.1053
 4677TIP3   OH235445   1.147   5.766  15.500  0.0715 -0.3835 -0.5093
 4677TIP3    H135446   1.176   5.852  15.530  0.2369 -0.7004  0.2350
 4677TIP3    H235447   1.217   5.735  15.443  1.2206 -1.1531  1.2898
 4678TIP3   OH235448   2.436   1.358   2.181 -0.3403  0.0131 -0.0312
 4678TIP3    H135449   2.519   1.347   2.227 -0.0022 -1.0069 -0.8568
 4678TIP3    H235450   2.449   1.434   2.126  0.0036 -0.0653 -0.0592
 4679TIP3   OH235451   6.674   2.617  13.733  0.6185  0.1463 -0.0009
 4679TIP3    H135452   6.706   2.538  13.775 -1.9269 -1.0639 -0.2585
 4679TIP3    H235453   6.624   2.663  13.802 -2.5104 -1.2305 -1.2370
 4680TIP3   OH235454   4.798   4.019   0.043  0.8964  0.4400  0.2153
 4680TIP3    H135455   4.789   4.003  -0.051  0.8031  0.8748  0.1479
 4680TIP3    H235456   4.787   4.114   0.052  2.3611  0.5892  0.4982
 4681TIP3   OH235457   5.575   0.017  10.867  0.2556 -0.6756 -0.2940
 4681TIP3    H135458   5.494   0.040  10.822  0.1686 -1.9465 -0.8179
 4681TIP3    H235459   5.574  -0.079  10.870  2.4285 -0.7567 -1.5719
 4682TIP3   OH235460   5.344   1.692  11.194  0.8606 -0.3092 -0.7990
 4682TIP3    H135461   5.302   1.774  11.217  0.3844 -0.7487 -0.0849
 4682TIP3    H235462   5.434   1.702  11.225  0.5278 -0.4507  0.2081
 4683TIP3   OH235463   1.647   5.127  15.376  0.3692 -0.2653  0.3154
 4683TIP3    H135464   1.582   5.170  15.321 -0.0930  0.8244  1.6925
 4683TIP3    H235465   1.712   5.194  15.393  1.5210 -1.1533 -0.4729
 4684TIP3   OH235466   6.500   4.391   2.503  0.3774 -0.2928  0.2783
 4684TIP3    H135467   6.570   4.431   2.556  1.9980 -1.4621 -0.9341
 4684TIP3    H235468   6.470   4.317   2.556  0.3049 -0.0136  0.6344
 4685TIP3   OH235469   0.054   3.483  14.747 -0.0023 -0.3771 -0.9195
 4685TIP3    H135470   0.093   3.561  14.707  1.4660  0.5563  2.1801
 4685TIP3    H235471  -0.008   3.518  14.812 -1.8287 -1.8452 -1.8099
 4686TIP3   OH235472   5.342   1.155   1.352  0.3951 -0.1158  0.3580
 4686TIP3    H135473   5.434   1.161   1.378  0.5516 -0.4510 -0.1253
 4686TIP3    H235474   5.306   1.086   1.408  0.6833 -0.6998 -0.1789
 4687TIP3   OH235475   1.404   3.717   5.759 -0.2808 -0.3685  0.1879
 4687TIP3    H135476   1.317   3.726   5.719 -1.1301 -1.7235  1.6906
 4687TIP3    H235477   1.406   3.627   5.791  0.9234  0.2732  1.9463
 4688TIP3   OH235478   3.901   6.304   6.008 -0.1672  0.3126 -0.5293
 4688TIP3    H135479   3.807   6.321   6.010 -0.2660 -0.3124  0.2035
 4688TIP3    H235480   3.932   6.327   6.095  0.5206  1.3989 -1.0513
 4689TIP3   OH235481   5.692   5.874   0.261  0.1008 -0.5843  0.0479
 4689TIP3    H135482   5.680   5.817   0.337 -0.6776 -0.3407  0.1184
 4689TIP3    H235483   5.705   5.961   0.298 -1.2939 -0.2921 -0.1023
 4690TIP3   OH235484   2.446   4.888   0.945 -0.5457  0.1988  0.1604
 4690TIP3    H135485   2.448   4.891   0.850 -0.4717  1.4760  0.1910
 4690TIP3    H235486   2.443   4.795   0.966 -3.3956 -0.0759 -1.1565
 4691TIP3   OH235487   3.194   5.181   2.950 -0.8609 -1.0915  0.0767
 4691TIP3    H135488   3.229   5.115   3.010  2.2491  1.4506  1.2325
 4691TIP3    H235489   3.179   5.134   2.868  2.3863 -3.0247  0.5087
 4692TIP3   OH235490   0.531   3.162  11.786 -0.0511 -0.5142  0.3298
 4692TIP3    H135491   0.593   3.093  11.763  1.4381  0.5707  0.9763
 4692TIP3    H235492   0.471   3.121  11.847  1.4413 -1.0022  1.5119
 4693TIP3   OH235493   5.065   3.187  17.164  0.2552  1.3744 -0.9840
 4693TIP3    H135494   5.062   3.162  17.256  0.8847  0.6830 -1.1523
 4693TIP3    H235495   5.129   3.258  17.161  0.2890  1.3476 -0.9044
 4694TIP3   OH235496   3.357   2.962  15.544 -0.4172 -0.0516 -0.2866
 4694TIP3    H135497   3.445   2.973  15.578 -0.5320 -0.4345  0.1365
 4694TIP3    H235498   3.342   2.868  15.545 -1.0311  0.0426  0.1582
 4695TIP3   OH235499   0.409   1.064   5.344 -0.2365  0.0630 -0.2242
 4695TIP3    H135500   0.481   1.029   5.397  0.0796 -0.5779 -1.0734
 4695TIP3    H235501   0.334   1.009   5.369 -0.1881  0.0410 -0.1244
 4696TIP3   OH235502   4.309   4.138  13.146  0.1306  0.0989 -0.3834
 4696TIP3    H135503   4.405   4.136  13.147  0.1174 -1.2017  2.4065
 4696TIP3    H235504   4.284   4.070  13.083  1.0621 -2.4222  1.8725
 4697TIP3   OH235505   1.082   4.291   6.264  0.4205  0.3403  0.0515
 4697TIP3    H135506   1.031   4.213   6.286  0.3144  0.7085  1.1112
 4697TIP3    H235507   1.165   4.280   6.310  1.0267  0.1001 -1.0765
 4698TIP3   OH235508   4.867   0.719  13.239 -0.2117  0.2724 -0.3159
 4698TIP3    H135509   4.946   0.719  13.185 -1.2054  1.6791 -1.8212
 4698TIP3    H235510   4.796   0.698  13.178 -0.8223 -2.6980  1.3423
 4699TIP3   OH235511   2.239   2.381  13.703 -0.3304  1.2050 -0.0625
 4699TIP3    H135512   2.209   2.424  13.623 -0.3606 -0.2250 -0.8247
 4699TIP3    H235513   2.266   2.294  13.675 -0.6063  0.5934  1.5371
 4700TIP3   OH235514   5.873   3.046  16.769 -0.0097  0.4439  0.0671
 4700TIP3    H135515   5.815   3.008  16.835  0.1331  0.7844  0.3931
 4700TIP3    H235516   5.887   3.136  16.798 -1.5668  1.2183 -1.5127
 4701TIP3   OH235517   2.440   6.155  11.273 -0.4283  0.0740 -0.2519
 4701TIP3    H135518   2.391   6.228  11.236 -0.1157  0.0209 -0.7754
 4701TIP3    H235519   2.440   6.089  11.204 -0.5360 -0.3419  0.1443
 4702TIP3   OH235520   5.946   4.066   2.050  0.4962  0.3132  0.2446
 4702TIP3    H135521   5.863   4.039   2.090 -0.1224  0.1725 -1.1055
 4702TIP3    H235522   5.966   4.151   2.090 -1.0931  1.0790 -0.5633
 4703TIP3   OH235523   5.464   0.279  14.702  0.0724  0.7647  0.1229
 4703TIP3    H135524   5.406   0.262  14.628 -2.2149  0.9300  1.8133
 4703TIP3    H235525   5.439   0.367  14.732  0.9718  0.6947  1.0864
 4704TIP3   OH235526   5.136   6.338   3.638  0.3196 -0.6276  0.2501
 4704TIP3    H135527   5.224   6.376   3.630 -0.3587  1.2219  1.2172
 4704TIP3    H235528   5.127   6.283   3.560  2.0152 -0.1872 -0.2901
 4705TIP3   OH235529   1.252   0.367  11.267 -0.0328 -0.2366 -1.0463
 4705TIP3    H135530   1.342   0.399  11.266  0.0288 -0.3006  0.5451
 4705TIP3    H235531   1.211   0.408  11.191  0.8823  1.1768 -0.8022
 4706TIP3   OH235532   4.803   5.749   3.736 -0.1811  0.9551 -0.3982
 4706TIP3    H135533   4.844   5.801   3.805  2.1862 -1.2951 -0.0055
 4706TIP3    H235534   4.872   5.737   3.670 -1.4957  0.5777 -1.7407
 4707TIP3   OH235535   6.190   0.211   3.996 -0.4995 -0.6941  0.6562
 4707TIP3    H135536   6.210   0.131   4.045 -2.4132 -0.0722  2.5604
 4707TIP3    H235537   6.254   0.274   4.027 -0.7932 -0.7091  1.3141
 4708TIP3   OH235538   5.223   0.408   6.269  0.0752  0.1524 -0.1340
 4708TIP3    H135539   5.150   0.385   6.327  1.0373 -0.5160  0.8333
 4708TIP3    H235540   5.287   0.338   6.283  1.4111  1.3797 -0.0696
 4709TIP3   OH235541   0.780   3.367  11.149 -0.2614  0.0350  0.0095
 4709TIP3    H135542   0.857   3.405  11.105  0.8904 -2.7448 -0.5058
 4709TIP3    H235543   0.725   3.336  11.078 -0.4198 -0.6778  0.4415
 4710TIP3   OH235544   6.282   3.133   5.715  0.4660 -0.1999  0.5394
 4710TIP3    H135545   6.265   3.151   5.807 -0.1617  0.8166  0.2334
 4710TIP3    H235546   6.205   3.084   5.685 -0.1841  1.0216  0.1298
 4711TIP3   OH235547   3.333   6.332  14.655 -0.2495  0.1077 -0.2719
 4711TIP3    H135548   3.300   6.380  14.731 -0.3711 -1.1027  0.4516
 4711TIP3    H235549   3.255   6.312  14.604 -0.1900  0.7373 -0.6178
 4712TIP3   OH235550   5.557   2.193  17.142  0.0251  0.2625  0.8358
 4712TIP3    H135551   5.622   2.259  17.162  0.7523  0.2946 -1.4259
 4712TIP3    H235552   5.508   2.229  17.068  0.7196 -1.8776 -0.7152
 4713TIP3   OH235553   1.303   6.391   1.801  0.1337 -0.0938 -0.5797
 4713TIP3    H135554   1.328   6.310   1.846 -2.1492 -0.2022  0.5682
 4713TIP3    H235555   1.270   6.363   1.716  0.5415 -0.2591 -0.6826
 4714TIP3   OH235556   5.983   5.977  14.795 -0.1975 -0.0180  0.2018
 4714TIP3    H135557   6.012   6.066  14.814  1.4697 -0.6102  0.5768
 4714TIP3    H235558   5.955   5.978  14.704  0.4046  0.7463  0.0269
 4715TIP3   OH235559   3.225   5.133  15.325 -0.6936 -0.0753 -0.4437
 4715TIP3    H135560   3.190   5.086  15.401  0.3970 -0.2175 -0.0271
 4715TIP3    H235561   3.179   5.217  15.327 -0.9995 -0.2489  0.1056
 4716TIP3   OH235562   1.720   6.741  13.469 -0.2699 -0.0763  0.0773
 4716TIP3    H135563   1.772   6.717  13.546 -0.9852  0.4758  0.7472
 4716TIP3    H235564   1.697   6.833  13.483 -0.7042 -0.0702 -0.6289
 4717TIP3   OH235565   3.158   5.608  13.049  0.3702 -0.0269  0.0294
 4717TIP3    H135566   3.138   5.548  12.978 -0.0659 -0.5941  0.6284
 4717TIP3    H235567   3.151   5.555  13.128 -2.4778  1.3608  0.7802
 4718TIP3   OH235568   3.278   6.443  12.163 -0.7073  0.4720  0.1882
 4718TIP3    H135569   3.372   6.455  12.153 -1.0461  2.0647 -1.3416
 4718TIP3    H235570   3.251   6.511  12.225 -0.8877  0.1739  0.4406
 4719TIP3   OH235571   1.914   6.053  13.099 -0.1681  0.2074 -0.1811
 4719TIP3    H135572   1.968   5.974  13.088  1.7629  1.5754 -0.6618
 4719TIP3    H235573   1.932   6.106  13.022 -3.1168  0.1967 -0.9377
 4720TIP3   OH235574   4.483   1.369  15.032 -0.6412 -0.0534 -0.1958
 4720TIP3    H135575   4.544   1.437  15.003  0.3863 -1.4536 -1.3789
 4720TIP3    H235576   4.519   1.339  15.115  1.0523 -1.7945 -1.5275
 4721TIP3   OH235577   2.705   5.147  11.720  0.4334  0.3811  0.3941
 4721TIP3    H135578   2.790   5.192  11.716  0.6416  0.0214  0.8085
 4721TIP3    H235579   2.707   5.085  11.647  0.4781  0.4586  0.3299
 4722TIP3   OH235580   6.303   0.696  13.545 -0.8082  0.3422  0.2292
 4722TIP3    H135581   6.358   0.618  13.547  0.0946  0.9506 -0.3089
 4722TIP3    H235582   6.231   0.673  13.486  1.0545  0.9139 -2.3703
 4723TIP3   OH235583   0.223   6.383  12.426  0.7166 -0.3673  0.2193
 4723TIP3    H135584   0.247   6.306  12.476  0.8978 -0.5938 -0.2150
 4723TIP3    H235585   0.194   6.349  12.342  0.0481 -0.0178  0.3010
 4724TIP3   OH235586   3.383   4.154   5.747  0.7573 -0.1245  0.1295
 4724TIP3    H135587   3.419   4.072   5.780  0.7251  0.0027  0.4846
 4724TIP3    H235588   3.310   4.173   5.805  1.3012  0.6022  0.5831
 4725TIP3   OH235589   6.286   1.549   1.040  0.6940 -0.0333 -0.2235
 4725TIP3    H135590   6.291   1.547   1.136  1.4511 -1.5060 -0.2767
 4725TIP3    H235591   6.224   1.619   1.021  1.3127  0.9609  1.3105
 4726TIP3   OH235592   2.802   0.103   5.122  0.2242 -0.7143  0.6262
 4726TIP3    H135593   2.831   0.189   5.091  1.1130 -1.3466 -0.3009
 4726TIP3    H235594   2.754   0.122   5.203  0.5496  0.6356  0.5091
 4727TIP3   OH235595   4.841   4.395  15.662 -0.4621 -0.1882  0.8412
 4727TIP3    H135596   4.821   4.303  15.680  1.5645 -0.7949  0.0670
 4727TIP3    H235597   4.936   4.400  15.662 -0.4798  1.1932 -2.7541
 4728TIP3   OH235598   4.815   1.952  11.865 -0.1886  0.2785 -0.8137
 4728TIP3    H135599   4.841   2.044  11.861 -0.6110  0.3986 -0.8137
 4728TIP3    H235600   4.808   1.925  11.774  1.4687 -0.1945 -0.8167
 4729TIP3   OH235601   1.569   6.440  11.769 -0.1253  0.7566  0.1111
 4729TIP3    H135602   1.586   6.504  11.837  0.4155  0.4575  0.2610
 4729TIP3    H235603   1.655   6.422  11.731 -0.3680  0.6240 -0.3808
 4730TIP3   OH235604   5.429   6.474   3.084  0.0240 -0.0347 -0.4824
 4730TIP3    H135605   5.484   6.470   3.163 -0.2875  0.8187 -0.2236
 4730TIP3    H235606   5.446   6.560   3.047  0.6664 -0.6812 -1.7156
 4731TIP3   OH235607   2.539   4.386  12.394 -0.0402 -0.7754 -0.6321
 4731TIP3    H135608   2.492   4.421  12.319  0.3030 -2.1207 -1.4766
 4731TIP3    H235609   2.500   4.431  12.469 -1.1916 -0.2871 -1.5068
 4732TIP3   OH235610   2.072   5.462   0.822 -0.6707 -0.7590 -0.3932
 4732TIP3    H135611   2.142   5.397   0.812  1.0277  0.7919  1.0361
 4732TIP3    H235612   2.029   5.437   0.904 -0.8474 -0.8389 -0.5101
 4733TIP3   OH235613   3.364   4.177  12.127  0.4608  0.3193  0.2895
 4733TIP3    H135614   3.293   4.115  12.113 -0.2000  1.4403 -1.4319
 4733TIP3    H235615   3.442   4.123  12.136 -0.3392 -0.8296  0.3960
 4734TIP3   OH235616   2.416   6.122   5.939  0.0501 -0.2594 -0.2489
 4734TIP3    H135617   2.355   6.053   5.913 -0.5999 -0.1176  0.8519
 4734TIP3    H235618   2.502   6.080   5.937 -0.2503 -0.8791 -0.3665
 4735TIP3   OH235619   2.073   2.389  17.176 -0.4439  0.6737 -0.7535
 4735TIP3    H135620   2.040   2.363  17.262  0.5520  0.9339 -0.2903
 4735TIP3    H235621   2.002   2.443  17.139 -0.6773  0.9591  0.1043
 4736TIP3   OH235622   0.886   6.128  15.902  0.3268 -0.2091  0.2634
 4736TIP3    H135623   0.858   6.179  15.826  0.2160  1.8201  1.6273
 4736TIP3    H235624   0.893   6.038  15.869  3.5145  1.1049 -2.9943
 4737TIP3   OH235625   1.364   0.259  16.398  1.0077 -0.0794 -0.3257
 4737TIP3    H135626   1.363   0.169  16.364 -0.4755 -0.0214 -0.4674
 4737TIP3    H235627   1.424   0.256  16.473  2.1732 -0.8303 -1.2611
 4738TIP3   OH235628   6.751   5.329   0.884  0.6256  0.4235  0.0725
 4738TIP3    H135629   6.733   5.235   0.889  0.0383  0.4262 -1.6359
 4738TIP3    H235630   6.736   5.361   0.973  0.2753 -1.0094  0.5434
 4739TIP3   OH235631   5.671   6.176   2.944  0.7243 -0.1312  0.6009
 4739TIP3    H135632   5.604   6.121   2.904  0.2875  0.4575  0.5088
 4739TIP3    H235633   5.715   6.217   2.869 -0.7114  1.7015  0.7073
 4740TIP3   OH235634   6.146   1.467   5.029 -0.3964  0.4441  0.1524
 4740TIP3    H135635   6.177   1.395   5.085  1.0138  3.0056  2.8262
 4740TIP3    H235636   6.059   1.440   5.002 -0.8333 -1.2607  3.0438
 4741TIP3   OH235637   6.405   1.103  12.363  0.5588 -0.0148 -0.0580
 4741TIP3    H135638   6.479   1.148  12.405  0.9354  0.2086 -0.9443
 4741TIP3    H235639   6.432   1.093  12.272 -0.4769  0.0017 -0.3740
 4742TIP3   OH235640   2.676   0.738   4.581  0.3417  0.0203  0.3153
 4742TIP3    H135641   2.591   0.740   4.624  0.6598  1.8520  0.9264
 4742TIP3    H235642   2.657   0.719   4.490 -0.6587 -0.2690  0.5765
 4743TIP3   OH235643   2.494   4.923   4.623 -0.0971  0.4842 -0.0280
 4743TIP3    H135644   2.471   4.839   4.663  0.8324  0.5918  0.7444
 4743TIP3    H235645   2.415   4.976   4.633 -0.1503  0.2392  0.9402
 4744TIP3   OH235646   1.755   0.541   2.111 -0.3962  0.2788 -0.2802
 4744TIP3    H135647   1.817   0.589   2.166 -0.8246  2.2728 -1.4719
 4744TIP3    H235648   1.787   0.554   2.022 -2.0680  0.6682 -0.8486
 4745TIP3   OH235649   6.177   6.230  16.323  0.2001  0.3131 -0.1838
 4745TIP3    H135650   6.082   6.241  16.328  0.5064  2.4695  2.2997
 4745TIP3    H235651   6.191   6.172  16.248 -2.9144  2.0824 -2.2542
 4746TIP3   OH235652   6.378   3.526  12.736  0.2411  0.0231  0.0116
 4746TIP3    H135653   6.292   3.488  12.720  0.5669 -0.6721 -0.1005
 4746TIP3    H235654   6.382   3.540  12.830  0.5271 -1.2256  0.1990
 4747TIP3   OH235655   0.908   2.220   0.591 -0.2088 -0.1072  0.4967
 4747TIP3    H135656   0.850   2.280   0.544  0.5523  0.1942 -0.0816
 4747TIP3    H235657   0.850   2.161   0.637 -0.9734 -0.1318 -0.4888
 4748TIP3   OH235658   2.610   2.835  16.153 -0.1113 -0.3640  0.1561
 4748TIP3    H135659   2.671   2.889  16.102 -0.7636  0.1161 -0.1234
 4748TIP3    H235660   2.541   2.895  16.179  0.0095 -0.7054  1.2728
 4749TIP3   OH235661   3.145   2.553  14.585  0.0123  0.0487  0.4800
 4749TIP3    H135662   3.124   2.612  14.513  0.5201 -0.8002 -0.3634
 4749TIP3    H235663   3.240   2.561  14.597  0.2637 -1.4490 -0.3991
 4750TIP3   OH235664   5.827   6.258  12.792 -0.4200  0.2342  0.1496
 4750TIP3    H135665   5.762   6.195  12.758  1.1811 -1.0118 -0.6819
 4750TIP3    H235666   5.864   6.298  12.713 -0.6034  1.3963  0.6431
 4751TIP3   OH235667   4.077   5.928  16.314  0.3286 -0.2891  0.6874
 4751TIP3    H135668   4.066   5.952  16.222 -1.1392 -0.4682  0.8089
 4751TIP3    H235669   3.992   5.894  16.341  1.0031 -1.1176  1.8632
 4752TIP3   OH235670   4.355   4.965   3.256 -0.0789  0.4475  0.9347
 4752TIP3    H135671   4.291   4.950   3.326 -0.9004  1.0083  0.3245
 4752TIP3    H235672   4.439   4.972   3.300 -0.4114 -0.4952  1.7412
 4753TIP3   OH235673   5.613   4.974   1.112  0.3499 -0.3710  0.0582
 4753TIP3    H135674   5.704   4.944   1.107  1.1797  2.1405 -0.7471
 4753TIP3    H235675   5.620   5.067   1.135 -1.9449  0.3574 -2.0031
 4754TIP3   OH235676   6.564   3.622   1.501 -0.2551  0.3171  0.0321
 4754TIP3    H135677   6.590   3.692   1.441  0.7074 -0.5374 -0.5599
 4754TIP3    H235678   6.532   3.552   1.444 -1.4452  0.3612  0.6366
 4755TIP3   OH235679   5.651   0.911  16.529 -0.1197 -0.4843  0.3862
 4755TIP3    H135680   5.607   0.987  16.567  0.4390 -0.4851  1.0659
 4755TIP3    H235681   5.744   0.928  16.545  0.2031 -0.0753 -1.7606
 4756TIP3   OH235682   3.032   1.667  15.619  0.2175  0.4212  0.0009
 4756TIP3    H135683   3.066   1.630  15.537  0.3843 -0.6045  0.5214
 4756TIP3    H235684   2.968   1.603  15.649  1.2476  0.0408  1.4437
 4757TIP3   OH235685   1.510   0.943   0.125  0.6366  0.2845  0.5298
 4757TIP3    H135686   1.488   0.878   0.191  2.2320  0.9829  1.7876
 4757TIP3    H235687   1.502   0.897   0.042  0.2306 -1.0719  1.3129
 4758TIP3   OH235688   2.707   4.729   1.467 -0.7769  0.3369 -0.1813
 4758TIP3    H135689   2.713   4.690   1.555  1.7108  1.0064 -0.0227
 4758TIP3    H235690   2.641   4.798   1.477 -0.8207  0.1426  1.0557
 4759TIP3   OH235691   6.123   6.412  12.680 -0.0583 -0.4353 -0.8833
 4759TIP3    H135692   6.180   6.465  12.624 -0.5432  0.1885 -0.7939
 4759TIP3    H235693   6.170   6.329  12.690  1.3770  0.4737  0.1389
 4760TIP3   OH235694   2.957   3.420  15.401  0.2757 -0.2830 -0.3485
 4760TIP3    H135695   2.972   3.460  15.486  2.8955 -0.9607 -0.4547
 4760TIP3    H235696   3.043   3.417  15.360 -0.6931 -1.3765 -2.3961
 4761TIP3   OH235697   5.359   3.910  12.407 -0.0803 -0.5252 -0.2441
 4761TIP3    H135698   5.306   3.894  12.330 -1.8261  1.6662  0.4424
 4761TIP3    H235699   5.437   3.856  12.395 -1.7280 -2.5682 -2.0358
 4762TIP3   OH235700   1.082   6.268   1.027  0.1370  0.0777  0.3505
 4762TIP3    H135701   1.130   6.255   1.109 -1.4788 -0.2833  1.2510
 4762TIP3    H235702   1.112   6.196   0.971  0.7804 -0.0315  0.8218
 4763TIP3   OH235703   0.512   4.546   1.070 -0.6411  0.0818  0.0687
 4763TIP3    H135704   0.420   4.526   1.053 -0.5056 -1.1258  0.7403
 4763TIP3    H235705   0.540   4.596   0.992 -1.1188 -1.9100 -1.4219
 4764TIP3   OH235706   6.724   2.996   4.712 -0.5037  0.3745  0.0518
 4764TIP3    H135707   6.679   3.018   4.793 -1.2614  2.3150 -0.8815
 4764TIP3    H235708   6.778   2.920   4.735  0.7100  1.9990  2.8490
 4765TIP3   OH235709   3.101   3.749   6.344  0.1564 -0.0520  0.1511
 4765TIP3    H135710   3.056   3.833   6.343  1.0806  0.4488  0.1570
 4765TIP3    H235711   3.054   3.696   6.279 -0.2499  0.5582 -0.0584
 4766TIP3   OH235712   2.125   2.934   1.460  0.3320  0.6281  0.4333
 4766TIP3    H135713   2.128   2.952   1.554 -1.9741 -0.6349  0.7767
 4766TIP3    H235714   2.047   2.980   1.430 -0.5695 -1.3424 -0.3132
 4767TIP3   OH235715   0.553   0.196   4.962  0.1263 -0.1188 -0.3736
 4767TIP3    H135716   0.527   0.227   4.876 -0.2317 -0.2125 -0.3027
 4767TIP3    H235717   0.514   0.259   5.023 -0.2414 -0.4656 -0.2500
 4768TIP3   OH235718   2.713   0.273   5.617  0.1034  0.1066  0.2740
 4768TIP3    H135719   2.695   0.200   5.558 -1.1859 -0.2413  1.0842
 4768TIP3    H235720   2.629   0.318   5.627  0.5201  0.7215  1.0863
 4769TIP3   OH235721   5.725   2.071  11.876 -0.0458 -0.2237 -0.1440
 4769TIP3    H135722   5.811   2.108  11.895  0.3569 -0.7911 -0.8388
 4769TIP3    H235723   5.700   2.025  11.956  0.7778 -0.9703 -0.3080
 4770TIP3   OH235724   2.028   4.790   0.362  0.1240  0.4259  0.1400
 4770TIP3    H135725   2.061   4.809   0.450  0.6715 -1.0098  0.2553
 4770TIP3    H235726   1.933   4.804   0.369  0.1164 -0.0262  1.0511
 4771TIP3   OH235727   3.145   3.600  14.376  0.3435 -0.1705  0.3498
 4771TIP3    H135728   3.080   3.575  14.441  1.4436 -0.0012  1.5301
 4771TIP3    H235729   3.151   3.525  14.318 -1.9170  0.3490 -0.6120
 4772TIP3   OH235730   4.791   5.817   4.906 -0.5627  0.8002  0.3235
 4772TIP3    H135731   4.880   5.855   4.911  0.2085 -0.9053 -0.2574
 4772TIP3    H235732   4.794   5.742   4.966 -1.6127  0.7084  0.2651
 4773TIP3   OH235733   3.506   6.319  16.780  0.0324 -0.2792 -0.2381
 4773TIP3    H135734   3.535   6.236  16.741  0.6537 -0.4357  0.5483
 4773TIP3    H235735   3.416   6.330  16.748  0.5343 -0.3851 -1.7445
 4774TIP3   OH235736   1.499   3.883  12.007 -0.5595 -0.0045 -0.1451
 4774TIP3    H135737   1.422   3.836  12.038 -0.7545  0.0922 -0.4761
 4774TIP3    H235738   1.570   3.819  12.012 -0.5598  0.0451  0.6144
 4775TIP3   OH235739   3.205   6.473   2.969  0.0382  0.0641 -0.3675
 4775TIP3    H135740   3.206   6.562   3.004 -2.5335 -0.0704  0.1184
 4775TIP3    H235741   3.271   6.426   3.021  0.5761  1.3871  0.1564
 4776TIP3   OH235742   0.733   1.726  16.944 -0.4011 -0.0359  0.4382
 4776TIP3    H135743   0.652   1.713  16.895 -0.4431 -0.3443  0.5905
 4776TIP3    H235744   0.708   1.716  17.036  0.1677 -1.9935  0.3943
 4777TIP3   OH235745   4.643   6.432  10.791  0.2552  0.2475  0.3958
 4777TIP3    H135746   4.672   6.398  10.875 -0.6594 -0.4576  0.4323
 4777TIP3    H235747   4.636   6.355  10.735 -1.1885  0.4361  0.2883
 4778TIP3   OH235748   5.266   3.509   1.489  0.7208  0.6390 -0.1800
 4778TIP3    H135749   5.176   3.477   1.491  0.8651  0.3029  1.1692
 4778TIP3    H235750   5.257   3.604   1.475  0.1760  0.5931 -0.1731
 4779TIP3   OH235751   5.822   1.879  12.556 -0.6206  0.1290  0.7655
 4779TIP3    H135752   5.901   1.825  12.550  0.1950  1.5197 -1.5971
 4779TIP3    H235753   5.751   1.822  12.526 -0.3600 -0.7932  1.8801
 4780TIP3   OH235754   0.886   5.919   4.207 -0.3054  0.2055  0.3526
 4780TIP3    H135755   0.899   5.969   4.126  2.0539  0.7232  1.0016
 4780TIP3    H235756   0.876   5.828   4.178 -0.5732  0.5230 -0.5748
 4781TIP3   OH235757   0.049   1.141   5.968  0.1868 -0.3085  0.3173
 4781TIP3    H135758   0.120   1.205   5.979  0.3955 -0.5624  0.4501
 4781TIP3    H235759   0.015   1.128   6.057 -0.2121  0.0199  0.2173
 4782TIP3   OH235760   3.265   1.607   3.606  0.7731 -0.0659  0.1355
 4782TIP3    H135761   3.170   1.612   3.612  0.7536 -0.2606  0.0091
 4782TIP3    H235762   3.297   1.677   3.663  0.5384  0.8337 -0.8256
 4783TIP3   OH235763   2.244   6.207   5.735  0.1002  0.0748 -0.3487
 4783TIP3    H135764   2.280   6.204   5.824 -0.6144  0.4347 -0.0426
 4783TIP3    H235765   2.158   6.164   5.743  0.4861 -0.8463 -1.0837
 4784TIP3   OH235766   6.107   4.421   5.667 -0.0337  0.3987  0.8968
 4784TIP3    H135767   6.069   4.472   5.595 -0.9687 -1.0690  0.3089
 4784TIP3    H235768   6.048   4.436   5.741 -1.5680 -1.4989  0.1154
 4785TIP3   OH235769   5.076   3.334  16.900  0.0388 -0.0330 -0.2163
 4785TIP3    H135770   5.103   3.271  16.834  0.5790 -0.7832  0.7222
 4785TIP3    H235771   5.139   3.406  16.892 -0.4644  0.3241 -1.1526
 4786TIP3   OH235772   3.734   5.420   6.404 -0.3800  0.2730 -0.1152
 4786TIP3    H135773   3.813   5.446   6.356  0.3760  1.4298  1.7036
 4786TIP3    H235774   3.666   5.478   6.369 -0.2462 -0.1562 -1.1017
 4787TIP3   OH235775   5.806   2.873  11.286 -0.3246 -0.5233  0.2058
 4787TIP3    H135776   5.729   2.929  11.292 -0.6738 -0.8055 -1.4196
 4787TIP3    H235777   5.871   2.915  11.342 -0.7423  1.2312 -0.6025
 4788TIP3   OH235778   3.163   3.848  13.375 -0.2644  0.4291  0.2638
 4788TIP3    H135779   3.154   3.782  13.444  0.3575  0.2372  0.1633
 4788TIP3    H235780   3.157   3.798  13.294  0.9290  0.3979  0.1912
 4789TIP3   OH235781   0.865   4.375   1.424  0.0996 -0.0263  0.0279
 4789TIP3    H135782   0.819   4.444   1.472 -1.6135 -0.9198 -0.2953
 4789TIP3    H235783   0.811   4.359   1.346 -0.5258 -2.9389  0.9777
 4790TIP3   OH235784   6.356   3.940   1.323 -0.1376  0.0492  0.3055
 4790TIP3    H135785   6.447   3.918   1.301 -0.9868  0.1004 -3.6102
 4790TIP3    H235786   6.335   4.015   1.267 -2.5445  0.2086  1.3422
 4791TIP3   OH235787   6.245   6.713  14.281  0.3052  0.7208 -0.1314
 4791TIP3    H135788   6.211   6.770  14.350  1.0709  0.6503  0.3071
 4791TIP3    H235789   6.236   6.765  14.201  2.8641  2.2760  0.5368
 4792TIP3   OH235790   0.360   3.653  11.019 -0.0159  0.6369 -0.4745
 4792TIP3    H135791   0.433   3.612  10.973 -0.7820  0.2698 -1.3634
 4792TIP3    H235792   0.358   3.609  11.104 -0.4936 -0.8089 -1.2150
 4793TIP3   OH235793   6.425   3.165   5.227 -0.0996 -0.6444  0.1707
 4793TIP3    H135794   6.377   3.202   5.153 -0.5070 -1.4815  0.0177
 4793TIP3    H235795   6.361   3.158   5.297  0.7006  1.8736  1.2183
 4794TIP3   OH235796   2.600   0.468   3.165 -0.3374  0.3115 -0.0117
 4794TIP3    H135797   2.657   0.391   3.171 -1.0034 -0.1057  0.9323
 4794TIP3    H235798   2.656   0.541   3.194  0.4375  0.2807 -1.3547
 4795TIP3   OH235799   2.783   1.545  16.587  0.0856 -0.2762  0.3092
 4795TIP3    H135800   2.778   1.462  16.635  0.4470 -1.9106 -2.3631
 4795TIP3    H235801   2.696   1.585  16.599 -0.5089 -1.6257  0.6122
 4796TIP3   OH235802   3.824   4.043   0.798 -0.3534  0.2619 -0.4053
 4796TIP3    H135803   3.853   3.952   0.806  0.7362  0.4259 -2.0932
 4796TIP3    H235804   3.755   4.053   0.863  0.3598 -1.4273  0.6315
 4797TIP3   OH235805   6.521   5.697  12.575  0.1901 -0.0937  0.0780
 4797TIP3    H135806   6.508   5.681  12.481 -1.7747 -2.5679  0.6813
 4797TIP3    H235807   6.436   5.674  12.614  1.4305 -0.5228  2.5998
 4798TIP3   OH235808   0.083   3.188  11.750 -0.9415  0.1065  0.3384
 4798TIP3    H135809   0.123   3.110  11.711 -3.5356 -1.2111  0.2116
 4798TIP3    H235810   0.157   3.241  11.780  0.8692 -2.8893  1.3376
 4799TIP3   OH235811   1.574   4.860  12.227 -0.3663  0.1751  0.3993
 4799TIP3    H135812   1.569   4.770  12.259 -0.2294 -0.5652 -1.5975
 4799TIP3    H235813   1.599   4.852  12.135  1.8645  2.3309  0.7394
 4800TIP3   OH235814   1.921   0.980   3.572  0.0916 -0.2396 -0.6541
 4800TIP3    H135815   1.960   0.940   3.494  0.8593  0.1797 -0.4927
 4800TIP3    H235816   1.929   1.074   3.557 -0.7133 -0.1511 -0.5380
 4801TIP3   OH235817   6.176   4.636   0.381 -0.4959 -0.5921  0.5080
 4801TIP3    H135818   6.244   4.574   0.353  0.0899 -0.4665  1.6057
 4801TIP3    H235819   6.198   4.656   0.472 -2.4604 -1.1489  1.1395
 4802TIP3   OH235820   4.366   5.863   4.275 -0.0284 -0.0985  0.7923
 4802TIP3    H135821   4.433   5.873   4.207 -0.9524  2.2568  0.1913
 4802TIP3    H235822   4.389   5.928   4.342 -0.4186 -0.8534  1.6727
 4803TIP3   OH235823   5.053   5.241   3.625  0.0702  0.1110  0.6166
 4803TIP3    H135824   5.072   5.315   3.567 -1.9542 -0.8315 -1.3278
 4803TIP3    H235825   4.985   5.274   3.684 -1.6023 -0.4536 -0.9315
 4804TIP3   OH235826   3.612   1.429   6.027 -0.5017 -0.5382 -0.0387
 4804TIP3    H135827   3.686   1.443   5.968 -0.6372  1.4706  0.2193
 4804TIP3    H235828   3.535   1.447   5.974 -0.5743  2.6985  1.0577
 4805TIP3   OH235829   5.120   3.657   1.059 -0.1505  0.0393 -0.8171
 4805TIP3    H135830   5.212   3.638   1.081 -1.2028 -1.2486  2.9069
 4805TIP3    H235831   5.104   3.744   1.095 -0.8873 -0.5480  0.3209
 4806TIP3   OH235832   3.355   4.305  16.584 -0.4700  0.1833  0.5850
 4806TIP3    H135833   3.380   4.222  16.543  0.2314  0.8333 -0.3123
 4806TIP3    H235834   3.416   4.314  16.657  0.8791  0.9564 -0.6110
 4807TIP3   OH235835   1.727   1.829  12.534  0.4187 -0.0211 -0.2321
 4807TIP3    H135836   1.692   1.916  12.552 -0.4841 -0.3528 -0.3361
 4807TIP3    H235837   1.770   1.837  12.449  0.4178  0.3462 -0.1968
 4808TIP3   OH235838   2.854   0.666   2.564 -0.1898  0.0059  0.7695
 4808TIP3    H135839   2.787   0.682   2.630  1.4133 -0.8363  2.6657
 4808TIP3    H235840   2.880   0.575   2.576 -1.8820 -1.0647 -3.0000
 4809TIP3   OH235841   0.110   6.559   2.606 -0.1152 -0.1505 -0.0170
 4809TIP3    H135842   0.183   6.520   2.556  0.6818 -1.4848  2.1257
 4809TIP3    H235843   0.141   6.647   2.627  0.7510 -0.5938  0.6003
 4810TIP3   OH235844   0.896   0.697   1.764 -0.0496 -0.6800 -0.3127
 4810TIP3    H135845   0.811   0.678   1.724  0.7064 -3.0384 -0.8610
 4810TIP3    H235846   0.956   0.705   1.690  0.3737  0.0753  0.1137
 4811TIP3   OH235847   2.126   5.431   2.271  0.3158 -0.0628 -0.3421
 4811TIP3    H135848   2.197   5.369   2.285  0.4525  0.0479 -0.5464
 4811TIP3    H235849   2.051   5.393   2.318  0.1135 -0.8909 -1.2985
 4812TIP3   OH235850   2.143   2.292  13.942  0.0919 -0.3226 -0.2611
 4812TIP3    H135851   2.174   2.323  13.857 -0.3874  2.3635  0.4898
 4812TIP3    H235852   2.073   2.352  13.965  1.5088  0.2146  2.9138
 4813TIP3   OH235853   5.590   5.821   1.734 -0.5251 -0.0661  0.9706
 4813TIP3    H135854   5.579   5.892   1.670 -1.9793 -1.4504 -0.3526
 4813TIP3    H235855   5.580   5.864   1.819  0.3320  1.6185  0.2493
 4814TIP3   OH235856   6.244   6.353   5.082  0.0883 -0.0776 -0.2641
 4814TIP3    H135857   6.266   6.365   5.174  0.8520 -0.7687 -0.3576
 4814TIP3    H235858   6.313   6.399   5.034  0.1158 -0.3752 -0.5109
 4815TIP3   OH235859   1.917   5.458  14.320  0.6358 -0.2098 -0.3109
 4815TIP3    H135860   1.871   5.433  14.400  0.7065 -0.1955 -0.2651
 4815TIP3    H235861   1.899   5.386  14.259  0.9077 -0.4150 -0.1544
 4816TIP3   OH235862   2.564   4.961  15.974  0.8450 -0.1599  0.0304
 4816TIP3    H135863   2.586   5.055  15.974  0.6834 -0.1207  0.6340
 4816TIP3    H235864   2.618   4.924  15.904  0.9017  0.3872 -0.2210
 4817TIP3   OH235865   5.171   5.451  15.758 -0.3887  0.6685 -0.3992
 4817TIP3    H135866   5.239   5.396  15.717 -2.1374 -2.9187  1.2406
 4817TIP3    H235867   5.089   5.418  15.721 -1.4127  3.3822 -0.6194
 4818TIP3   OH235868   0.834   0.242  16.547  0.0257  0.1319  0.3747
 4818TIP3    H135869   0.790   0.183  16.487 -0.9739  0.0614  1.1604
 4818TIP3    H235870   0.894   0.186  16.596 -0.6027 -0.1606  0.8150
 4819TIP3   OH235871   0.764   2.454  15.924  0.3999  0.4544 -0.3681
 4819TIP3    H135872   0.685   2.503  15.900  0.5336  0.2432 -1.2806
 4819TIP3    H235873   0.766   2.380  15.862  0.5558 -0.3364  0.5589
 4820TIP3   OH235874   1.460   1.681  15.817 -0.1782 -0.3228 -0.4205
 4820TIP3    H135875   1.425   1.674  15.729 -1.8448  2.4208 -0.0326
 4820TIP3    H235876   1.536   1.738  15.809  1.1368 -2.0230 -0.4205
 4821TIP3   OH235877   4.120   1.170  11.892  0.2291 -0.4230  0.5758
 4821TIP3    H135878   4.071   1.249  11.917 -1.4822 -1.6730  1.2305
 4821TIP3    H235879   4.065   1.129  11.825  2.6830  0.6125 -2.1913
 4822TIP3   OH235880   3.442   4.888   3.780 -0.5281 -0.3419 -0.3027
 4822TIP3    H135881   3.432   4.851   3.692 -0.0597 -0.9346 -0.1123
 4822TIP3    H235882   3.491   4.969   3.767  1.7635 -1.6940 -0.3321
 4823TIP3   OH235883   5.754   2.258  15.680  0.1347 -0.6901 -0.2948
 4823TIP3    H135884   5.747   2.340  15.730  1.5560  0.6196 -2.1706
 4823TIP3    H235885   5.670   2.214  15.694 -0.3495  0.7131  1.3752
 4824TIP3   OH235886   6.299   5.805  12.904 -0.0725 -0.0764  0.1833
 4824TIP3    H135887   6.274   5.894  12.881 -0.1840  0.3145  1.7441
 4824TIP3    H235888   6.340   5.813  12.990  1.7494 -1.2555 -0.5424
 4825TIP3   OH235889   5.361   2.920   5.563  0.0216  0.8471 -0.5755
 4825TIP3    H135890   5.390   2.944   5.651 -1.0314 -0.6530  0.1912
 4825TIP3    H235891   5.439   2.933   5.508  1.3087 -0.3117  0.9508
 4826TIP3   OH235892   2.691   1.869   2.138  0.5081 -0.2078  0.1736
 4826TIP3    H135893   2.767   1.850   2.191  0.5181  1.1343  0.6596
 4826TIP3    H235894   2.712   1.951   2.093  0.2305 -0.9627 -1.3794
 4827TIP3   OH235895   5.378   5.745  16.005  0.2911  0.1266 -0.1910
 4827TIP3    H135896   5.297   5.696  16.017  0.5864 -0.3104  0.0008
 4827TIP3    H235897   5.357   5.833  16.039 -0.4224  0.3220 -1.1038
 4828TIP3   OH235898   6.676   5.055   0.884 -0.2131 -0.5419 -0.0906
 4828TIP3    H135899   6.688   4.965   0.913  1.3050 -0.6070 -0.9245
 4828TIP3    H235900   6.592   5.054   0.838 -0.7293 -1.2850  0.8475
 4829TIP3   OH235901   3.085   0.561  13.212  0.0888  0.0547 -0.2749
 4829TIP3    H135902   3.170   0.556  13.169  0.8506  2.7233  0.7673
 4829TIP3    H235903   3.102   0.535  13.302 -0.4291 -0.4261 -0.3125
 4830TIP3   OH235904   1.570   6.160  11.604  0.0884  0.6048  0.3950
 4830TIP3    H135905   1.627   6.196  11.536 -0.1595  0.3503  0.0469
 4830TIP3    H235906   1.608   6.074  11.624  0.3242  0.7984  0.7810
 4831TIP3   OH235907   4.443   3.008  11.303  0.4491  0.2135  0.2722
 4831TIP3    H135908   4.430   3.087  11.354  0.2342  0.9659 -0.9208
 4831TIP3    H235909   4.364   2.956  11.319 -0.1873  0.9967 -0.2486
 4832TIP3   OH235910   3.970   2.881   0.573 -0.3655 -0.2303  0.1431
 4832TIP3    H135911   3.885   2.915   0.545  0.9938  1.3516 -2.1461
 4832TIP3    H235912   4.033   2.917   0.511  1.7817 -2.8891  0.6630
 4833TIP3   OH235913   6.600   1.051   2.993 -0.6191 -0.2701  0.0732
 4833TIP3    H135914   6.632   1.141   2.997 -1.4456  0.0660 -0.8382
 4833TIP3    H235915   6.541   1.043   3.068 -0.0879 -0.2394  0.5001
 4834TIP3   OH235916   2.419   5.279  16.210 -0.4269  0.1269 -1.0172
 4834TIP3    H135917   2.460   5.241  16.132  0.5143 -0.8973 -0.0336
 4834TIP3    H235918   2.479   5.350  16.236 -0.5156  0.1846 -0.9736
 4835TIP3   OH235919   5.492   4.575   4.885  0.0428  0.1208  0.2810
 4835TIP3    H135920   5.456   4.641   4.944 -0.2992 -0.2536  0.4925
 4835TIP3    H235921   5.420   4.514   4.871  0.7734 -0.9917  1.2233
 4836TIP3   OH235922   2.033   3.591  10.665 -0.1233  0.5406  0.3325
 4836TIP3    H135923   2.116   3.593  10.712  0.5065  0.2749 -0.7499
 4836TIP3    H235924   1.980   3.659  10.707  0.2094 -0.0905  1.8010
 4837TIP3   OH235925   4.298   1.635  15.489 -0.0016 -0.4327  0.0711
 4837TIP3    H135926   4.325   1.560  15.541  0.2836  0.5453  1.3746
 4837TIP3    H235927   4.377   1.658  15.439 -0.3516 -1.5311 -0.9841
 4838TIP3   OH235928   1.302   5.946   5.447  0.0262  0.7083 -0.1968
 4838TIP3    H135929   1.395   5.954   5.424  0.5627 -0.7334  1.4221
 4838TIP3    H235930   1.259   5.924   5.364  1.3368 -0.1594 -0.6477
 4839TIP3   OH235931   1.298   0.465   1.739 -0.1474 -0.2814 -0.3999
 4839TIP3    H135932   1.230   0.520   1.702 -0.5139 -1.2869 -1.2196
 4839TIP3    H235933   1.320   0.508   1.822 -1.9462 -0.0963  0.0008
 4840TIP3   OH235934   4.986   6.664  11.177  0.0647 -0.3054  0.2999
 4840TIP3    H135935   5.069   6.618  11.173  0.3373  0.2668 -1.1947
 4840TIP3    H235936   4.932   6.622  11.109 -1.4228 -1.6957  2.2815
 4841TIP3   OH235937   0.080   5.017  16.528  0.1281  1.3691 -0.5162
 4841TIP3    H135938   0.080   5.005  16.623  0.9977  3.3487 -0.2483
 4841TIP3    H235939  -0.011   5.002  16.502 -0.8543  4.1679  1.0915
 4842TIP3   OH235940   4.781   4.403   2.778  0.5837 -0.1995  0.2621
 4842TIP3    H135941   4.762   4.328   2.834  0.7301 -1.2091 -1.0307
 4842TIP3    H235942   4.877   4.411   2.780  0.7599 -1.5763 -1.5408
 4843TIP3   OH235943   1.891   6.572  11.339  0.0467 -0.4779  0.1333
 4843TIP3    H135944   1.923   6.662  11.349  1.7847 -1.2301  1.6383
 4843TIP3    H235945   1.850   6.552  11.424  0.3014 -1.3606  0.0461
 4844TIP3   OH235946   0.586   0.830   5.385  0.0773  0.2838 -0.1418
 4844TIP3    H135947   0.578   0.862   5.475 -0.2781  1.5089 -0.5941
 4844TIP3    H235948   0.654   0.763   5.390 -0.1790  0.0883  1.1021
 4845TIP3   OH235949   6.394   4.969  15.964  0.2504  0.2369 -0.3739
 4845TIP3    H135950   6.427   5.009  15.884  0.3124 -1.9868 -1.5051
 4845TIP3    H235951   6.471   4.929  16.005  0.2813  1.6452  0.9916
 4846TIP3   OH235952   3.136   0.349   5.051  0.0544 -0.1646  0.0063
 4846TIP3    H135953   3.040   0.349   5.050  0.0439 -0.5689  0.9280
 4846TIP3    H235954   3.160   0.271   5.100  0.8516  0.1696  0.1624
 4847TIP3   OH235955   2.117   3.691   1.050  0.3501 -0.1458  0.4688
 4847TIP3    H135956   2.172   3.746   0.994 -1.1532  1.2008  0.2813
 4847TIP3    H235957   2.031   3.695   1.010 -0.0429 -1.7146  1.1341
 4848TIP3   OH235958   6.679   5.705   1.826  0.3026 -0.5929  0.2064
 4848TIP3    H135959   6.762   5.658   1.835  0.4019 -0.5347 -0.3977
 4848TIP3    H235960   6.704   5.797   1.818  0.1375 -0.4919  0.7936
 4849TIP3   OH235961   2.881   0.949   6.365  0.3161 -0.3783  0.0165
 4849TIP3    H135962   2.923   0.876   6.411 -1.7323 -2.2094 -0.8879
 4849TIP3    H235963   2.787   0.931   6.375 -0.2094  2.1835 -0.2060
 4850TIP3   OH235964   2.046   4.466   3.863 -0.1640 -0.3293  0.3704
 4850TIP3    H135965   2.029   4.408   3.789  0.9682 -1.0322  0.6529
 4850TIP3    H235966   2.009   4.551   3.836  2.7060  0.1883 -2.1608
 4851TIP3   OH235967   1.314   3.693  16.538 -0.8734  0.4181 -0.9588
 4851TIP3    H135968   1.378   3.637  16.492 -1.6834 -1.2562 -0.1060
 4851TIP3    H235969   1.238   3.636  16.550 -1.1631  1.2442  1.2564
 4852TIP3   OH235970   1.212   1.007  13.910  0.1192 -0.5737 -0.0778
 4852TIP3    H135971   1.301   0.972  13.903  0.5734  0.5998 -0.2072
 4852TIP3    H235972   1.175   0.995  13.823  1.6056  2.7850 -1.2643
 4853TIP3   OH235973   4.077   3.087  11.258  0.4240  0.4516  0.2749
 4853TIP3    H135974   4.072   2.994  11.237 -1.6595  0.2781  1.3598
 4853TIP3    H235975   4.032   3.130  11.185 -1.7427  0.2952  1.4688
 4854TIP3   OH235976   6.035   2.598  12.887 -0.0958  0.2061 -0.3533
 4854TIP3    H135977   6.017   2.564  12.975 -0.7221 -2.5715 -1.5004
 4854TIP3    H235978   5.969   2.666  12.874 -1.4706 -0.9179  0.4951
 4855TIP3   OH235979   5.141   2.129   3.021  0.3701  0.3672  0.0877
 4855TIP3    H135980   5.082   2.149   2.948 -0.4977 -1.4310  0.2607
 4855TIP3    H235981   5.092   2.156   3.099  0.8946  1.3733  0.0777
 4856TIP3   OH235982   2.972   3.042  14.541 -0.2797  0.4135  0.4496
 4856TIP3    H135983   2.976   2.958  14.586 -0.5523 -1.2292 -2.4551
 4856TIP3    H235984   3.062   3.058  14.511 -0.2251  1.1855  0.9952
 4857TIP3   OH235985   6.391   6.479   1.008 -0.3370 -0.2586  0.6450
 4857TIP3    H135986   6.375   6.559   1.058 -0.6680  0.4425 -0.5560
 4857TIP3    H235987   6.425   6.417   1.072  0.7471  1.1155  1.4351
 4858TIP3   OH235988   5.181   4.488  11.902 -0.0980  0.6096 -0.2733
 4858TIP3    H135989   5.191   4.557  11.968 -0.0181  0.6003 -0.2758
 4858TIP3    H235990   5.267   4.485  11.858 -0.1020  0.5103 -0.2757
 4859TIP3   OH235991   0.913   3.094   4.659  0.1829 -0.5675 -0.1999
 4859TIP3    H135992   1.001   3.112   4.626  0.3502 -1.6594 -0.3764
 4859TIP3    H235993   0.856   3.155   4.612  0.8044 -0.0506 -0.2873
 4860TIP3   OH235994   1.117   0.507  13.153 -0.4869  0.1004  0.1108
 4860TIP3    H135995   1.148   0.510  13.243  0.0859  1.0267 -0.1069
 4860TIP3    H235996   1.076   0.592  13.138  2.8165  1.4984 -1.6583
 4861TIP3   OH235997   2.255   2.545   4.183 -0.0005 -0.0579 -0.0695
 4861TIP3    H135998   2.277   2.591   4.102  3.1533  1.9282  1.7796
 4861TIP3    H235999   2.337   2.504   4.210 -0.7072  0.2156  2.6620
 4862TIP3   OH236000   2.955   4.882   1.704 -0.2259 -0.4928  0.1649
 4862TIP3    H136001   3.033   4.912   1.751 -1.2319 -0.3843  1.7922
 4862TIP3    H236002   2.988   4.855   1.618  1.3616  1.0577  0.2569
 4863TIP3   OH236003   0.728   5.283  14.504 -0.1022  0.2761  0.6365
 4863TIP3    H136004   0.635   5.263  14.515  0.1623 -1.4642 -0.1316
 4863TIP3    H236005   0.749   5.250  14.417  0.2417  4.4896 -1.0203
 4864TIP3   OH236006   4.498   0.300  11.389  0.7804  0.3302  0.0681
 4864TIP3    H136007   4.447   0.299  11.307  0.9780 -0.9846 -0.0475
 4864TIP3    H236008   4.435   0.273  11.456  1.0159 -0.0819  0.1196
 4865TIP3   OH236009   4.904   2.446  13.148 -0.0084 -0.1691 -0.3335
 4865TIP3    H136010   4.846   2.394  13.093 -0.5985  1.3070 -1.1099
 4865TIP3    H236011   4.985   2.455  13.097  1.1871 -2.7503  1.0000
 4866TIP3   OH236012   3.441   6.320   1.394  0.5801 -0.3537 -0.8953
 4866TIP3    H136013   3.352   6.314   1.360  0.1747 -0.4089  0.1563
 4866TIP3    H236014   3.473   6.405   1.362  0.1435 -0.3189 -1.2496
 4867TIP3   OH236015   3.364   0.845   2.115 -0.0113  0.0951  0.3735
 4867TIP3    H136016   3.298   0.897   2.069 -0.3810 -0.4491  0.2855
 4867TIP3    H236017   3.421   0.812   2.046  0.9406  1.3756  0.5353
 4868TIP3   OH236018   1.227   1.160  15.324  0.7929  0.2851 -0.2936
 4868TIP3    H136019   1.282   1.211  15.383  0.5151  0.6544 -0.3571
 4868TIP3    H236020   1.183   1.097  15.382  1.1753  0.0829 -0.2254
 4869TIP3   OH236021   1.343   4.205   0.718 -0.1911  0.1290 -0.1859
 4869TIP3    H136022   1.421   4.237   0.673 -0.5751  2.5492  0.7863
 4869TIP3    H236023   1.367   4.116   0.747  1.5438  0.1642 -1.4480
 4870TIP3   OH236024   3.598   4.425   3.720  0.2544  0.4187 -0.4041
 4870TIP3    H136025   3.647   4.479   3.658  0.2227  0.6905 -0.1947
 4870TIP3    H236026   3.526   4.482   3.750  2.0162  1.3809  2.1937
 4871TIP3   OH236027   4.363   4.171   0.192  0.2636  0.6141  0.0297
 4871TIP3    H136028   4.290   4.110   0.201 -0.5537  1.5166 -0.3549
 4871TIP3    H236029   4.434   4.133   0.243 -0.0461 -0.9638 -0.7000
 4872TIP3   OH236030   5.791   1.300  15.852  0.6645 -0.7393 -0.2559
 4872TIP3    H136031   5.757   1.271  15.936 -3.3996  1.7224 -0.9136
 4872TIP3    H236032   5.747   1.245  15.787  1.3945 -0.5356 -0.9349
 4873TIP3   OH236033   5.772   0.500  17.109  0.6995 -0.7425 -0.0505
 4873TIP3    H136034   5.781   0.438  17.182  2.8470 -0.5885 -0.1570
 4873TIP3    H236035   5.744   0.582  17.150  0.4862 -1.0407  0.4097
 4874TIP3   OH236036   4.971   3.136  14.799  0.5072  0.1525  0.3939
 4874TIP3    H136037   5.022   3.217  14.794 -0.1453  0.4582 -1.5949
 4874TIP3    H236038   4.906   3.144  14.729 -0.2121 -1.6432  0.8392
 4875TIP3   OH236039   5.307   0.538   4.017 -0.6457  0.5078  0.5336
 4875TIP3    H136040   5.288   0.626   4.050 -1.1323  0.8166 -0.5434
 4875TIP3    H236041   5.227   0.488   4.034 -0.2756  0.1912  1.3870
 4876TIP3   OH236042   4.218   5.150  14.326  0.4858  0.6317  0.1072
 4876TIP3    H136043   4.123   5.145  14.317  0.7076 -1.0838 -1.7793
 4876TIP3    H236044   4.246   5.214  14.261  0.6099  1.4328  0.9337
 4877TIP3   OH236045   0.151   3.881  12.061  0.0377 -0.0782 -0.2745
 4877TIP3    H136046   0.081   3.871  11.997 -1.8301  2.0541  1.3378
 4877TIP3    H236047   0.162   3.794  12.099 -2.7593 -0.1703  0.4275
 4878TIP3   OH236048   4.330   3.397   0.652  0.0789 -0.3047 -0.1905
 4878TIP3    H136049   4.407   3.342   0.636  0.3290  0.4444 -1.5914
 4878TIP3    H236050   4.289   3.406   0.567 -3.1665 -2.9983  0.9631
 4879TIP3   OH236051   5.429   1.468  15.229 -0.5864 -0.1124 -0.2987
 4879TIP3    H136052   5.507   1.520  15.213 -1.3509  1.3924  0.7988
 4879TIP3    H236053   5.394   1.450  15.141  0.3020  0.2527 -0.7334
 4880TIP3   OH236054   4.810   3.648  13.754 -0.0857 -0.0521 -0.0091
 4880TIP3    H136055   4.873   3.699  13.701 -0.2582  0.6444  0.4467
 4880TIP3    H236056   4.865   3.592  13.809  0.1362  0.4216  0.2567
 4881TIP3   OH236057   4.624   1.905   0.442 -0.2503 -0.1421  0.2998
 4881TIP3    H136058   4.685   1.848   0.488  0.4131 -0.9127 -1.4829
 4881TIP3    H236059   4.565   1.845   0.396  0.2109  0.5786 -1.2831
 4882TIP3   OH236060   5.087   4.939  15.825 -0.6499  0.1837 -0.4300
 4882TIP3    H136061   5.086   4.845  15.843 -0.6971 -0.4853 -3.6894
 4882TIP3    H236062   4.998   4.958  15.793  0.3038  0.6441 -2.9176
 4883TIP3   OH236063   3.081   5.990  14.577 -0.0118  0.1681  0.7886
 4883TIP3    H136064   3.116   5.933  14.646  0.8637  0.7819  0.8567
 4883TIP3    H236065   3.020   5.935  14.530 -0.0525 -0.4872  1.5926
 4884TIP3   OH236066   4.543   6.338  14.859 -0.1758  0.3917 -0.3476
 4884TIP3    H136067   4.558   6.423  14.818 -0.3243  0.9837  0.8173
 4884TIP3    H236068   4.466   6.303  14.814 -0.0663  0.8222 -0.8769
 4885TIP3   OH236069   1.023   6.630   5.494  0.0914  0.5035 -0.2041
 4885TIP3    H136070   1.004   6.572   5.568  1.7353 -0.7443 -0.7320
 4885TIP3    H236071   0.945   6.623   5.438  0.3170 -1.3404 -0.3344
 4886TIP3   OH236072   1.828   6.062   1.944  0.3743 -0.2856  0.4291
 4886TIP3    H136073   1.786   6.033   1.863 -0.7463 -0.8799  1.2088
 4886TIP3    H236074   1.919   6.035   1.935  0.1522 -0.7633 -0.4318
 4887TIP3   OH236075   1.032   2.226   3.794 -0.2377 -0.2475  0.1157
 4887TIP3    H136076   1.054   2.307   3.841 -0.2495  0.3544 -0.8993
 4887TIP3    H236077   1.062   2.156   3.852 -0.5126  0.4780  1.1478
 4888TIP3   OH236078   1.061   1.409   0.671  0.2546  0.8140  0.0431
 4888TIP3    H136079   1.136   1.453   0.631  1.1895 -1.2636 -0.5858
 4888TIP3    H236080   0.985   1.463   0.647  1.3864  2.2511 -0.3791
 4889TIP3   OH236081   6.029   4.480  14.318  0.3312  0.5483 -0.1702
 4889TIP3    H136082   5.968   4.508  14.250  1.3672  4.1950  0.2679
 4889TIP3    H236083   6.099   4.435  14.271 -0.1559  0.9326 -1.2717
 4890TIP3   OH236084   3.202   4.724  17.003  0.7847  0.7563  0.3307
 4890TIP3    H136085   3.123   4.678  16.973  0.2484  1.1407  1.1239
 4890TIP3    H236086   3.171   4.781  17.073  2.1216 -0.6090  2.0657
 4891TIP3   OH236087   5.835   5.892  12.954  0.8225 -0.3855 -0.4832
 4891TIP3    H136088   5.908   5.884  12.893  1.7396  0.1863  0.5126
 4891TIP3    H236089   5.773   5.949  12.910  0.8828 -1.0414 -1.4260
 4892TIP3   OH236090   0.399   6.274  13.571 -0.1866  0.0150 -0.1062
 4892TIP3    H136091   0.440   6.193  13.540  0.8259 -0.1938  1.7296
 4892TIP3    H236092   0.417   6.337  13.502  2.8419 -0.2017  0.3840
 4893TIP3   OH236093   2.417   4.600   0.916  0.2854 -0.5385 -0.4551
 4893TIP3    H136094   2.486   4.599   0.983 -0.2231  4.3694  0.3844
 4893TIP3    H236095   2.460   4.571   0.836  2.2347 -1.6464  0.9486
 4894TIP3   OH236096   1.418   2.856   4.092  1.1752  0.1934 -0.6126
 4894TIP3    H136097   1.508   2.823   4.097  0.8175 -0.7274  0.0006
 4894TIP3    H236098   1.366   2.791   4.140 -0.2634 -0.9635 -3.5761
 4895TIP3   OH236099   5.219   2.769   5.391  0.3193 -0.6777 -0.1188
 4895TIP3    H136100   5.287   2.704   5.370 -0.4612 -1.6553  0.3512
 4895TIP3    H236101   5.256   2.819   5.464  1.5738  0.4437 -1.4872
 4896TIP3   OH236102   1.021   6.209   3.093 -0.5673 -0.1367  0.0330
 4896TIP3    H136103   1.006   6.207   2.998  0.3854 -2.1408 -0.0927
 4896TIP3    H236104   0.934   6.195   3.131 -0.6681 -1.1886 -0.5728
 4897TIP3   OH236105   6.003   2.586   0.957  0.2592  0.2748  0.5808
 4897TIP3    H136106   6.079   2.580   0.899 -0.6635  1.9503 -0.8591
 4897TIP3    H236107   6.040   2.607   1.043  1.4106  1.4294 -0.1765
 4898TIP3   OH236108   2.784   1.537   2.901 -0.0368 -0.1983  0.0688
 4898TIP3    H136109   2.869   1.495   2.916  0.8521  0.4399 -2.8252
 4898TIP3    H236110   2.786   1.615   2.957  1.3679 -0.1309 -0.0489
 4899TIP3   OH236111   2.976   0.638   5.403  0.0744  0.2223 -0.2592
 4899TIP3    H136112   2.961   0.576   5.475  2.3531 -0.7271 -0.5689
 4899TIP3    H236113   2.973   0.724   5.445  0.6814 -0.2885  0.8751
 4900TIP3   OH236114   1.387   1.447   5.074  0.3178 -0.0075 -0.5059
 4900TIP3    H136115   1.473   1.488   5.082  0.4366 -0.1670 -0.9548
 4900TIP3    H236116   1.326   1.520   5.068  0.5423  0.1055 -1.4412
 4901TIP3   OH236117   4.928   2.129  14.976  0.2263  0.7012  0.1972
 4901TIP3    H136118   4.941   2.204  15.034  2.0387  0.7186 -0.2165
 4901TIP3    H236119   4.984   2.147  14.901  0.3721 -0.8761 -0.0904
 4902TIP3   OH236120   3.754   1.569   4.481 -0.3434 -0.4698  0.1462
 4902TIP3    H136121   3.737   1.602   4.569  1.1919 -1.2647  0.7556
 4902TIP3    H236122   3.745   1.474   4.488  1.0273 -0.6353 -0.2624
 4903TIP3   OH236123   0.660   3.819   4.806 -0.0115  0.0266  0.1258
 4903TIP3    H136124   0.600   3.805   4.879  0.9641  1.2737  1.1964
 4903TIP3    H236125   0.724   3.881   4.840  3.9573 -3.8931  0.1515
 4904TIP3   OH236126   5.819   5.178  12.792 -0.1698  0.2906 -0.0290
 4904TIP3    H136127   5.834   5.093  12.833 -0.2770  1.2856  2.1515
 4904TIP3    H236128   5.741   5.164  12.738  0.3082 -1.2116 -0.3529
 4905TIP3   OH236129   0.358   3.700   4.484  0.3930 -0.0164  0.1646
 4905TIP3    H136130   0.450   3.725   4.479  0.2959  0.6553  1.6683
 4905TIP3    H236131   0.314   3.773   4.527 -0.6116 -0.9386  0.7454
 4906TIP3   OH236132   2.658   0.431  12.463 -0.8115 -0.2658  0.3633
 4906TIP3    H136133   2.619   0.443  12.549 -0.7650 -2.3126  0.6719
 4906TIP3    H236134   2.585   0.412  12.404 -0.9770  2.2155 -0.2960
 4907TIP3   OH236135   3.119   5.542   5.047 -0.0727  0.2253 -0.1771
 4907TIP3    H136136   3.168   5.572   5.124  0.1285 -1.0585  0.1985
 4907TIP3    H236137   3.178   5.480   5.004 -0.4893  0.3657 -0.9674
 4908TIP3   OH236138   6.522   0.687   5.597  0.4136 -0.5511 -0.2117
 4908TIP3    H136139   6.485   0.662   5.512 -0.8247 -1.4061  0.5646
 4908TIP3    H236140   6.470   0.762   5.625  0.1653 -0.8836  0.2371
 4909TIP3   OH236141   3.527   6.282   2.086 -0.7404  0.3471 -0.7127
 4909TIP3    H136142   3.618   6.311   2.092 -1.1118  1.2386  0.7261
 4909TIP3    H236143   3.493   6.290   2.175 -1.7842 -1.4756 -0.9348
 4910TIP3   OH236144   6.079   2.114  14.433  0.5918  0.2810 -0.1223
 4910TIP3    H136145   6.037   2.090  14.516 -0.5217 -0.8420 -0.9714
 4910TIP3    H236146   6.009   2.105  14.368  1.8616 -0.5187 -1.4176
 4911TIP3   OH236147   4.790   6.655  15.187 -0.1809  0.3427  0.4105
 4911TIP3    H136148   4.725   6.717  15.155 -1.2215 -0.9310 -0.0140
 4911TIP3    H236149   4.863   6.664  15.126 -1.3542 -0.6385 -1.1979
 4912TIP3   OH236150   0.011   2.962   1.270  0.1966 -0.0705  0.2824
 4912TIP3    H136151  -0.063   3.008   1.230 -0.0084  0.2511  1.0332
 4912TIP3    H236152  -0.003   2.871   1.246 -0.6490 -0.0662  0.7390
 4913TIP3   OH236153   4.410   0.791  12.380  0.4786  0.0933 -0.4633
 4913TIP3    H136154   4.389   0.698  12.383  0.0293  0.2200  1.2013
 4913TIP3    H236155   4.358   0.825  12.308  0.1062 -0.8283 -0.6381
 4914TIP3   OH236156   1.009   3.303   4.294 -0.3687 -0.4158 -0.8017
 4914TIP3    H136157   1.007   3.326   4.387  0.0731 -1.1444 -0.6038
 4914TIP3    H236158   1.081   3.353   4.258 -0.1232 -0.6300 -0.6102
 4915TIP3   OH236159   6.034   3.305   6.401  0.2438  0.7171 -0.0187
 4915TIP3    H136160   6.035   3.346   6.314  0.9274 -2.2899 -1.4995
 4915TIP3    H236161   5.953   3.337   6.441  0.8134  3.5892 -0.9938
 4916TIP3   OH236162   1.758   1.713   4.809 -0.2058  0.0728  0.4566
 4916TIP3    H136163   1.812   1.777   4.856 -0.5695  1.1697 -0.6008
 4916TIP3    H236164   1.674   1.756   4.798  0.2954  0.3902 -2.4203
 4917TIP3   OH236165   4.603   2.431  14.359  0.2328  1.1505 -0.1928
 4917TIP3    H136166   4.685   2.471  14.388  0.3437  0.5353  0.3538
 4917TIP3    H236167   4.616   2.413  14.266  1.5534 -1.0091  0.3943
 4918TIP3   OH236168   6.093   6.588  13.803 -0.2750 -0.2354 -0.1034
 4918TIP3    H136169   6.180   6.629  13.801 -0.0968 -0.6002  0.4232
 4918TIP3    H236170   6.087   6.543  13.719 -0.3424  0.5996 -0.5585
 4919TIP3   OH236171   6.243   5.156   3.171  0.2567  0.8354  0.2955
 4919TIP3    H136172   6.227   5.150   3.077 -2.4814  0.8803  0.7199
 4919TIP3    H236173   6.252   5.065   3.200 -2.9640  0.5378  0.5841
 4920TIP3   OH236174   3.295   3.718  17.062 -0.0081  0.5025 -0.2766
 4920TIP3    H136175   3.390   3.717  17.065 -0.0005 -0.8058 -0.8557
 4920TIP3    H236176   3.268   3.686  17.148  0.0699  1.4972  0.1204
 4921TIP3   OH236177   0.407   6.607   4.275 -0.2369 -0.5280  1.1275
 4921TIP3    H136178   0.345   6.631   4.206 -0.5126 -0.1054  1.5140
 4921TIP3    H236179   0.493   6.632   4.240 -0.0477 -2.9379 -0.2213
 4922TIP3   OH236180   5.552   1.093  16.297 -0.2384 -0.2538  0.3109
 4922TIP3    H136181   5.527   1.112  16.387  1.7662 -1.6178  1.1874
 4922TIP3    H236182   5.615   1.022  16.304  0.7709  0.3545 -2.1006
 4923TIP3   OH236183   6.561   4.045  16.870  0.3058  0.6414  0.6083
 4923TIP3    H136184   6.506   3.996  16.807 -1.2616 -0.4874  2.7780
 4923TIP3    H236185   6.594   4.119  16.819 -1.3769  0.0850 -1.4176
 4924TIP3   OH236186   2.951   4.555  15.125  0.1375 -0.2634  0.1449
 4924TIP3    H136187   2.953   4.501  15.046 -0.6768 -1.9331  1.2353
 4924TIP3    H236188   3.018   4.518  15.182  1.3579  1.4996 -0.0981
 4925TIP3   OH236189   0.982   2.953   2.833 -0.2112 -0.6143 -0.3750
 4925TIP3    H136190   1.062   2.933   2.785  0.0357 -3.2101  1.0270
 4925TIP3    H236191   0.964   2.874   2.884 -1.8269  1.1397  1.9017
 4926TIP3   OH236192   4.955   1.883   2.986 -0.3018 -0.2028  0.4236
 4926TIP3    H136193   4.944   1.804   3.039  2.2520 -0.4550  0.6445
 4926TIP3    H236194   4.957   1.955   3.049 -0.7802 -0.1412  0.3710
 4927TIP3   OH236195   3.367   4.597  15.580 -0.2779 -0.3343  0.2433
 4927TIP3    H136196   3.378   4.523  15.520 -1.3058 -0.2899 -0.0064
 4927TIP3    H236197   3.279   4.588  15.614 -0.0274  0.1778  1.0397
 4928TIP3   OH236198   5.072   1.875  14.955 -0.0055 -0.6671 -0.3655
 4928TIP3    H136199   5.111   1.812  15.016  2.1533  0.2451 -0.7984
 4928TIP3    H236200   5.043   1.947  15.010  1.3059 -0.1602 -0.3438
 4929TIP3   OH236201   0.594   5.512   2.126  0.3069 -0.6901 -0.7185
 4929TIP3    H136202   0.613   5.541   2.215  1.6153  1.1159 -1.5592
 4929TIP3    H236203   0.628   5.422   2.122  0.1641 -0.8060  0.6219
 4930TIP3   OH236204   1.949   3.342   4.164  0.6515  0.1535  0.4005
 4930TIP3    H136205   1.883   3.295   4.112  0.6791  1.9054 -1.2883
 4930TIP3    H236206   1.898   3.390   4.229  0.4166 -0.1041  0.4100
 4931TIP3   OH236207   2.526   4.188  16.349  0.2998  0.0815  0.1342
 4931TIP3    H136208   2.531   4.094  16.364 -1.0348  0.0571  0.4621
 4931TIP3    H236209   2.577   4.203  16.269 -2.3536 -1.4041 -1.9176
 4932TIP3   OH236210   1.879   5.221  10.840  0.1878  0.3588 -0.5142
 4932TIP3    H136211   1.895   5.165  10.764 -1.2769 -1.7668  0.6888
 4932TIP3    H236212   1.951   5.202  10.900  0.4869  0.8592 -0.7135
 4933TIP3   OH236213   3.676   5.722   1.914  0.7242 -0.4292 -0.1774
 4933TIP3    H136214   3.647   5.807   1.882  0.2680 -0.3137  0.5450
 4933TIP3    H236215   3.771   5.722   1.898  0.3809 -0.7430 -2.3545
 4934TIP3   OH236216   5.665   5.028   3.868 -0.1609  0.0230 -0.0019
 4934TIP3    H136217   5.743   5.030   3.923 -0.1823  0.3301  0.0150
 4934TIP3    H236218   5.618   5.109   3.888 -0.4372 -0.1153 -0.0813
 4935TIP3   OH236219   2.775   4.602  11.521 -0.3346 -0.5796  0.2604
 4935TIP3    H136220   2.865   4.630  11.536 -0.3452 -0.4402  0.0614
 4935TIP3    H236221   2.729   4.624  11.602 -0.1316 -0.8954  0.4609
 4936TIP3   OH236222   0.160   3.725   5.064 -0.5389 -0.1249 -0.0103
 4936TIP3    H136223   0.226   3.670   5.105 -2.2941 -1.5345  1.0141
 4936TIP3    H236224   0.208   3.780   5.003  1.2939 -2.7883 -1.0492
 4937TIP3   OH236225   2.420   0.897   5.165  0.0102 -0.1557  0.3026
 4937TIP3    H136226   2.490   0.895   5.100 -1.4735 -1.2324 -1.3093
 4937TIP3    H236227   2.341   0.877   5.116 -1.5354  1.6450  1.9867
 4938TIP3   OH236228   5.455   3.123  10.803  0.6622  0.2154  0.9881
 4938TIP3    H136229   5.431   3.191  10.739  3.2192  0.0358 -0.2507
 4938TIP3    H236230   5.393   3.052  10.788  1.3820  0.0577 -1.5575
 4939TIP3   OH236231   4.356   3.251  13.090 -0.7717  0.1557  0.2677
 4939TIP3    H136232   4.361   3.155  13.094 -1.3310  0.0702 -0.9148
 4939TIP3    H236233   4.436   3.281  13.134 -0.0948 -0.8663 -0.2340
 4940TIP3   OH236234   3.019   0.696  17.217 -0.3425 -0.1176 -0.0582
 4940TIP3    H136235   3.018   0.777  17.165  1.4220  0.0178  0.1127
 4940TIP3    H236236   3.069   0.634  17.164 -2.6330 -1.4897 -0.7151
 4941TIP3   OH236237   1.241   4.265  11.592 -0.5046 -0.2557 -1.0289
 4941TIP3    H136238   1.311   4.241  11.652 -0.1559  0.1153 -1.2821
 4941TIP3    H236239   1.181   4.191  11.594 -0.5842 -0.1709 -0.0932
 4942TIP3   OH236240   3.369   4.411  10.510  0.1622  0.2198  0.3437
 4942TIP3    H136241   3.460   4.389  10.531  0.1624  1.3172  1.5908
 4942TIP3    H236242   3.334   4.331  10.471  1.5359 -0.3607  0.2420
 4943TIP3   OH236243   0.243   1.424   3.973  0.1298 -0.3160 -0.3217
 4943TIP3    H136244   0.329   1.384   3.969  0.4478  0.3462 -0.2722
 4943TIP3    H236245   0.195   1.386   3.899  0.0310 -1.6551  0.4165
 4944TIP3   OH236246   2.021   5.380   0.302  0.2304 -0.1067 -0.3972
 4944TIP3    H136247   2.042   5.440   0.373 -1.5968  0.8421 -0.6411
 4944TIP3    H236248   1.928   5.361   0.312  0.5216 -2.0297 -0.9896
 4945TIP3   OH236249   2.814   3.337  16.697 -0.1993  0.0588 -0.4473
 4945TIP3    H136250   2.796   3.251  16.735  1.4202  0.6743  1.8069
 4945TIP3    H236251   2.904   3.330  16.664 -0.3052  0.6690 -0.8779
 4946TIP3   OH236252   4.130   2.889   2.164  0.5530  0.2997 -0.9086
 4946TIP3    H136253   4.146   2.983   2.156 -1.2061  0.5386 -1.8253
 4946TIP3    H236254   4.158   2.867   2.253  1.1466  1.6437 -0.7553
 4947TIP3   OH236255   4.486   5.187  15.120  0.4995 -0.9995  0.4678
 4947TIP3    H136256   4.452   5.097  15.120  3.9057 -2.3480  0.7816
 4947TIP3    H236257   4.474   5.216  15.211 -3.2651  0.0000 -0.2588
 4948TIP3   OH236258   4.112   5.653  16.511  0.1750 -0.0196 -0.8262
 4948TIP3    H136259   4.153   5.567  16.499 -0.5432 -0.2961 -1.3232
 4948TIP3    H236260   4.179   5.715  16.483  1.4031 -0.3112  1.2874
 4949TIP3   OH236261   0.906   0.096  13.898  0.1204  0.2685  0.4183
 4949TIP3    H136262   0.889   0.036  13.970 -2.3124  1.6714  1.0552
 4949TIP3    H236263   0.846   0.169  13.913 -0.1238  0.7733 -2.8074
 4950TIP3   OH236264   6.540   1.681  12.776 -0.3076 -0.7251 -0.4378
 4950TIP3    H136265   6.449   1.697  12.750 -0.9015 -1.9256  0.8384
 4950TIP3    H236266   6.589   1.750  12.733 -2.0172  0.8609  0.0687
 4951TIP3   OH236267   5.479   2.233  12.472 -0.2212 -0.1108 -0.4182
 4951TIP3    H136268   5.524   2.306  12.429 -0.4762  0.0455 -0.4196
 4951TIP3    H236269   5.549   2.185  12.516  0.1922 -0.8775 -1.8766
 4952TIP3   OH236270   1.834   6.455  13.910  0.2890  0.1223  0.2652
 4952TIP3    H136271   1.740   6.475  13.907  0.4420  1.2475  1.8915
 4952TIP3    H236272   1.838   6.360  13.925 -0.6260  0.2094  1.1719
 4953TIP3   OH236273   4.451   2.325  12.382  0.0704 -0.5787  0.2978
 4953TIP3    H136274   4.480   2.399  12.329 -1.0581  2.0489  3.1833
 4953TIP3    H236275   4.393   2.275  12.325 -0.3358  1.6103 -1.2515
 4954TIP3   OH236276   3.037   6.401  12.637 -0.0849  0.0592 -0.1316
 4954TIP3    H136277   3.091   6.350  12.697  0.9340  0.5643 -0.6250
 4954TIP3    H236278   2.947   6.375  12.658  0.1810  1.1306  2.4361
 4955TIP3   OH236279   0.024   2.495   2.255 -0.0074  0.1554  0.1111
 4955TIP3    H136280  -0.008   2.466   2.341 -0.8106 -3.5309 -1.3593
 4955TIP3    H236281  -0.055   2.523   2.209  0.0343 -0.5881 -0.4189
 4956TIP3   OH236282   3.310   3.553   6.314  0.0877  0.0457  0.0245
 4956TIP3    H136283   3.234   3.611   6.316  0.2926  0.4061 -1.9671
 4956TIP3    H236284   3.338   3.553   6.223  3.5459  1.2790  1.0284
 4957TIP3   OH236285   2.786   5.683  16.074  0.3834 -0.3956  0.0007
 4957TIP3    H136286   2.774   5.777  16.086 -1.0843 -0.4753 -0.6588
 4957TIP3    H236287   2.812   5.674  15.982  0.1824 -0.6485 -0.0337
 4958TIP3   OH236288   0.598   3.174  11.076 -0.2965 -0.4980  0.5832
 4958TIP3    H136289   0.566   3.196  10.988 -0.5496 -2.7047  0.0841
 4958TIP3    H236290   0.676   3.121  11.060  0.0551 -0.3177  1.7129
 4959TIP3   OH236291   2.276   4.669   3.232  0.2250 -0.7941 -0.2274
 4959TIP3    H136292   2.249   4.758   3.208  1.1957 -0.7704 -1.2733
 4959TIP3    H236293   2.205   4.613   3.199  0.8492 -0.6317 -1.9254
 4960TIP3   OH236294   5.763   1.360  14.809  0.2262  0.1848 -0.2464
 4960TIP3    H136295   5.793   1.349  14.719  1.4135 -0.0575  0.1764
 4960TIP3    H236296   5.670   1.334  14.806  0.1443  0.5943 -1.4743
 4961TIP3   OH236297   3.459   0.904  15.250  0.8456 -0.3521  0.1245
 4961TIP3    H136298   3.371   0.941  15.252  0.6867 -0.7320  0.1541
 4961TIP3    H236299   3.475   0.875  15.340  1.0148 -0.2488  0.1289
 4962TIP3   OH236300   5.387   2.022  10.558  0.3750 -0.1907 -0.1300
 4962TIP3    H136301   5.420   2.099  10.510  0.4248 -1.0251 -1.4499
 4962TIP3    H236302   5.296   2.045  10.580  1.2217  1.3635  1.9121
 4963TIP3   OH236303   2.312   1.997   4.389 -0.5105  0.8678  0.0828
 4963TIP3    H136304   2.402   1.972   4.372 -0.5680  0.0447  0.9820
 4963TIP3    H236305   2.316   2.090   4.410 -0.1226  1.3108 -1.8634
 4964TIP3   OH236306   6.618   5.653  16.058  0.1822 -0.0816  0.0441
 4964TIP3    H136307   6.607   5.584  15.993 -0.3471 -0.4097  0.4730
 4964TIP3    H236308   6.669   5.611  16.128  1.5899  0.5502 -0.5878
 4965TIP3   OH236309   0.214   6.177  12.829  0.1699  0.5425  0.0098
 4965TIP3    H136310   0.262   6.239  12.775  0.6932 -0.6679 -0.9347
 4965TIP3    H236311   0.122   6.199  12.816  0.3964  1.7838  0.4991
 4966TIP3   OH236312   5.847   1.951  12.834 -0.0119 -0.0057 -0.0265
 4966TIP3    H136313   5.827   1.899  12.756  1.2365 -1.6609  0.7284
 4966TIP3    H236314   5.898   2.025  12.802  1.2721 -1.1671 -0.6737
 4967TIP3   OH236315   2.806   6.200   4.348 -0.4400 -0.3673 -0.3404
 4967TIP3    H136316   2.806   6.259   4.272  1.0199  1.9925  1.4153
 4967TIP3    H236317   2.729   6.226   4.398  1.5894  1.8892  1.7383
 4968TIP3   OH236318   6.295   4.940   3.755  0.7720 -0.4943 -0.2704
 4968TIP3    H136319   6.213   4.967   3.797 -0.8376 -1.8251 -2.4222
 4968TIP3    H236320   6.303   4.847   3.776  1.5921 -0.4312 -0.2938
 4969TIP3   OH236321   4.239   1.271  15.823  0.2785 -0.0295 -0.1576
 4969TIP3    H136322   4.169   1.314  15.872 -2.0832 -0.6592 -2.8325
 4969TIP3    H236323   4.277   1.209  15.885 -1.5548  0.2949  1.3542
 4970TIP3   OH236324   2.741   5.150  16.351 -0.4857 -0.3459  0.1004
 4970TIP3    H136325   2.774   5.061  16.362  0.6640  0.2736  2.0145
 4970TIP3    H236326   2.677   5.161  16.421 -0.2850  0.4735  0.1705
 4971TIP3   OH236327   3.042   2.216  17.133 -0.0623  0.2888  0.0593
 4971TIP3    H136328   3.129   2.251  17.110  0.1251 -0.3190 -0.1742
 4971TIP3    H236329   2.999   2.202  17.048  0.4403 -1.4837  0.0699
 4972TIP3   OH236330   5.679   6.042  12.734 -0.1316 -0.1787  0.2510
 4972TIP3    H136331   5.734   6.010  12.663 -0.5670  0.7419 -0.5044
 4972TIP3    H236332   5.590   6.022  12.706 -0.2799 -0.1995  0.7372
 4973TIP3   OH236333   1.203   4.344   3.743 -0.0036  0.3857 -0.0701
 4973TIP3    H136334   1.263   4.396   3.796  0.3332 -0.0970  0.0331
 4973TIP3    H236335   1.251   4.328   3.661  1.0170 -2.0305  0.9266
 4974TIP3   OH236336   6.456   4.237   3.042  1.1394 -0.1381 -0.0342
 4974TIP3    H136337   6.378   4.197   3.003  2.0747 -0.6031 -1.4601
 4974TIP3    H236338   6.433   4.250   3.134 -1.0560  0.8708 -0.6993
 4975TIP3   OH236339   4.675   5.847   0.125 -0.0784 -0.0595  0.1755
 4975TIP3    H136340   4.630   5.923   0.089  1.6033 -0.1460 -2.2560
 4975TIP3    H236341   4.738   5.882   0.186 -1.0127  0.3007  0.9482
 4976TIP3   OH236342   2.049   4.880   1.889 -0.8119  0.1828 -0.0853
 4976TIP3    H136343   1.957   4.858   1.906 -0.5887  0.1752  1.1635
 4976TIP3    H236344   2.097   4.836   1.958 -0.0247  1.5883  0.2843
 4977TIP3   OH236345   0.111   1.058  15.711  0.1027 -0.4988 -0.3217
 4977TIP3    H136346   0.167   1.135  15.705 -2.1114  1.2749  0.6069
 4977TIP3    H236347   0.108   1.037  15.804 -0.4056 -0.8473 -0.4110
 4978TIP3   OH236348   2.937   1.126   2.446  0.0649 -0.6553  0.5676
 4978TIP3    H136349   3.003   1.116   2.515 -0.1937  0.2173  0.9396
 4978TIP3    H236350   2.913   1.036   2.424 -1.5722 -0.9336  3.2603
 4979TIP3   OH236351   3.658   0.590   2.122  0.0661 -0.2320  0.4978
 4979TIP3    H136352   3.652   0.571   2.028 -1.0417 -1.2758  0.7625
 4979TIP3    H236353   3.750   0.612   2.136  0.1610  0.3143 -0.9022
 4980TIP3   OH236354   0.425   4.808   4.467 -0.0313 -0.1744 -0.6160
 4980TIP3    H136355   0.422   4.713   4.452 -0.9392 -0.0319 -1.3676
 4980TIP3    H236356   0.476   4.818   4.547 -1.6363 -1.4370  0.6030
 4981TIP3   OH236357   0.064   4.409  11.591  0.5346 -0.3275 -0.4117
 4981TIP3    H136358   0.145   4.369  11.560  1.2437  1.3001 -0.7596
 4981TIP3    H236359   0.046   4.366  11.674  1.4777 -1.0771 -0.5838
 4982TIP3   OH236360   6.038   2.979  12.327  0.2001  0.1807  0.1956
 4982TIP3    H136361   5.981   2.910  12.360  1.0242 -1.2196 -1.2346
 4982TIP3    H236362   6.126   2.950  12.351  0.6567  0.0813 -1.5371
 4983TIP3   OH236363   3.870   4.769   1.743  0.4767  0.4881 -0.4331
 4983TIP3    H136364   3.787   4.757   1.698  0.3215 -0.0741 -0.0012
 4983TIP3    H236365   3.868   4.706   1.815  1.4572  0.1633 -0.6757
 4984TIP3   OH236366   4.980   2.588   0.868  0.2104  0.3675 -0.2988
 4984TIP3    H136367   4.943   2.580   0.956 -0.9447  0.5828 -0.7511
 4984TIP3    H236368   4.932   2.661   0.828 -0.4351 -0.7865 -1.6766
 4985TIP3   OH236369   6.138   2.245  13.996 -1.1650 -0.1318  0.0859
 4985TIP3    H136370   6.129   2.261  13.902 -0.5139  1.7524  0.3225
 4985TIP3    H236371   6.048   2.248  14.029 -1.1236  2.9219  0.0622
 4986TIP3   OH236372   4.898   0.716  16.689  0.2951  0.2352  0.3594
 4986TIP3    H136373   4.861   0.803  16.674  0.9621  0.5114  0.3261
 4986TIP3    H236374   4.843   0.678  16.758 -0.6544  0.2697 -0.3648
 4987TIP3   OH236375   1.078   2.107   1.116  0.2325  0.5207  0.2875
 4987TIP3    H136376   1.112   2.146   1.196 -1.6404  2.0349  0.3717
 4987TIP3    H236377   0.999   2.060   1.143  0.8828 -0.9291 -0.2932
 4988TIP3   OH236378   6.777   2.069   0.724  0.5092 -0.1566 -0.4452
 4988TIP3    H136379   6.806   2.158   0.707  0.4485  0.1659  1.0679
 4988TIP3    H236380   6.685   2.068   0.697 -0.6666  1.3796  3.1757
 4989TIP3   OH236381   5.599   1.452   5.685 -0.1790 -0.1361 -0.9894
 4989TIP3    H136382   5.635   1.533   5.720 -0.0301 -0.5851 -0.0845
 4989TIP3    H236383   5.672   1.389   5.688 -0.5225 -0.5347 -0.8862
 4990TIP3   OH236384   3.891   1.494   5.459 -0.3483 -0.0186 -0.0355
 4990TIP3    H136385   3.982   1.517   5.440  0.4445 -1.1219  2.2288
 4990TIP3    H236386   3.840   1.567   5.424  1.2144 -0.3675 -3.2237
 4991TIP3   OH236387   1.912   3.072  11.395  0.4260 -0.4181 -0.1907
 4991TIP3    H136388   1.878   3.086  11.483  0.6610 -0.6012 -0.0700
 4991TIP3    H236389   2.006   3.060  11.407  0.3512 -1.2410 -0.3841
 4992TIP3   OH236390   6.780   5.018  14.155  0.0034  0.0148 -0.4126
 4992TIP3    H136391   6.765   4.938  14.204  1.0085  0.2166  0.2610
 4992TIP3    H236392   6.716   5.016  14.084 -1.9094  0.0178  1.2669
 4993TIP3   OH236393   3.194   1.192   6.613  0.0581  0.1514  0.2001
 4993TIP3    H136394   3.267   1.164   6.668  0.9610 -1.3777 -1.7118
 4993TIP3    H236395   3.126   1.126   6.627 -1.1791  1.8076  2.3108
 4994TIP3   OH236396   3.632   1.676  12.058  0.2370  0.1248 -0.1498
 4994TIP3    H136397   3.571   1.737  12.100 -1.6757 -0.0327 -2.5640
 4994TIP3    H236398   3.665   1.622  12.129 -0.9619  1.5213  1.4936
 4995TIP3   OH236399   5.217   1.583   5.739 -0.2256  0.5299 -0.0935
 4995TIP3    H136400   5.152   1.608   5.806 -0.3691 -0.1483  0.0199
 4995TIP3    H236401   5.276   1.523   5.785  0.1215  0.6566 -0.3736
 4996TIP3   OH236402   5.680   4.421  11.895 -0.2547  0.0481  0.2810
 4996TIP3    H136403   5.674   4.468  11.978  0.6504 -2.7741  2.0421
 4996TIP3    H236404   5.596   4.439  11.851 -2.4923 -1.5622  3.6424
 4997TIP3   OH236405   5.998   3.904   0.335  0.2149 -0.2808  0.1567
 4997TIP3    H136406   5.911   3.888   0.371 -0.0841 -0.8816 -0.8161
 4997TIP3    H236407   6.056   3.848   0.386 -0.2461 -1.3506 -0.4712
 4998TIP3   OH236408   2.014   1.178  11.380 -0.1578 -0.9986  0.1050
 4998TIP3    H136409   1.951   1.114  11.413 -1.2996 -0.2423 -0.5744
 4998TIP3    H236410   2.003   1.176  11.285 -0.0603  0.0635  0.0691
 4999TIP3   OH236411   0.739   3.433   3.129  0.8441  0.0058  0.1607
 4999TIP3    H136412   0.688   3.363   3.088  1.4339 -0.9334  1.0019
 4999TIP3    H236413   0.688   3.459   3.205  0.2875  0.9937 -0.5261
 5000TIP3   OH236414   1.355   6.138   0.039  0.4651 -0.0952 -0.7083
 5000TIP3    H136415   1.305   6.063   0.008 -0.3776  0.7360 -1.3971
 5000TIP3    H236416   1.397   6.173  -0.040 -0.4729  1.1288 -0.6722
 5001TIP3   OH236417   3.242   5.665   0.425 -0.5746 -0.1470 -0.4964
 5001TIP3    H136418   3.275   5.743   0.381  1.2275  0.0612  1.1607
 5001TIP3    H236419   3.172   5.696   0.481 -0.3504  0.1647 -0.3901
 5002TIP3   OH236420   1.709   2.200  14.166 -0.4660  0.1214 -0.1148
 5002TIP3    H136421   1.717   2.114  14.124  1.6005 -0.1748  0.8356
 5002TIP3    H236422   1.737   2.186  14.256  2.5488  2.3224 -0.6179
 5003TIP3   OH236423   2.096   4.002  14.549 -0.1663 -0.2152 -0.3385
 5003TIP3    H136424   2.096   3.928  14.609  0.1716  0.0340 -0.0342
 5003TIP3    H236425   2.003   4.019  14.533 -0.4026  2.2337  3.2054
 5004TIP3   OH236426   2.763   0.060  15.397 -0.3148 -0.1391 -0.6285
 5004TIP3    H136427   2.858   0.053  15.404 -0.1867  0.5773 -1.5451
 5004TIP3    H236428   2.732  -0.030  15.387 -0.0210 -0.6862  2.9287
 5005TIP3   OH236429   1.945   3.795   2.977  0.2025 -0.7451  0.5232
 5005TIP3    H136430   1.981   3.752   2.899  1.1410  1.6275 -0.4085
 5005TIP3    H236431   1.972   3.740   3.050  0.4871 -2.2722 -0.7148
 5006TIP3   OH236432   3.818   4.204  15.901 -0.1238 -0.1867 -0.1758
 5006TIP3    H136433   3.834   4.259  15.977  1.1452  0.5545 -0.9704
 5006TIP3    H236434   3.751   4.251  15.851  0.0958  0.0469 -0.2513
 5007TIP3   OH236435   2.236   5.477  16.139  0.1225  0.0410 -0.3372
 5007TIP3    H136436   2.299   5.411  16.167  0.4718  0.6793  0.4001
 5007TIP3    H236437   2.151   5.434  16.144  0.5382 -0.9927 -1.8492
 5008TIP3   OH236438   1.617   6.019   4.845 -0.0399  0.1202 -0.1930
 5008TIP3    H136439   1.648   6.096   4.893 -0.9464 -0.5808  1.5924
 5008TIP3    H236440   1.651   5.945   4.895 -0.7281 -0.6313 -0.8238
 5009TIP3   OH236441   2.313   4.628   3.960  0.1905  0.6493  0.4041
 5009TIP3    H136442   2.335   4.646   4.051  2.2438  0.0845  0.0364
 5009TIP3    H236443   2.339   4.707   3.913  2.3604 -0.3531 -0.1561
 5010TIP3   OH236444   5.262   1.783  13.040  0.1273  0.3522 -0.7744
 5010TIP3    H136445   5.172   1.808  13.060 -0.2345  0.0726 -2.0081
 5010TIP3    H236446   5.303   1.864  13.011  0.0096  0.2923 -1.1116
 5011TIP3   OH236447   4.949   3.207   6.226 -0.2294  0.2890 -0.3921
 5011TIP3    H136448   4.919   3.266   6.296  0.6610  1.3992 -0.9224
 5011TIP3    H236449   5.044   3.207   6.233 -0.2093 -0.9230 -0.5532
 5012TIP3   OH236450   3.061   5.397   5.599 -0.1921  0.3076  0.2060
 5012TIP3    H136451   3.086   5.488   5.612  2.0623 -0.0623 -1.3297
 5012TIP3    H236452   3.108   5.349   5.667  0.3950  0.0387 -0.3844
 5013TIP3   OH236453   3.238   5.815  15.505 -0.3425 -0.8995  0.2584
 5013TIP3    H136454   3.145   5.798  15.522 -0.7130  0.4023 -0.4212
 5013TIP3    H236455   3.273   5.730  15.479 -1.0622 -1.6653  1.7188
 5014TIP3   OH236456   3.328   1.824  16.373  0.0847 -0.5991 -0.1437
 5014TIP3    H136457   3.295   1.880  16.302  4.0748  2.8035  0.4166
 5014TIP3    H236458   3.376   1.755  16.328  1.2850  0.6699 -0.8787
 5015TIP3   OH236459   1.159   3.905  17.222  0.0670 -0.5364  0.1339
 5015TIP3    H136460   1.148   3.810  17.216  2.8788 -0.9037 -0.0219
 5015TIP3    H236461   1.107   3.940  17.150 -0.3384 -2.0161 -0.3092
 5016TIP3   OH236462   2.493   4.106   1.548  0.5064 -0.0868 -0.2715
 5016TIP3    H136463   2.546   4.171   1.502  0.7474  0.4388  0.7325
 5016TIP3    H236464   2.497   4.132   1.640  2.3980 -2.7462  0.4569
 5017TIP3   OH236465   1.947   6.304   5.640 -0.1924  0.1927 -0.6474
 5017TIP3    H136466   1.883   6.373   5.657 -2.6290 -1.8494 -1.2335
 5017TIP3    H236467   1.959   6.305   5.545  1.3402  1.1592 -0.4479
 5018TIP3   OH236468   2.788   1.935  13.046 -0.2548 -0.2443  0.2554
 5018TIP3    H136469   2.875   1.940  13.007 -0.3694  1.6539  0.2090
 5018TIP3    H236470   2.768   1.841  13.048  1.8658 -0.7125  0.4646
 5019TIP3   OH236471   3.123   5.069  15.581  0.3093 -0.2102  0.1996
 5019TIP3    H136472   3.129   5.143  15.640  0.4818 -0.2126  0.1862
 5019TIP3    H236473   3.198   5.014  15.604  0.4946 -0.1104 -0.1562
 5020TIP3   OH236474   0.512   4.959  16.067  0.0567 -0.3364  0.1115
 5020TIP3    H136475   0.520   5.045  16.026  1.3259 -1.2017 -1.5054
 5020TIP3    H236476   0.502   4.977  16.160  1.4240  1.5145 -0.0910
 5021TIP3   OH236477   3.574   0.060   5.132 -0.3594 -0.2273  0.5185
 5021TIP3    H136478   3.646   0.100   5.182  0.3222 -0.6218 -0.1277
 5021TIP3    H236479   3.568  -0.029   5.167 -1.9306  0.4440  2.0139
 5022TIP3   OH236480   0.751   5.685   1.447  0.4199  0.1985 -0.1080
 5022TIP3    H136481   0.736   5.596   1.480  1.0052 -0.5490 -1.7922
 5022TIP3    H236482   0.672   5.733   1.470 -1.0889 -1.4970 -1.6022
 5023TIP3   OH236483   2.625   1.611  12.919 -0.1397  0.1168  0.1325
 5023TIP3    H136484   2.705   1.611  12.972  1.0328 -0.1511 -1.5846
 5023TIP3    H236485   2.593   1.702  12.925  0.4572  0.3057  0.5727
 5024TIP3   OH236486   5.938   3.365   5.662 -0.3206 -0.2778 -0.4041
 5024TIP3    H136487   5.986   3.359   5.580 -1.3741  0.2175 -1.0696
 5024TIP3    H236488   5.925   3.274   5.690  0.2195 -0.4362 -0.6817
 5025TIP3   OH236489   2.707   0.619  16.601  0.4743  0.1661  0.3475
 5025TIP3    H136490   2.784   0.654  16.646 -0.2545 -1.4793  3.0011
 5025TIP3    H236491   2.651   0.695  16.587  2.0861  1.2009 -0.6066
 5026TIP3   OH236492   5.957   4.288   0.863  0.3958  0.0943  0.0185
 5026TIP3    H136493   5.990   4.306   0.776  0.0196 -1.2414 -0.4133
 5026TIP3    H236494   6.034   4.263   0.914  1.0129  3.2942  0.7723
 5027TIP3   OH236495   2.030   5.911  13.795  0.2488 -0.3359 -0.0493
 5027TIP3    H136496   1.935   5.921  13.795  0.2529 -0.2581 -1.2379
 5027TIP3    H236497   2.044   5.818  13.811 -0.0123 -0.2939  0.4517
 5028TIP3   OH236498   0.204   5.361  12.440  0.0928  0.3866  0.6176
 5028TIP3    H136499   0.122   5.365  12.490  0.0793  0.0297  0.6253
 5028TIP3    H236500   0.270   5.395  12.501 -0.0792  0.8524  0.5479
 5029TIP3   OH236501   5.348   6.227   6.237 -0.0437  0.0254  0.6646
 5029TIP3    H136502   5.349   6.134   6.212  0.5739 -0.2370  1.6318
 5029TIP3    H236503   5.282   6.232   6.306 -1.7693  0.7517 -0.9890
 5030TIP3   OH236504   1.410   4.289   1.966  0.0124  0.6240  0.0798
 5030TIP3    H136505   1.316   4.305   1.972 -0.0725  1.5978 -3.1559
 5030TIP3    H236506   1.420   4.197   1.988 -1.5073  0.8232  1.7623
 5031TIP3   OH236507   2.167   2.031   5.017  0.0174 -0.8329 -0.4400
 5031TIP3    H136508   2.197   1.943   4.993 -1.1391 -1.5925  0.8032
 5031TIP3    H236509   2.200   2.087   4.947  1.9227 -2.0425 -0.5608
 5032TIP3   OH236510   5.329   3.953  11.390  0.1418 -0.2352 -0.2590
 5032TIP3    H136511   5.313   3.992  11.304 -1.9225 -1.6080 -0.5340
 5032TIP3    H236512   5.250   3.901  11.408  0.6427 -0.1489  2.3634
 5033TIP3   OH236513   1.470   4.271  14.917  0.1785  0.1338  0.1985
 5033TIP3    H136514   1.488   4.202  14.853 -0.0693 -0.2946  0.5824
 5033TIP3    H236515   1.532   4.254  14.988 -0.1241  0.0842  0.4548
 5034TIP3   OH236516   5.199   2.920   3.938 -1.0559 -0.4183 -0.2895
 5034TIP3    H136517   5.161   2.934   4.025  1.4572 -0.2624  0.8088
 5034TIP3    H236518   5.290   2.946   3.947 -0.7256 -0.5400 -2.9571
 5035TIP3   OH236519   5.602   2.953  13.650  0.0410  0.5591 -0.1368
 5035TIP3    H136520   5.528   3.012  13.666  0.3265  1.1397 -0.8995
 5035TIP3    H236521   5.578   2.871  13.692  0.0161  1.5003  1.7121
 5036TIP3   OH236522   5.475   5.515   5.580  0.7907 -0.3877  0.0126
 5036TIP3    H136523   5.431   5.556   5.654  0.6567 -0.8436  0.1867
 5036TIP3    H236524   5.544   5.461   5.620  1.5573  0.3900 -0.2616
 5037TIP3   OH236525   4.056   6.390   5.528 -0.1507  0.5933 -0.4459
 5037TIP3    H136526   4.038   6.359   5.617  0.0488  0.6110 -0.4002
 5037TIP3    H236527   4.070   6.310   5.477 -2.3628  0.4573 -0.9252
 5038TIP3   OH236528   5.693   2.912   2.296  0.3801 -0.1864 -0.3614
 5038TIP3    H136529   5.733   2.831   2.267  0.1721 -1.5344  2.8833
 5038TIP3    H236530   5.766   2.966   2.326  0.3911  0.2852 -1.2184
 5039TIP3   OH236531   4.552   5.438   5.712  0.6656 -0.2066 -0.5659
 5039TIP3    H136532   4.586   5.421   5.624 -0.5503 -0.3788 -1.0075
 5039TIP3    H236533   4.611   5.505   5.747 -0.0398  1.3472 -2.2648
 5040TIP3   OH236534   1.897   4.605  11.127  0.3541 -0.2425 -0.1743
 5040TIP3    H136535   1.976   4.618  11.074  0.1727  0.1977 -0.3378
 5040TIP3    H236536   1.829   4.586  11.063  0.0214  0.8109 -0.1447
 5041TIP3   OH236537   2.600   0.635  14.218 -0.0092 -0.0181  0.6610
 5041TIP3    H136538   2.535   0.693  14.259 -1.4396 -0.7463 -0.5278
 5041TIP3    H236539   2.652   0.602  14.291 -0.4436  1.2262  1.5524
 5042TIP3   OH236540   0.608   6.147   6.771 -0.1259  0.0759  0.4169
 5042TIP3    H136541   0.604   6.170   6.864  0.7545  3.6033 -0.3689
 5042TIP3    H236542   0.524   6.176   6.736  1.1348  2.5665 -0.6578
 5043TIP3   OH236543   2.058   0.883  12.322  0.2759 -0.2613 -0.5835
 5043TIP3    H136544   2.104   0.825  12.262  0.6157 -1.6015  0.9333
 5043TIP3    H236545   2.036   0.960  12.269  0.6975 -1.3351 -2.3655
 5044TIP3   OH236546   2.425   1.833   1.367 -0.5315  0.2843 -0.1548
 5044TIP3    H136547   2.399   1.802   1.281 -2.0992  2.2376 -0.4058
 5044TIP3    H236548   2.503   1.782   1.388  1.0650  1.1735 -3.5734
 5045TIP3   OH236549   0.526   5.182   4.787  0.9828 -0.0922  0.0819
 5045TIP3    H136550   0.548   5.160   4.696  2.4659 -1.1090  0.6683
 5045TIP3    H236551   0.547   5.275   4.795  0.8276  0.0040 -0.6334
 5046TIP3   OH236552   6.164   5.064   2.520 -0.1215  0.9035  0.3471
 5046TIP3    H136553   6.257   5.052   2.503  0.0188  0.7234  1.2211
 5046TIP3    H236554   6.141   4.992   2.579 -0.9487  0.5967 -0.3320
 5047TIP3   OH236555   5.631   0.441   3.666 -0.5291 -0.0214  0.6358
 5047TIP3    H136556   5.620   0.519   3.719 -1.9890  0.5185 -0.4314
 5047TIP3    H236557   5.724   0.441   3.643 -0.6603  1.8334  0.0139
 5048TIP3   OH236558   1.342   5.539   0.195 -0.1619 -0.1524 -0.2334
 5048TIP3    H136559   1.316   5.588   0.117  0.6856  1.5373  0.5204
 5048TIP3    H236560   1.276   5.469   0.202 -1.4698  0.9414 -1.2571
 5049TIP3   OH236561   2.828   3.011  13.413  0.2870  0.3792 -0.1516
 5049TIP3    H136562   2.856   3.064  13.338 -0.3568 -1.5265 -1.7776
 5049TIP3    H236563   2.870   2.926  13.401 -2.6424 -1.1158 -0.3176
 5050TIP3   OH236564   3.422   3.717   0.276 -0.0388  0.4338  0.1918
 5050TIP3    H136565   3.406   3.722   0.370  0.5725 -0.1340  0.3299
 5050TIP3    H236566   3.400   3.804   0.243 -0.8120  0.4587  0.7727
 5051TIP3   OH236567   5.116   2.895   1.950 -0.3193  0.1027 -0.2883
 5051TIP3    H136568   5.064   2.975   1.943  0.1737  0.5243  0.8219
 5051TIP3    H236569   5.113   2.857   1.862  0.9120  2.2587 -1.3036
 5052TIP3   OH236570   4.329   3.607   5.301  0.1776 -0.4509  0.1979
 5052TIP3    H136571   4.294   3.647   5.380  2.0940 -0.4714  1.0869
 5052TIP3    H236572   4.408   3.562   5.330  0.5768 -0.9775 -1.6267
 5053TIP3   OH236573   5.008   2.506  13.938  0.0086  0.2494 -0.2643
 5053TIP3    H136574   5.034   2.481  13.850  2.0774  1.9078 -0.1553
 5053TIP3    H236575   4.948   2.579  13.926 -0.5135 -0.1767 -0.3074
 5054TIP3   OH236576   5.893   3.426   4.610 -0.4075 -0.3007  0.0401
 5054TIP3    H136577   5.798   3.423   4.600 -0.3120 -1.4819 -0.5873
 5054TIP3    H236578   5.907   3.435   4.704 -1.1467  0.9399  0.0473
 5055TIP3   OH236579   2.565   2.443   2.545 -0.4944 -0.3012  0.0343
 5055TIP3    H136580   2.584   2.389   2.468 -0.2866 -0.1019 -0.0561
 5055TIP3    H236581   2.576   2.533   2.513 -0.2233 -0.2246  0.3494
 5056TIP3   OH236582   5.050   1.747   4.570  0.5050 -0.1750  0.3357
 5056TIP3    H136583   5.140   1.716   4.581  0.7968  1.2349  2.0002
 5056TIP3    H236584   5.005   1.720   4.650 -0.5800 -0.8897 -0.4970
 5057TIP3   OH236585   0.109   0.417  12.913  0.2424  0.3950 -0.1031
 5057TIP3    H136586   0.194   0.394  12.874  0.9388  0.4637  1.3343
 5057TIP3    H236587   0.118   0.394  13.005 -2.1702 -1.8871 -0.3915
 5058TIP3   OH236588   2.017   5.807   2.624 -0.0923  0.3430  0.2267
 5058TIP3    H136589   1.925   5.783   2.616  0.9626 -3.6607 -1.1834
 5058TIP3    H236590   2.050   5.750   2.694  1.1406  2.3764  1.3503
 5059TIP3   OH236591   4.089   6.240  14.603 -0.2243  0.1488 -0.1751
 5059TIP3    H136592   4.027   6.196  14.662 -1.6081  0.9381 -1.0338
 5059TIP3    H236593   4.036   6.304  14.556  1.3848  1.3144 -0.4220
 5060TIP3   OH236594   0.321   6.668   3.538 -0.2353 -0.9568 -0.5766
 5060TIP3    H136595   0.333   6.706   3.451 -0.7349  0.0060 -0.2363
 5060TIP3    H236596   0.339   6.575   3.526  0.3593 -0.7289 -1.5681
 5061TIP3   OH236597   0.688   0.935   0.213 -0.0080 -0.2256 -0.0636
 5061TIP3    H136598   0.775   0.929   0.252  0.2008  0.8374 -0.3457
 5061TIP3    H236599   0.666   1.028   0.218 -1.2888 -0.5513  0.3435
 5062TIP3   OH236600   2.168   4.852   4.132 -0.4743  0.1974  0.1822
 5062TIP3    H136601   2.145   4.912   4.060 -0.6244  0.2189  0.2486
 5062TIP3    H236602   2.129   4.769   4.107  1.0130 -0.2651 -0.6512
 5063TIP3   OH236603   5.258   1.365   0.407  0.0121 -0.4946 -0.2374
 5063TIP3    H136604   5.234   1.343   0.497 -1.0472 -0.8448 -0.5998
 5063TIP3    H236605   5.246   1.283   0.359 -0.3808 -0.0604 -0.8799
 5064TIP3   OH236606   6.292   3.235  16.987 -0.4399 -0.4037  0.0443
 5064TIP3    H136607   6.353   3.277  16.926 -1.2238 -1.1313 -1.2297
 5064TIP3    H236608   6.299   3.289  17.067  2.3780 -0.8661  0.1701
 5065TIP3   OH236609   1.565   6.194  11.939  0.1507 -0.3347 -0.0992
 5065TIP3    H136610   1.656   6.209  11.914 -0.1576 -0.2180 -1.1789
 5065TIP3    H236611   1.559   6.099  11.951  0.1505 -0.4733 -1.1326
 5066TIP3   OH236612   6.654   4.809   5.259 -0.3990  0.0324 -0.4962
 5066TIP3    H136613   6.727   4.760   5.295 -2.1396 -2.1622  0.1428
 5066TIP3    H236614   6.626   4.866   5.330 -1.0968 -1.1725  0.1961
 5067TIP3   OH236615   1.444   3.020   5.207 -0.1307 -0.0716 -0.5000
 5067TIP3    H136616   1.399   2.937   5.220 -0.9767 -0.2416 -3.9532
 5067TIP3    H236617   1.376   3.081   5.180  1.2263  0.3783 -3.0821
 5068TIP3   OH236618   1.071   0.753  14.281  0.2527 -0.2003  0.3701
 5068TIP3    H136619   1.073   0.841  14.243 -0.3694 -0.4344 -0.2185
 5068TIP3    H236620   1.039   0.697  14.209 -0.3362 -0.7411  1.0467
 5069TIP3   OH236621   3.918   1.683  15.545 -0.3641 -0.0787 -0.1743
 5069TIP3    H136622   3.842   1.701  15.601  0.5744 -1.9588  1.7629
 5069TIP3    H236623   3.885   1.621  15.480 -0.7019 -0.2832  0.1854
 5070TIP3   OH236624   3.225   5.914   3.004  0.4230 -0.0897  0.0189
 5070TIP3    H136625   3.312   5.905   3.042  0.2395  0.4203  0.5602
 5070TIP3    H236626   3.164   5.887   3.073  0.1486 -0.5099 -0.3793
 5071TIP3   OH236627   2.811   0.987   3.444  0.2683 -0.4943 -0.5450
 5071TIP3    H136628   2.828   1.068   3.492 -0.7727  0.1815 -1.3005
 5071TIP3    H236629   2.873   0.988   3.372 -0.4828  0.1743 -1.1867
 5072TIP3   OH236630   6.625   5.894   6.467 -0.1325  0.0798  0.9070
 5072TIP3    H136631   6.570   5.882   6.390  0.4902  1.5083  0.2187
 5072TIP3    H236632   6.565   5.891   6.541 -0.7766 -0.9882  0.3502
 5073TIP3   OH236633   2.286   1.852   2.892 -0.0689 -0.0716 -0.5761
 5073TIP3    H136634   2.347   1.845   2.818  0.8396 -0.9085  0.2307
 5073TIP3    H236635   2.305   1.938   2.930 -0.9143  0.5893 -1.6327
 5074TIP3   OH236636   6.122   3.671   5.497  0.9878  0.2016 -0.5952
 5074TIP3    H136637   6.084   3.758   5.503  1.7910  0.4224  1.9779
 5074TIP3    H236638   6.054   3.617   5.456 -0.6912  1.3585  0.6133
 5075TIP3   OH236639   6.007   2.803  16.893 -0.1719 -0.0431  0.7187
 5075TIP3    H136640   5.995   2.852  16.812 -2.2464 -1.1165  0.3444
 5075TIP3    H236641   6.036   2.868  16.956 -0.8144  1.2609 -0.3080
 5076TIP3   OH236642   0.803   6.478  15.941 -0.1673 -0.3348  0.4820
 5076TIP3    H136643   0.843   6.391  15.935 -1.3457 -0.7443 -1.8646
 5076TIP3    H236644   0.873   6.538  15.914  0.2440 -0.6518  0.8261
 5077TIP3   OH236645   0.719   3.778   5.245 -0.0082  0.0283  0.2123
 5077TIP3    H136646   0.772   3.857   5.234  1.9730 -0.9585  2.3295
 5077TIP3    H236647   0.666   3.774   5.166  1.6658  2.1280 -1.0795
 5078TIP3   OH236648   0.976   5.972  11.211 -0.7688  0.0905 -0.5215
 5078TIP3    H136649   0.890   6.014  11.203  0.4189  2.5200 -0.9092
 5078TIP3    H236650   0.991   5.933  11.125 -0.7804  1.0635 -0.9723
 5079TIP3   OH236651   5.157   0.003  13.492 -0.3813  0.3510 -0.2756
 5079TIP3    H136652   5.069  -0.020  13.461 -0.5810  0.9410 -0.1638
 5079TIP3    H236653   5.194  -0.079  13.523  0.2029 -0.4520 -3.0075
 5080TIP3   OH236654   4.422   1.041  16.572  0.4853 -0.0532 -0.5156
 5080TIP3    H136655   4.452   0.968  16.626  0.6829 -1.0861 -2.0225
 5080TIP3    H236656   4.452   1.020  16.484 -0.1608  1.4577 -1.1085
 5081TIP3   OH236657   4.174   4.762   2.174 -0.4062  0.7251 -0.3026
 5081TIP3    H136658   4.171   4.686   2.116  0.0567  0.7888 -0.4084
 5081TIP3    H236659   4.255   4.806   2.152  0.3223  0.1457  1.1607
 5082TIP3   OH236660   4.596   5.098  15.834 -0.0008 -0.0850 -0.5707
 5082TIP3    H136661   4.507   5.120  15.807 -0.0380  1.0905  0.4252
 5082TIP3    H236662   4.590   5.086  15.929  0.9275  0.1632 -0.4739
 5083TIP3   OH236663   1.556   1.082   2.450  0.4724 -0.2986  0.6155
 5083TIP3    H136664   1.498   1.136   2.395  0.9290  0.2119  0.6341
 5083TIP3    H236665   1.507   1.073   2.532 -1.1411 -2.8018 -0.5703
 5084TIP3   OH236666   1.439   6.232   3.769 -0.2348  0.0196  0.2843
 5084TIP3    H136667   1.493   6.192   3.701 -1.0005  0.6973 -0.7448
 5084TIP3    H236668   1.476   6.201   3.851  0.7094 -0.8085 -0.4468
 5085TIP3   OH236669   4.782   5.817  12.177 -0.1625 -0.2671 -0.4706
 5085TIP3    H136670   4.865   5.827  12.224  0.4362  1.2681 -1.8349
 5085TIP3    H236671   4.721   5.873  12.225 -0.3104 -1.0582  0.2747
 5086TIP3   OH236672   5.263   3.321  12.680  0.3200  0.0210 -0.0633
 5086TIP3    H136673   5.329   3.284  12.739  1.2857  0.8041 -0.6376
 5086TIP3    H236674   5.312   3.379  12.623 -1.2943  2.8400  1.3334
 5087TIP3   OH236675   1.506   2.950  11.699 -0.2563 -0.5262 -0.3644
 5087TIP3    H136676   1.446   2.894  11.650 -1.2693  0.7024 -0.5681
 5087TIP3    H236677   1.477   3.039  11.679  2.6815  0.1557 -1.8125
 5088TIP3   OH236678   4.410   4.652  16.553  0.2928  0.5275  0.1447
 5088TIP3    H136679   4.322   4.685  16.570  0.4685  0.3829  1.4009
 5088TIP3    H236680   4.460   4.676  16.631  0.3265 -3.0649  1.3089
 5089TIP3   OH236681   2.272   1.095  14.727 -0.3547  0.2867 -0.3124
 5089TIP3    H136682   2.359   1.132  14.716 -0.7632  1.1658 -0.6528
 5089TIP3    H236683   2.264   1.078  14.821 -0.5904  2.1479  0.0134
 5090TIP3   OH236684   5.084   2.514   5.143  0.4243  0.0314  0.0106
 5090TIP3    H136685   5.162   2.461   5.124  0.4540  0.1488 -0.1935
 5090TIP3    H236686   5.118   2.593   5.184  0.5376  0.7444 -1.4253
 5091TIP3   OH236687   5.419   2.806  12.137  0.2640 -0.2115  0.0212
 5091TIP3    H136688   5.414   2.849  12.051 -0.1412 -0.7428 -0.2302
 5091TIP3    H236689   5.460   2.870  12.194 -0.0647  0.3968 -0.4192
 5092TIP3   OH236690   6.104   5.665   5.683  0.3835  0.8824 -0.3600
 5092TIP3    H136691   6.077   5.574   5.689  1.0498  0.7547  0.8079
 5092TIP3    H236692   6.123   5.678   5.590  1.6078 -0.5438 -0.3234
 5093TIP3   OH236693   5.387   5.886   6.545 -0.3336  0.3107  0.0300
 5093TIP3    H136694   5.379   5.819   6.612 -1.3440  0.3865 -0.0066
 5093TIP3    H236695   5.393   5.968   6.594 -0.7737  0.3395  0.0383
 5094TIP3   OH236696   1.073   5.821   1.433 -0.2751  0.2581 -0.3232
 5094TIP3    H136697   1.128   5.816   1.511  1.0274  1.2076 -1.1550
 5094TIP3    H236698   1.061   5.730   1.406 -0.4810 -0.0569  0.8085
 5095TIP3   OH236699   3.644   4.362  15.734 -0.5189  0.0766  0.4809
 5095TIP3    H136700   3.671   4.453  15.746 -1.0836  0.4425 -0.9231
 5095TIP3    H236701   3.670   4.340  15.644 -0.0156 -1.2852  0.9349
 5096TIP3   OH236702   4.364   4.381  11.738 -0.4505  0.0937 -0.5271
 5096TIP3    H136703   4.294   4.409  11.798 -0.9981 -0.4552 -0.8974
 5096TIP3    H236704   4.334   4.295  11.706  1.4546 -1.1909  1.0197
 5097TIP3   OH236705   4.624   6.739  10.580  0.1900 -0.2304  0.3003
 5097TIP3    H136706   4.642   6.824  10.541 -0.4699 -1.1524 -2.1450
 5097TIP3    H236707   4.707   6.712  10.619  1.1490  0.3074 -1.3381
 5098TIP3   OH236708   5.089   1.042   2.376 -0.6437 -0.1439 -0.2456
 5098TIP3    H136709   5.034   1.114   2.344  0.7779  1.0579 -0.0136
 5098TIP3    H236710   5.133   1.077   2.453  1.8280 -0.4807 -1.4649
 5099TIP3   OH236711   4.670   3.823  10.935 -0.1414  0.1049 -0.2865
 5099TIP3    H136712   4.623   3.885  10.878 -0.4578 -1.6549 -1.9938
 5099TIP3    H236713   4.714   3.764  10.874 -0.5673 -1.8970  1.3072
 5100TIP3   OH236714   0.453   0.271  11.174  0.0624 -0.4561 -0.2292
 5100TIP3    H136715   0.446   0.203  11.241 -1.0328 -0.8601 -0.7452
 5100TIP3    H236716   0.454   0.223  11.091 -0.6914  0.1499 -0.5957
 5101TIP3   OH236717   0.776   5.568  13.161  0.0917 -0.2944  0.0372
 5101TIP3    H136718   0.782   5.490  13.106  2.2887 -0.7929  0.9033
 5101TIP3    H236719   0.753   5.639  13.101 -0.5454 -1.3669 -0.9929
 5102TIP3   OH236720   1.353   2.290  12.783  0.1392  0.5044 -0.2843
 5102TIP3    H136721   1.386   2.218  12.728 -0.8567 -0.4133  0.2999
 5102TIP3    H236722   1.422   2.356  12.779  0.7833 -0.2072 -1.3663
 5103TIP3   OH236723   2.609   3.879   1.194  0.0245  0.5529  0.1654
 5103TIP3    H136724   2.549   3.855   1.123  1.4161 -1.6024 -0.3076
 5103TIP3    H236725   2.694   3.844   1.167  1.2425  2.4472  1.4479
 5104TIP3   OH236726   0.667   4.702   3.048  0.6366  0.3026 -0.3317
 5104TIP3    H136727   0.596   4.695   3.111  0.2473 -2.7724 -1.0558
 5104TIP3    H236728   0.745   4.720   3.102 -0.2751  1.3517  0.6597
 5105TIP3   OH236729   3.170   5.963  12.002 -0.2176 -0.9275  0.1541
 5105TIP3    H136730   3.179   6.017  11.924 -5.7253  0.0981  0.0345
 5105TIP3    H236731   3.190   6.022  12.075  0.3431 -0.6198 -0.2420
 5106TIP3   OH236732   6.596   1.075  11.001 -0.5268 -0.1347  0.0002
 5106TIP3    H136733   6.590   0.982  11.022 -0.5721 -0.0473  0.3680
 5106TIP3    H236734   6.533   1.088  10.931  1.1888 -0.8855 -1.7377
 5107TIP3   OH236735   3.930   4.092   3.931 -0.1607  0.4864  0.5033
 5107TIP3    H136736   3.887   4.166   3.889 -0.7045  0.7101  1.4422
 5107TIP3    H236737   3.936   4.116   4.023 -1.6432 -1.2239  1.0881
 5108TIP3   OH236738   0.454   2.732   2.934 -0.0558  0.7199  0.7554
 5108TIP3    H136739   0.428   2.779   2.855  0.5895 -0.5252 -0.2279
 5108TIP3    H236740   0.371   2.701   2.972 -0.4197  1.9384  0.9739
 5109TIP3   OH236741   2.639   0.838   2.098  0.0945  0.1886  0.3328
 5109TIP3    H136742   2.664   0.746   2.102 -1.1682 -0.1893 -0.2399
 5109TIP3    H236743   2.556   0.839   2.051  0.8408  1.7788 -1.0036
 5110TIP3   OH236744   3.243   2.161  11.867  0.1604  0.2150  0.3580
 5110TIP3    H136745   3.317   2.184  11.922 -1.5957  1.8401  2.1083
 5110TIP3    H236746   3.169   2.154  11.928 -1.4014 -0.0462 -1.5126
 5111TIP3   OH236747   3.704   0.287  11.975  0.2491 -0.0681  0.2000
 5111TIP3    H136748   3.697   0.374  12.014  2.2630  0.4011 -0.4209
 5111TIP3    H236749   3.620   0.274  11.930 -0.3433  1.2506  0.8997
 5112TIP3   OH236750   4.119   5.063   2.800 -0.8263  0.0232 -0.2746
 5112TIP3    H136751   4.073   4.988   2.838  1.0901 -0.3636  1.3072
 5112TIP3    H236752   4.176   5.095   2.869  1.0762  0.7091 -2.1059
 5113TIP3   OH236753   6.546   1.106  15.427 -0.2748  0.2991  0.0194
 5113TIP3    H136754   6.550   1.010  15.431 -0.0517  0.2686 -0.9080
 5113TIP3    H236755   6.531   1.126  15.334  0.8656  1.2053  0.0162
 5114TIP3   OH236756   4.361   1.534   3.129  0.2690 -0.1806 -0.2384
 5114TIP3    H136757   4.438   1.486   3.159 -1.5369 -2.8694  0.2560
 5114TIP3    H236758   4.317   1.474   3.069 -0.5735  1.9655 -1.8277
 5115TIP3   OH236759   5.614   2.868  13.339 -0.7155  0.5971 -0.1534
 5115TIP3    H136760   5.583   2.777  13.341 -2.1863  1.1003  0.0702
 5115TIP3    H236761   5.551   2.917  13.391  1.0994  1.4693  1.3148
 5116TIP3   OH236762   0.311   5.764   4.433 -0.0177 -0.0875  0.1477
 5116TIP3    H136763   0.279   5.848   4.402 -0.5298 -0.5348 -0.5587
 5116TIP3    H236764   0.251   5.740   4.504 -0.9125 -0.6562 -0.7916
 5117TIP3   OH236765   5.904   3.144  14.891 -0.2035  0.4213 -0.3234
 5117TIP3    H136766   5.851   3.065  14.904  0.3218  0.1603  0.2518
 5117TIP3    H236767   5.856   3.213  14.937  0.7083 -0.1203  1.4678
 5118TIP3   OH236768   2.409   3.269  14.251 -0.5374  0.6142 -0.1965
 5118TIP3    H136769   2.314   3.255  14.255 -0.7802  1.4894 -2.3410
 5118TIP3    H236770   2.424   3.347  14.304 -1.0954  0.7525 -0.2352
 5119TIP3   OH236771   5.190   0.290   4.449  0.0384  0.4263  0.9898
 5119TIP3    H136772   5.265   0.318   4.395 -0.0676  2.1376  1.7023
 5119TIP3    H236773   5.229   0.256   4.529  0.1466 -1.0809  0.3170
 5120TIP3   OH236774   6.216   0.088   3.044 -0.1318  1.0922  0.2041
 5120TIP3    H136775   6.121   0.094   3.050 -0.2230 -0.1861  0.1370
 5120TIP3    H236776   6.238   0.137   2.966 -0.9580 -0.5099 -1.0644
 5121TIP3   OH236777   2.117   5.352  15.780  0.0453 -0.1451 -0.0108
 5121TIP3    H136778   2.043   5.318  15.730  0.1274  0.2427 -0.4085
 5121TIP3    H236779   2.096   5.445  15.794  1.3903  0.4954 -1.9312
 5122TIP3   OH236780   1.198   4.435  11.288  0.5123 -0.1340  0.7545
 5122TIP3    H136781   1.145   4.460  11.213  1.6127 -0.9304 -0.3229
 5122TIP3    H236782   1.169   4.492  11.359  0.2085  1.3743 -0.5595
 5123TIP3   OH236783   0.268   2.026  13.897 -0.3222  0.6171 -0.4971
 5123TIP3    H136784   0.321   2.091  13.852 -1.5064  1.8418 -0.1602
 5123TIP3    H236785   0.246   1.962  13.829  0.1932  0.9777 -1.0137
 5124TIP3   OH236786   5.811   4.384  16.331  0.0569 -0.1884 -0.2428
 5124TIP3    H136787   5.767   4.367  16.414  1.8942  0.7461  0.9434
 5124TIP3    H236788   5.863   4.305  16.314 -1.5726 -1.0593 -1.3668
 5125TIP3   OH236789   3.560   1.316  15.368 -0.5261 -0.3539 -0.6821
 5125TIP3    H136790   3.602   1.245  15.319  0.5274 -0.8240  0.8496
 5125TIP3    H236791   3.563   1.391  15.309  2.4729 -0.3887 -0.6549
 5126TIP3   OH236792   4.858   2.540   1.109 -0.2728  0.3239  0.1752
 5126TIP3    H136793   4.831   2.580   1.192  0.1133 -2.2946  1.6035
 5126TIP3    H236794   4.781   2.547   1.053 -1.4422 -0.3123  1.6727
 5127TIP3   OH236795   4.501   0.275   1.017  0.4921 -0.2937  0.7021
 5127TIP3    H136796   4.495   0.216   1.092 -0.8118 -0.7659  0.2519
 5127TIP3    H236797   4.441   0.347   1.039  0.2411 -0.3466  0.1859
 5128TIP3   OH236798   2.593   2.336   5.062 -0.0179 -0.0295 -1.2205
 5128TIP3    H136799   2.554   2.292   5.138 -0.2357 -1.5142 -2.1679
 5128TIP3    H236800   2.660   2.276   5.032  0.2886  0.7066 -2.0069
 5129TIP3   OH236801   3.825   1.415   2.104  0.0761 -0.6216  0.3430
 5129TIP3    H136802   3.792   1.392   2.018  0.8306 -1.1166  0.1757
 5129TIP3    H236803   3.780   1.355   2.164 -0.3950 -0.3255  0.2815
 5130TIP3   OH236804   5.021   5.488   2.536 -0.4973  0.4647 -0.2716
 5130TIP3    H136805   5.102   5.461   2.491 -0.0822 -0.1054  0.8028
 5130TIP3    H236806   4.957   5.422   2.510 -0.3759  0.3899 -0.3840
 5131TIP3   OH236807   2.371   4.841   3.807  0.0751  0.3651  0.5809
 5131TIP3    H136808   2.281   4.862   3.783  0.1305  2.0612  1.7042
 5131TIP3    H236809   2.407   4.925   3.836  2.1464 -0.2098 -0.2530
 5132TIP3   OH236810   0.478   1.002   5.617  0.5439  0.0865 -0.0325
 5132TIP3    H136811   0.441   1.083   5.653  2.3413  1.0710 -0.3201
 5132TIP3    H236812   0.514   0.956   5.693  0.1395 -0.1182  0.0377
 5133TIP3   OH236813   6.748   6.670   5.463 -0.4706 -0.7313  0.3294
 5133TIP3    H136814   6.690   6.675   5.388 -1.2741 -0.4149  0.9638
 5133TIP3    H236815   6.799   6.751   5.460  0.9403 -1.6472 -1.0203
 5134TIP3   OH236816   5.008   6.578   3.767 -0.1769  0.4235  0.3174
 5134TIP3    H136817   5.069   6.622   3.826  0.4522 -2.0194  1.5384
 5134TIP3    H236818   5.064   6.526   3.709 -1.0389 -0.9831  0.7280
 5135TIP3   OH236819   2.430   6.654   4.269  0.6584 -0.1406  0.6847
 5135TIP3    H136820   2.452   6.745   4.288 -3.6388  1.0776  0.3418
 5135TIP3    H236821   2.424   6.651   4.173  0.3370 -0.6973  0.7223
 5136TIP3   OH236822   3.353   6.586   5.174 -0.2335  0.0810  0.1525
 5136TIP3    H136823   3.280   6.536   5.212 -0.9337  1.8311  1.1382
 5136TIP3    H236824   3.404   6.616   5.249  0.3853  0.5430 -0.4460
 5137TIP3   OH236825   3.331   2.332  16.495 -0.0385 -0.4747 -0.2330
 5137TIP3    H136826   3.284   2.326  16.412 -0.5133  2.2790 -0.2138
 5137TIP3    H236827   3.321   2.246  16.535 -2.0982 -1.0034 -1.8248
 5138TIP3   OH236828   6.567   5.488   0.195  0.0929 -0.2494  0.4506
 5138TIP3    H136829   6.659   5.461   0.197  0.2430  0.3125  1.5213
 5138TIP3    H236830   6.569   5.583   0.184 -0.4525 -0.6434 -3.7512
 5139TIP3   OH236831   1.168   6.146   3.428  0.0045  0.0497  0.8469
 5139TIP3    H136832   1.089   6.187   3.391  0.7859 -1.4648 -2.7009
 5139TIP3    H236833   1.240   6.202   3.398  0.5407 -0.2878  1.4951
 5140TIP3   OH236834   3.801   2.688   1.718 -0.2846 -0.0440 -0.9587
 5140TIP3    H136835   3.781   2.710   1.809  0.4144 -1.0000 -0.5758
 5140TIP3    H236836   3.811   2.773   1.675  2.3631  0.4368  0.5021
 5141TIP3   OH236837   6.781   4.811  13.815  0.2660  0.0317 -0.1115
 5141TIP3    H136838   6.865   4.825  13.773  0.5497 -0.6122  0.2246
 5141TIP3    H236839   6.801   4.753  13.889 -0.5384 -0.5017 -0.3029
 5142TIP3   OH236840   1.817   0.747  14.283 -0.0612 -0.8228  0.3989
 5142TIP3    H136841   1.903   0.739  14.325  0.0438 -2.3889 -0.0871
 5142TIP3    H236842   1.762   0.790  14.348  1.1211  0.2939  0.6762
 5143TIP3   OH236843   1.523   0.664   1.713 -0.8193 -0.3867 -0.1861
 5143TIP3    H136844   1.597   0.708   1.671 -0.2581 -0.6424  0.5170
 5143TIP3    H236845   1.490   0.728   1.776 -1.1791 -0.2863 -0.4737
 5144TIP3   OH236846   2.542   6.369   2.527  0.4310  0.1785 -0.7332
 5144TIP3    H136847   2.512   6.391   2.615  0.4787 -0.9952 -0.4202
 5144TIP3    H236848   2.554   6.274   2.528 -1.3228 -0.0996 -2.5366
 5145TIP3   OH236849   1.782   4.345   3.929 -0.2828  0.0135 -0.4830
 5145TIP3    H136850   1.725   4.375   3.999 -1.1746  1.3361 -1.7587
 5145TIP3    H236851   1.863   4.396   3.940 -0.2371 -0.1303 -0.1414
 5146TIP3   OH236852   5.059   2.346   2.036  0.0639 -0.1263  0.3707
 5146TIP3    H136853   5.105   2.332   2.118 -0.5741  0.5481  0.8473
 5146TIP3    H236854   5.120   2.316   1.969  0.0830 -1.9157  1.1562
 5147TIP3   OH236855   5.750   4.028  11.450 -0.5540  0.1870  0.0100
 5147TIP3    H136856   5.733   4.120  11.427  1.4447  0.1656 -1.6941
 5147TIP3    H236857   5.717   3.978  11.375 -2.4354 -0.5739  1.3184
 5148TIP3   OH236858   3.538   2.849   0.599  0.2435  0.1178  0.2615
 5148TIP3    H136859   3.620   2.799   0.602  0.3243  0.1384 -1.0534
 5148TIP3    H236860   3.474   2.788   0.564 -0.6295 -0.2844  2.4782
 5149TIP3   OH236861   2.151   3.156   3.761 -0.3222  0.1722 -0.1808
 5149TIP3    H136862   2.203   3.144   3.841 -0.1288  0.7650 -0.2120
 5149TIP3    H236863   2.213   3.139   3.690  0.1879  2.1395 -0.2413
 5150TIP3   OH236864   1.896   2.562  17.072  0.3104 -0.1943  0.1827
 5150TIP3    H136865   1.801   2.554  17.060  0.2290  0.6210  0.2754
 5150TIP3    H236866   1.908   2.644  17.118  1.1199  0.0968 -0.5215
 5151TIP3   OH236867   5.511   0.506   5.512  0.0797  0.6145  0.6670
 5151TIP3    H136868   5.499   0.579   5.574 -1.6013  2.5341 -1.8403
 5151TIP3    H236869   5.426   0.463   5.510  0.2513  0.3129 -0.0376
 5152TIP3   OH236870   3.280   3.205  11.548  0.2850  0.1298 -0.6278
 5152TIP3    H136871   3.225   3.239  11.618  0.3664 -0.3188 -0.3445
 5152TIP3    H236872   3.323   3.128  11.586 -0.0760 -0.4264 -1.3327
 5153TIP3   OH236873   3.747   2.174   0.448 -0.1130 -0.3642  0.7464
 5153TIP3    H136874   3.800   2.119   0.506 -2.5342 -0.8115  2.6291
 5153TIP3    H236875   3.714   2.244   0.505 -0.7383  0.4814 -0.6210
 5154TIP3   OH236876   4.307   6.407   6.616 -0.1230 -0.0897 -0.0362
 5154TIP3    H136877   4.238   6.385   6.554 -1.7900  1.7264  1.1178
 5154TIP3    H236878   4.288   6.355   6.693  1.7344 -2.0602 -0.8424
 5155TIP3   OH236879   5.194   2.170  10.772 -0.2780 -0.5270  0.2854
 5155TIP3    H136880   5.168   2.081  10.748 -0.7842 -0.7069  1.4467
 5155TIP3    H236881   5.274   2.158  10.824 -0.4561 -0.3236  0.6096
 5156TIP3   OH236882   1.760   1.468   1.553  0.9386 -0.2857  0.3467
 5156TIP3    H136883   1.709   1.428   1.482 -0.3118 -2.7989  2.5444
 5156TIP3    H236884   1.851   1.450   1.531  0.4912 -2.3564  0.1136
 5157TIP3   OH236885   2.714   6.354  13.066  0.6152 -0.2889 -0.3636
 5157TIP3    H136886   2.734   6.396  13.150  1.9390  0.1798 -0.8959
 5157TIP3    H236887   2.792   6.304  13.045  0.4060 -0.1620 -1.4663
 5158TIP3   OH236888   3.560   1.929   0.196 -0.0487  0.3536  0.0876
 5158TIP3    H136889   3.536   1.911   0.287 -1.8897 -1.9212 -0.8223
 5158TIP3    H236890   3.495   1.993   0.167  0.6620  1.2361  0.3967
 5159TIP3   OH236891   0.703   1.596   0.887  0.1215 -0.6124 -0.3546
 5159TIP3    H136892   0.673   1.596   0.978  0.4767  2.5801 -0.1984
 5159TIP3    H236893   0.627   1.565   0.837 -0.7866 -0.2892  0.7983
 5160TIP3   OH236894   3.458   3.901  10.804 -0.3471  0.1133 -0.4791
 5160TIP3    H136895   3.444   3.812  10.835 -2.2101  0.3806 -0.4635
 5160TIP3    H236896   3.384   3.918  10.745 -0.0325  1.6428 -0.4698
 5161TIP3   OH236897   0.381   2.353  12.033  0.0588  0.2424 -0.1161
 5161TIP3    H136898   0.299   2.400  12.047  0.0167 -0.3583  1.8511
 5161TIP3    H236899   0.370   2.309  11.948 -0.4661  2.5436 -1.2679
 5162TIP3   OH236900   5.002   5.781  12.333  0.1846 -0.7080  0.3929
 5162TIP3    H136901   5.059   5.845  12.291 -0.4247 -0.4904 -0.1229
 5162TIP3    H236902   5.056   5.703  12.343  1.0825  0.0455  1.4861
 5163TIP3   OH236903   2.384   1.028  15.908  0.2303  0.0686 -0.0612
 5163TIP3    H136904   2.384   1.058  15.817 -0.9926 -0.0536 -0.1127
 5163TIP3    H236905   2.428   0.943  15.906  2.9218  1.4257 -0.0594
 5164TIP3   OH236906   0.897   1.899  12.368  0.1043  0.6158  0.1814
 5164TIP3    H136907   0.869   1.940  12.287  2.7505  2.2263  0.0494
 5164TIP3    H236908   0.884   1.966  12.435 -0.0133  0.0284  0.7524
 5165TIP3   OH236909   6.092   6.136   5.497 -0.0320 -0.3767  0.2061
 5165TIP3    H136910   6.048   6.094   5.571  0.2395  0.4425  0.8414
 5165TIP3    H236911   6.021   6.179   5.449 -0.4488 -2.3320 -0.9963
 5166TIP3   OH236912   5.423   5.836   3.831  0.1694 -0.0326 -0.1092
 5166TIP3    H136913   5.387   5.849   3.919  0.5522 -0.7023  0.1462
 5166TIP3    H236914   5.514   5.810   3.846  0.5197  0.8221 -0.7310
 5167TIP3   OH236915   2.550   1.295  13.489  0.0944  0.0766 -0.4401
 5167TIP3    H136916   2.609   1.222  13.509  0.5671  0.1894 -1.4417
 5167TIP3    H236917   2.600   1.373  13.513 -1.0179  0.0497  2.2429
 5168TIP3   OH236918   0.583   2.731   0.427  0.2908 -0.4094 -0.0582
 5168TIP3    H136919   0.534   2.671   0.370 -0.4404 -0.8229  0.9885
 5168TIP3    H236920   0.554   2.709   0.515  1.5709  0.0838  0.5002
 5169TIP3   OH236921   5.609   1.163   1.530 -0.3121 -0.0086 -0.1119
 5169TIP3    H136922   5.587   1.254   1.508 -0.1762  0.2326  0.7196
 5169TIP3    H236923   5.683   1.170   1.590 -1.7701 -0.5383  1.8328
 5170TIP3   OH236924   2.882   3.209  15.758  0.5647  0.4566  0.3759
 5170TIP3    H136925   2.968   3.249  15.744 -0.3332  2.4033  0.2785
 5170TIP3    H236926   2.820   3.280  15.742 -1.2002 -1.5484 -1.9706
 5171TIP3   OH236927   5.510   3.817   5.795 -0.1344  0.0772 -0.3675
 5171TIP3    H136928   5.450   3.748   5.826  0.8640  0.7905  3.3664
 5171TIP3    H236929   5.461   3.898   5.808  1.0005  0.5316  1.1456
 5172TIP3   OH236930   5.700   6.236  14.437  0.8555  0.3334  0.4175
 5172TIP3    H136931   5.607   6.240  14.414  0.7124  1.7111  1.1915
 5172TIP3    H236932   5.740   6.189  14.364 -0.5453 -0.8781  0.4034
 5173TIP3   OH236933   6.057   1.709   2.650  0.1530 -0.0673 -0.3692
 5173TIP3    H136934   6.127   1.663   2.605 -0.2945 -0.7395 -0.3895
 5173TIP3    H236935   5.977   1.681   2.606 -0.0838  1.1706 -0.7553
 5174TIP3   OH236936   0.705   6.195   2.445  0.2711  0.3881  0.2477
 5174TIP3    H136937   0.697   6.243   2.527 -1.4979  0.4552  0.0629
 5174TIP3    H236938   0.677   6.106   2.467  0.2312  0.2965 -0.1679
 5175TIP3   OH236939   5.346   5.856  12.430  0.4156  0.3689  0.6186
 5175TIP3    H136940   5.422   5.914  12.436 -0.2891  1.7801 -2.9120
 5175TIP3    H236941   5.273   5.910  12.462  0.4518 -0.1330  1.5785
 5176TIP3   OH236942   2.892   2.162  13.246  0.1640 -0.2140 -0.0211
 5176TIP3    H136943   2.815   2.144  13.301  0.7791 -0.7541  0.6725
 5176TIP3    H236944   2.957   2.196  13.307  0.3354  0.6557 -0.6819
 5177TIP3   OH236945   4.067   5.333  15.676 -0.4527 -0.4324 -0.3736
 5177TIP3    H136946   4.034   5.260  15.729 -0.0557 -0.3970 -0.0782
 5177TIP3    H236947   4.039   5.411  15.724 -0.1460 -0.3993 -0.2516
 5178TIP3   OH236948   2.714   3.835   6.338 -0.5980  0.2430  0.2791
 5178TIP3    H136949   2.789   3.892   6.353  0.0549 -0.3092 -0.8192
 5178TIP3    H236950   2.638   3.894   6.346 -0.0522  0.8328  1.2175
 5179TIP3   OH236951   3.943   2.128   0.093 -0.2848 -0.1008  0.4231
 5179TIP3    H136952   4.010   2.154   0.030 -1.1336 -0.6214 -0.7173
 5179TIP3    H236953   3.944   2.197   0.159 -0.2876  1.1590 -0.8732
 5180TIP3   OH236954   6.344   5.776  13.821  0.4617  0.1039 -0.0270
 5180TIP3    H136955   6.283   5.834  13.867  0.3893 -1.1069  1.4354
 5180TIP3    H236956   6.381   5.830  13.751  0.8710  2.1166  1.7043
 5181TIP3   OH236957   5.201   2.339   5.474  0.0162 -0.2323 -0.3136
 5181TIP3    H136958   5.256   2.282   5.419  0.3924 -0.6386  0.4776
 5181TIP3    H236959   5.119   2.292   5.484 -0.7371  0.6652 -2.0321
 5182TIP3   OH236960   1.447   5.838   5.076 -0.3976 -0.0068  0.4137
 5182TIP3    H136961   1.384   5.840   5.004 -0.1314  0.3484  0.1903
 5182TIP3    H236962   1.392   5.837   5.155 -0.6915 -1.2422  0.1969
 5183TIP3   OH236963   5.670   1.038   4.580 -0.6242  0.1042 -0.3905
 5183TIP3    H136964   5.635   1.062   4.666 -2.1247  1.6081 -1.4101
 5183TIP3    H236965   5.599   0.989   4.538  0.1871 -0.8192 -0.7201
 5184TIP3   OH236966   3.390   5.431   1.952  0.4284 -1.2693  0.4332
 5184TIP3    H136967   3.443   5.491   2.005 -0.9529  0.3983 -0.0194
 5184TIP3    H236968   3.315   5.410   2.007  0.2828 -1.5738  0.1185
 5185TIP3   OH236969   0.344   3.441  11.289 -0.3710  0.1057 -0.1902
 5185TIP3    H136970   0.305   3.379  11.351 -1.6913  1.5937  0.5233
 5185TIP3    H236971   0.370   3.516  11.344  2.5327 -0.3900 -0.8152
 5186TIP3   OH236972   0.592   3.547  13.610  0.3557  0.5657 -0.0671
 5186TIP3    H136973   0.673   3.554  13.559 -0.3871 -0.7737 -1.5021
 5186TIP3    H236974   0.595   3.459  13.648 -0.3873  0.5137 -0.1053
 5187TIP3   OH236975   1.838   0.506  15.786 -0.2587 -0.3725 -0.0723
 5187TIP3    H136976   1.847   0.600  15.773 -1.4998  0.0858  2.0334
 5187TIP3    H236977   1.919   0.469  15.753 -0.0172  1.3641 -1.5204
 5188TIP3   OH236978   0.443   1.305  10.789  0.6473 -0.2215 -0.2656
 5188TIP3    H136979   0.486   1.375  10.839  1.1532 -1.0394  0.4687
 5188TIP3    H236980   0.493   1.300  10.707  0.4910  0.4044 -0.4025
 5189TIP3   OH236981   1.242   4.445   1.388 -0.1526 -0.3658  0.3820
 5189TIP3    H136982   1.200   4.391   1.321 -2.0649  0.8856  0.5284
 5189TIP3    H236983   1.258   4.529   1.344  1.9222 -0.7032  0.4333
 5190TIP3   OH236984   5.057   4.969  15.148 -0.0921  0.1751  0.4503
 5190TIP3    H136985   5.152   4.978  15.142 -0.1505  0.6081  0.2269
 5190TIP3    H236986   5.033   5.018  15.227 -0.1688  0.3354  0.3271
 5191TIP3   OH236987   6.292   5.634   2.501  0.0204  0.0417 -0.3100
 5191TIP3    H136988   6.201   5.626   2.527  0.5370  1.5451  2.1274
 5191TIP3    H236989   6.342   5.610   2.580  1.6721  3.0958 -0.3452
 5192TIP3   OH236990   6.117   3.472  14.107 -0.4062 -0.0669 -0.4169
 5192TIP3    H136991   6.164   3.494  14.187  0.9092 -0.4498 -1.0563
 5192TIP3    H236992   6.063   3.397  14.131  0.9389 -0.9885 -0.1907
 5193TIP3   OH236993   1.998   2.857  13.447  0.1114  0.4616 -0.1775
 5193TIP3    H136994   2.094   2.852  13.449  0.1134 -0.5541 -1.5281
 5193TIP3    H236995   1.979   2.937  13.397  0.2366  1.2697  1.0476
 5194TIP3   OH236996   1.568   6.412   0.652  0.4099 -0.0790 -0.2447
 5194TIP3    H136997   1.577   6.491   0.706  0.6119  0.1734 -0.6444
 5194TIP3    H236998   1.479   6.418   0.617 -0.2000 -0.9297  1.1292
 5195TIP3   OH236999   5.652   5.922  16.610 -0.0519  0.9767 -0.1919
 5195TIP3    H137000   5.634   6.011  16.639  0.4568  1.0576 -0.1204
 5195TIP3    H237001   5.616   5.867  16.679 -2.4213  1.0448 -1.3129
 5196TIP3   OH237002   4.472   5.969  14.122  0.4572  0.9495  0.4202
 5196TIP3    H137003   4.475   6.036  14.191  2.5288 -0.2951  1.6106
 5196TIP3    H237004   4.534   5.999  14.056  1.0308  0.4556  0.7291
 5197TIP3   OH237005   4.396   3.026  11.625 -0.7932  0.2536  0.6990
 5197TIP3    H137006   4.475   3.031  11.680 -0.5201  1.9911  0.1773
 5197TIP3    H237007   4.359   2.940  11.644  0.8040 -0.2662  1.5482
 5198TIP3   OH237008   0.453   2.129  12.658  0.1646 -0.3642  0.0480
 5198TIP3    H137009   0.455   2.220  12.689 -0.4812 -0.5353  0.6120
 5198TIP3    H237010   0.479   2.134  12.566  1.5293  0.2255  0.4658
 5199TIP3   OH237011   6.733   0.507  11.437  0.2460 -0.9322 -0.1969
 5199TIP3    H137012   6.800   0.575  11.443 -0.6082  0.1638 -2.6303
 5199TIP3    H237013   6.781   0.428  11.412  0.8812 -0.5963 -0.0459
 5200TIP3   OH237014   2.647   2.113  16.457  0.2880  0.0699 -0.2072
 5200TIP3    H137015   2.628   2.039  16.400  0.9666 -0.1430 -0.1596
 5200TIP3    H237016   2.716   2.161  16.412  0.4178  0.2214  0.1528
 5201TIP3   OH237017   5.481   4.634  15.062  0.0515  0.5169  0.4481
 5201TIP3    H137018   5.545   4.702  15.083  0.2217  0.2375  0.8504
 5201TIP3    H237019   5.410   4.649  15.124  0.3793 -0.0707  0.9719
 5202TIP3   OH237020   3.939   5.182  11.364 -0.4243  0.5619  0.2614
 5202TIP3    H137021   3.967   5.212  11.450  1.9527 -0.8078 -0.0030
 5202TIP3    H237022   3.892   5.257  11.326 -0.8504  1.4142  2.4231
 5203TIP3   OH237023   2.285   0.239  11.567  0.3337  0.1028 -0.1046
 5203TIP3    H137024   2.360   0.191  11.601  0.1510 -0.1285 -0.0218
 5203TIP3    H237025   2.321   0.321  11.535  0.4475  0.4950  1.0147
 5204TIP3   OH237026   2.336   4.977  12.777 -0.1059 -0.0738  0.4486
 5204TIP3    H137027   2.245   4.956  12.757  1.0037 -3.3395 -1.6088
 5204TIP3    H237028   2.366   4.902  12.829  1.3150  1.1594  1.4474
 5205TIP3   OH237029   1.176   4.360   4.121 -0.3201 -0.4300 -0.0988
 5205TIP3    H137030   1.145   4.280   4.164 -1.5106  1.2628  2.3503
 5205TIP3    H237031   1.100   4.393   4.074  0.1208 -0.6448 -0.9644
 5206TIP3   OH237032   2.756   0.958   2.630 -0.6548 -0.0076  0.5740
 5206TIP3    H137033   2.679   0.999   2.592 -1.2279 -1.1168  0.4944
 5206TIP3    H237034   2.802   0.919   2.556  0.7833  1.9147  0.4378
 5207TIP3   OH237035   5.532   3.799   3.028 -0.5982 -0.2458  0.4254
 5207TIP3    H137036   5.447   3.771   3.061 -0.6575  0.6754  1.0684
 5207TIP3    H237037   5.537   3.892   3.051  0.6409 -0.3294  0.5134
 5208TIP3   OH237038   6.386   4.491   1.557  0.2446  0.0876  0.0380
 5208TIP3    H137039   6.383   4.424   1.625  1.8419 -0.8963 -0.8270
 5208TIP3    H237040   6.297   4.524   1.552  0.1347  0.2533  2.6772
 5209TIP3   OH237041   2.869   2.043  16.669 -0.3469 -0.0092  0.3910
 5209TIP3    H137042   2.842   1.967  16.618 -2.5789  0.1888  1.2578
 5209TIP3    H237043   2.963   2.051  16.651  0.0911 -3.3999  0.8963
 5210TIP3   OH237044   5.437   6.684  16.432 -0.2119  0.1187 -0.6182
 5210TIP3    H137045   5.398   6.742  16.367  1.6512 -1.6911 -3.4620
 5210TIP3    H237046   5.519   6.728  16.456 -0.4608  0.3392 -0.1668
 5211TIP3   OH237047   3.848   1.834  16.447 -0.3991 -0.6444 -0.2581
 5211TIP3    H137048   3.832   1.926  16.465  0.7229 -0.3850 -0.5820
 5211TIP3    H237049   3.919   1.809  16.505  1.0300 -0.6319 -1.9513
 5212TIP3   OH237050   5.476   3.065  16.325  0.1904  0.4551 -0.2834
 5212TIP3    H137051   5.501   3.132  16.261  2.3768  0.5062  0.5714
 5212TIP3    H237052   5.511   2.983  16.290  0.7244  0.3590  0.4525
 5213TIP3   OH237053   3.722   0.131   0.765  0.2280 -0.0755  0.3313
 5213TIP3    H137054   3.701   0.086   0.847  0.6486 -0.1287  0.4074
 5213TIP3    H237055   3.641   0.124   0.713  0.2862 -0.9052  0.3483
 5214TIP3   OH237056   0.369   4.057  10.539  0.5557 -0.2251 -0.4801
 5214TIP3    H137057   0.285   4.028  10.503  0.5161 -0.6618 -0.0275
 5214TIP3    H237058   0.422   3.978  10.545  0.6081 -0.1370  0.2980
 5215TIP3   OH237059   1.796   3.608  12.969 -0.4261 -0.6714  0.0744
 5215TIP3    H137060   1.755   3.577  13.050  0.3632 -0.2114  0.6615
 5215TIP3    H237061   1.890   3.603  12.987 -0.2799  1.5484 -0.0058
 5216TIP3   OH237062   0.403   2.596  11.187  0.8177  0.3602 -0.6163
 5216TIP3    H137063   0.472   2.641  11.235  0.5663  0.3720 -0.2617
 5216TIP3    H237064   0.427   2.607  11.095  2.7640 -1.9459 -0.4512
 5217TIP3   OH237065   0.417   0.352   3.769 -0.3119  0.0754 -0.1600
 5217TIP3    H137066   0.350   0.283   3.769 -0.9637  0.6996 -0.9119
 5217TIP3    H237067   0.467   0.337   3.689 -0.5202  0.5280 -0.3789
 5218TIP3   OH237068   2.671   1.433   1.732 -0.1238  0.0756 -0.1277
 5218TIP3    H137069   2.709   1.478   1.808 -1.6017 -0.4199  0.9175
 5218TIP3    H237070   2.587   1.475   1.718 -0.6080 -0.9717 -0.4331
 5219TIP3   OH237071   5.085   0.127   3.704 -0.1584 -0.3217 -0.0483
 5219TIP3    H137072   5.118   0.059   3.762  0.3302 -1.6293 -1.8213
 5219TIP3    H237073   4.998   0.096   3.678  0.2415 -0.5021 -1.1999
 5220TIP3   OH237074   2.735   3.483   4.203 -0.0900 -0.5656 -0.2585
 5220TIP3    H137075   2.642   3.465   4.218 -0.3955  1.3548  0.2899
 5220TIP3    H237076   2.736   3.545   4.130  0.8882 -2.1949 -1.6598
 5221TIP3   OH237077   3.568   2.254  16.655  0.2973 -0.0954 -0.0918
 5221TIP3    H137078   3.617   2.294  16.727  1.2701 -0.5776 -0.4791
 5221TIP3    H237079   3.500   2.318  16.635 -1.0870 -0.7086  2.3923
 5222TIP3   OH237080   2.216   1.700  14.003  0.4247 -0.2866  0.3446
 5222TIP3    H137081   2.128   1.731  14.026 -0.5421 -0.9665 -2.2161
 5222TIP3    H237082   2.274   1.769  14.034 -0.9782  0.0380  2.3430
 5223TIP3   OH237083   2.331   3.019  13.651 -0.0132 -0.2066 -0.0869
 5223TIP3    H137084   2.256   3.072  13.626 -0.4371 -0.9144 -0.3025
 5223TIP3    H237085   2.318   3.001  13.744 -2.6272 -4.3455 -1.1043
 5224TIP3   OH237086   4.577   3.571   4.932  0.2990 -0.1523  0.0813
 5224TIP3    H137087   4.601   3.627   5.006 -1.1092  0.0322  0.4268
 5224TIP3    H237088   4.492   3.604   4.904  0.9405 -0.0492 -1.8138
 5225TIP3   OH237089   5.329   4.599   6.395 -0.0336 -0.1925 -0.2145
 5225TIP3    H137090   5.368   4.638   6.474 -0.5718  0.9526 -0.5029
 5225TIP3    H237091   5.352   4.507   6.400  0.5499  0.0065  0.9243
 5226TIP3   OH237092   6.145   6.588   1.200  0.4711  0.4571 -0.1585
 5226TIP3    H137093   6.224   6.642   1.191 -1.0107  2.8212  0.5027
 5226TIP3    H237094   6.090   6.615   1.126 -1.5804  2.1585  1.9340
 5227TIP3   OH237095   2.460   6.262  13.303  0.2956 -0.1405 -0.5058
 5227TIP3    H137096   2.377   6.275  13.258  0.4129 -1.3756 -1.0942
 5227TIP3    H237097   2.503   6.191  13.254  2.2833  1.3926 -1.0466
 5228TIP3   OH237098   1.338   5.717   1.978 -0.2355  0.4033  0.6451
 5228TIP3    H137099   1.281   5.785   2.016 -2.2669 -1.3536  0.8446
 5228TIP3    H237100   1.390   5.686   2.051 -0.3721  0.6968  0.8687
 5229TIP3   OH237101   6.686   5.773   3.847 -0.1641  0.0635  0.3231
 5229TIP3    H137102   6.773   5.734   3.845  0.3373  1.1964 -1.5260
 5229TIP3    H237103   6.656   5.769   3.756 -3.1095 -2.6158  1.3025
 5230TIP3   OH237104   5.116   0.722  16.532  0.1344 -0.2156  0.3881
 5230TIP3    H137105   5.055   0.736  16.604  0.0940 -0.2440  0.3589
 5230TIP3    H237106   5.203   0.724  16.572  0.3190  3.2070 -0.0261
 5231TIP3   OH237107   3.510   6.437  14.050 -0.5047 -0.0118  0.4337
 5231TIP3    H137108   3.433   6.382  14.060 -0.8542  0.3112 -0.4003
 5231TIP3    H237109   3.535   6.426  13.958 -0.1643  0.6814  0.4380
 5232TIP3   OH237110   5.198   1.119  16.306 -0.6454  0.1922 -0.3031
 5232TIP3    H137111   5.282   1.097  16.266 -0.2789 -1.6136  1.3995
 5232TIP3    H237112   5.192   1.214  16.297  2.0016  0.4673  0.3455
 5233TIP3   OH237113   5.611   0.127  16.655  0.4350  0.0403 -0.2480
 5233TIP3    H137114   5.669   0.084  16.592 -1.3180 -0.7128 -1.3768
 5233TIP3    H237115   5.661   0.203  16.684  1.7709 -0.2742 -1.6197
 5234TIP3   OH237116   1.640   4.892  14.546  0.0510  0.0001  0.4723
 5234TIP3    H137117   1.643   4.980  14.582  1.6600  0.3603 -0.5053
 5234TIP3    H237118   1.652   4.835  14.622 -1.1933  0.5855  1.1398
 5235TIP3   OH237119   3.946   6.346   2.571  0.3404 -0.6975 -0.6524
 5235TIP3    H137120   3.954   6.337   2.666  1.2015 -0.2936 -0.6732
 5235TIP3    H237121   3.863   6.305   2.549  0.8816 -2.2204  0.0785
 5236TIP3   OH237122   3.042   3.180   5.017 -0.4946 -0.4210 -0.0461
 5236TIP3    H137123   3.080   3.093   5.014  0.4268 -0.1077  1.6915
 5236TIP3    H237124   2.957   3.168   5.060 -0.7405 -0.5940 -0.5871
 5237TIP3   OH237125   5.640   3.918  11.186  0.3325 -0.2691 -0.4936
 5237TIP3    H137126   5.556   3.918  11.140 -0.3890  0.0127  0.8169
 5237TIP3    H237127   5.700   3.962  11.126 -1.4869  3.6234  0.3725
 5238TIP3   OH237128   4.174   2.359   3.659 -0.2100  0.1283 -0.2887
 5238TIP3    H137129   4.248   2.309   3.695 -0.0770  1.2768  1.0992
 5238TIP3    H237130   4.113   2.292   3.628  1.0284 -0.8479 -0.6533
 5239TIP3   OH237131   3.837   1.927  16.809  0.7699  0.7023  0.1961
 5239TIP3    H137132   3.863   1.848  16.761 -0.7171 -0.1115  0.7078
 5239TIP3    H237133   3.920   1.974  16.824  1.3736  0.6097 -2.4772
 5240TIP3   OH237134   3.161   6.355   6.031 -0.0288 -0.5331 -0.1771
 5240TIP3    H137135   3.229   6.369   5.966  0.4009 -0.1997  0.3440
 5240TIP3    H237136   3.180   6.417   6.101 -1.0840 -0.1775 -0.1937
 5241TIP3   OH237137   0.930   6.454  13.134  0.5725  0.1751  0.0065
 5241TIP3    H137138   0.922   6.384  13.198 -1.1673 -1.2382 -1.6962
 5241TIP3    H237139   1.020   6.449  13.102  0.7616 -0.5796  0.6664
 5242TIP3   OH237140   6.485   5.485   2.676 -0.4151 -0.2381  0.5410
 5242TIP3    H137141   6.449   5.407   2.718 -1.0357 -0.6684 -0.7748
 5242TIP3    H237142   6.556   5.451   2.621 -0.3617  0.1916  0.3481
 5243TIP3   OH237143   5.612   3.675   2.440  0.6133 -0.0382 -0.0288
 5243TIP3    H137144   5.578   3.736   2.506  2.6426 -1.8604  2.8214
 5243TIP3    H237145   5.574   3.590   2.465  1.6080 -0.7904 -1.0656
 5244TIP3   OH237146   0.491   1.151  11.161  0.1789 -0.0992  0.3059
 5244TIP3    H137147   0.470   1.085  11.227  1.0520 -1.8256 -1.0715
 5244TIP3    H237148   0.432   1.132  11.088  0.2520  0.8130  0.0019
 5245TIP3   OH237149   3.206   6.661  12.301 -0.2068  0.3427 -0.8385
 5245TIP3    H137150   3.177   6.752  12.297  0.6911  0.6252 -1.2055
 5245TIP3    H237151   3.290   6.665  12.347 -1.4187 -0.6230  1.5674
 5246TIP3   OH237152   1.640   2.818  13.014  0.3206 -0.1614 -0.1558
 5246TIP3    H137153   1.584   2.841  13.089  0.5401 -1.7571  0.5019
 5246TIP3    H237154   1.726   2.801  13.052  1.0504  1.3771 -1.0638
 5247TIP3   OH237155   5.075   5.743   4.031 -0.2004 -0.0373  0.0549
 5247TIP3    H137156   5.046   5.821   3.985 -1.5856  0.3802  1.5922
 5247TIP3    H237157   5.104   5.683   3.962  1.2094  1.9440 -1.1242
 5248TIP3   OH237158   2.577   2.496   3.761 -0.0211 -0.1147  0.1976
 5248TIP3    H137159   2.643   2.428   3.776  0.2361  0.1441  0.2365
 5248TIP3    H237160   2.501   2.467   3.811 -0.0401 -0.5700 -0.0922
 5249TIP3   OH237161   3.026   2.532   3.972  0.2055 -0.0706 -0.2973
 5249TIP3    H137162   3.028   2.530   4.067  0.1051 -1.1745 -0.3210
 5249TIP3    H237163   2.949   2.586   3.952  0.6483  0.7733  0.2371
 5250TIP3   OH237164   4.424   1.218  16.020 -0.7001 -0.1311  0.3553
 5250TIP3    H137165   4.507   1.228  16.066 -0.9768 -1.0857  1.0668
 5250TIP3    H237166   4.380   1.146  16.065 -0.4178 -1.9820 -2.1684
 5251TIP3   OH237167   5.822   1.603  16.279 -0.3571  0.3092 -0.0915
 5251TIP3    H137168   5.793   1.567  16.363 -0.4245  0.2079 -0.1562
 5251TIP3    H237169   5.741   1.626  16.234 -0.4094 -1.3978 -0.9095
 5252TIP3   OH237170   0.356   6.253  16.715 -0.1232  0.2560 -0.0066
 5252TIP3    H137171   0.350   6.230  16.622 -0.6797  0.0166  0.0898
 5252TIP3    H237172   0.448   6.240  16.736  0.5285  2.7116 -1.1540
 5253TIP3   OH237173   1.525   0.444  13.147  0.2370  0.2395 -0.2933
 5253TIP3    H137174   1.536   0.349  13.138  0.1059  0.1763  0.1962
 5253TIP3    H237175   1.537   0.461  13.241 -1.3742  0.4774 -0.0999
 5254TIP3   OH237176   5.541   6.724   3.050  0.5761  0.0470 -0.5406
 5254TIP3    H137177   5.481   6.782   3.003  0.4040  0.1902 -0.1442
 5254TIP3    H237178   5.590   6.782   3.108 -1.6294 -0.5581  2.0103
 5255TIP3   OH237179   3.946   1.886  14.294 -0.1331  0.8414 -0.1552
 5255TIP3    H137180   3.888   1.926  14.228 -0.2240 -0.5391 -0.9247
 5255TIP3    H237181   4.005   1.957  14.319 -0.4147  1.5235 -1.3608
 5256TIP3   OH237182   1.387   2.997  15.660  0.1747  0.2717  0.0615
 5256TIP3    H137183   1.445   3.051  15.607  0.1765 -0.6675 -0.9043
 5256TIP3    H237184   1.337   3.060  15.713  1.1962  1.1401  0.0076
 5257TIP3   OH237185   3.623   0.917  13.958 -0.0859 -0.2029  0.3050
 5257TIP3    H137186   3.585   0.983  13.901 -0.1774 -2.5529 -2.4244
 5257TIP3    H237187   3.709   0.953  13.982 -0.0900  0.8510 -1.2109
 5258TIP3   OH237188   0.349   1.028   3.690  0.3523  0.3367  0.0249
 5258TIP3    H137189   0.355   0.935   3.669 -0.2646  0.1160  0.8067
 5258TIP3    H237190   0.396   1.036   3.773 -0.2456  0.5909  0.3385
 5259TIP3   OH237191   4.184   5.773  12.658 -0.2030  0.1359 -0.8377
 5259TIP3    H137192   4.208   5.763  12.750  1.4124  1.1590 -1.1105
 5259TIP3    H237193   4.102   5.725  12.648 -1.7481  2.1474  1.7267
 5260TIP3   OH237194   2.562   1.746   3.628 -0.1116  0.6871  0.2490
 5260TIP3    H137195   2.593   1.702   3.708 -1.1103 -0.7065 -0.1116
 5260TIP3    H237196   2.619   1.713   3.559 -0.4714  0.4288  0.0754
 5261TIP3   OH237197   2.229   4.877  16.219 -0.1592 -0.0507 -0.0921
 5261TIP3    H137198   2.214   4.965  16.255  0.6735 -0.2562  0.7899
 5261TIP3    H237199   2.145   4.852  16.181 -0.6856  0.7275  0.5305
 5262TIP3   OH237200   4.547   1.582   2.611 -0.2355 -0.5736  0.1819
 5262TIP3    H137201   4.620   1.523   2.630  0.2123  0.1642  0.7615
 5262TIP3    H237202   4.483   1.563   2.680  0.2609  0.2006  0.8678
 5263TIP3   OH237203   6.560   3.322   3.873  0.4213  0.1887 -0.5617
 5263TIP3    H137204   6.652   3.301   3.890  0.2762 -0.8716 -1.0461
 5263TIP3    H237205   6.515   3.300   3.954  0.8410  2.4969  0.3597
 5264TIP3   OH237206   1.022   5.556  14.789  0.2394  0.2512  0.0417
 5264TIP3    H137207   1.100   5.564  14.735 -0.2755 -0.6775 -0.8582
 5264TIP3    H237208   0.949   5.560  14.728 -0.3434 -1.0624  0.6164
 5265TIP3   OH237209   4.208   5.759   4.694 -0.4254 -0.1129 -0.0170
 5265TIP3    H137210   4.179   5.830   4.637  2.2302 -0.7996 -2.3454
 5265TIP3    H237211   4.266   5.801   4.758 -0.5645  0.1357 -0.0549
 5266TIP3   OH237212   4.481   0.590  11.715  0.1536  0.1520  0.1218
 5266TIP3    H137213   4.473   0.588  11.619  1.3184 -2.0007  0.0409
 5266TIP3    H237214   4.562   0.639  11.730 -0.9802  2.0972  0.1101
 5267TIP3   OH237215   6.023   5.678   0.948 -0.0486 -0.7441 -0.3837
 5267TIP3    H137216   6.027   5.683   1.044 -0.8352 -1.6292 -0.2909
 5267TIP3    H237217   5.950   5.735   0.925  0.1475 -0.5232 -0.4590
 5268TIP3   OH237218   1.791   6.750  10.888 -0.1578 -0.2527 -0.1430
 5268TIP3    H137219   1.816   6.665  10.925 -0.0324 -1.4610 -2.8637
 5268TIP3    H237220   1.857   6.767  10.821 -2.0612  0.3532 -1.9247
 5269TIP3   OH237221   1.616   6.255  15.472 -0.0904  0.2927  0.1957
 5269TIP3    H137222   1.549   6.195  15.437  0.2859  0.5065 -0.8820
 5269TIP3    H237223   1.699   6.209  15.457  0.1012  0.5533  0.4657
 5270TIP3   OH237224   4.252   3.695  16.314 -0.1106 -0.2663 -0.1230
 5270TIP3    H137225   4.279   3.724  16.227 -1.2405  1.7630  0.1711
 5270TIP3    H237226   4.157   3.702  16.313 -0.1471 -0.4740  1.1917
 5271TIP3   OH237227   3.008   6.205   1.937 -0.4569 -0.0009  0.2991
 5271TIP3    H137228   2.941   6.191   2.004 -0.8317  0.2395 -0.0293
 5271TIP3    H237229   2.989   6.138   1.871 -1.3681  1.0955 -0.5787
 5272TIP3   OH237230   3.390   4.590  16.128  0.2572 -0.5190  0.0933
 5272TIP3    H137231   3.421   4.506  16.163  0.4170 -0.6871 -0.4432
 5272TIP3    H237232   3.367   4.571  16.037 -1.4606 -0.4099  0.4719
 5273TIP3   OH237233   6.087   6.219  14.170  0.3483  0.7268 -0.2546
 5273TIP3    H137234   6.156   6.249  14.229 -0.3271  1.2705  0.2653
 5273TIP3    H237235   6.049   6.300  14.136 -1.5977  0.4815  1.2777
 5274TIP3   OH237236   1.726   2.065  11.779  0.3609 -0.7239 -0.0770
 5274TIP3    H137237   1.684   2.114  11.708  0.3126 -2.0833 -0.9960
 5274TIP3    H237238   1.794   2.125  11.812 -0.9254  0.6867  0.0642
 5275TIP3   OH237239   0.162   4.743   5.125 -0.2176 -0.4015  0.9842
 5275TIP3    H137240   0.174   4.648   5.118  2.0283 -0.0285 -0.7761
 5275TIP3    H237241   0.081   4.760   5.077  0.8595 -1.1349 -1.1775
 5276TIP3   OH237242   3.654   1.688  12.960 -0.2878  0.8488 -0.3714
 5276TIP3    H137243   3.598   1.741  13.017 -1.6755  0.8273 -1.6777
 5276TIP3    H237244   3.702   1.752  12.907  2.0844  0.9175  1.7501
 5277TIP3   OH237245   5.756   0.734   2.130  0.0028 -0.0354  0.3671
 5277TIP3    H137246   5.691   0.687   2.078  1.4925  0.4507 -2.0290
 5277TIP3    H237247   5.719   0.821   2.141  0.5443  0.4850 -1.6731
 5278TIP3   OH237248   2.997   1.971  16.397  0.0470  0.1614  0.0917
 5278TIP3    H137249   2.953   1.918  16.331 -1.5193 -0.1504  1.3405
 5278TIP3    H237250   2.984   1.922  16.479 -0.6756  2.0518  1.1251
 5279TIP3   OH237251   1.581   5.876   3.477  0.1666 -0.2333 -0.4786
 5279TIP3    H137252   1.664   5.850   3.437  0.6804 -1.3368  1.2551
 5279TIP3    H237253   1.547   5.796   3.517 -0.4125  0.7856  1.1267
 5280TIP3   OH237254   5.341   4.990  14.352 -0.4465  0.0558 -0.0633
 5280TIP3    H137255   5.401   5.064  14.363  2.2891 -2.1714  0.4791
 5280TIP3    H237256   5.374   4.944  14.275 -2.1871 -0.5812 -0.4512
 5281TIP3   OH237257   3.748   5.447  17.033  0.4648 -0.2096 -0.6068
 5281TIP3    H137258   3.804   5.487  16.966 -0.3982  1.3624 -0.3991
 5281TIP3    H237259   3.666   5.427  16.987 -0.3095  1.3163  0.0753
 5282TIP3   OH237260   3.027   6.715  14.822 -0.2195  0.1291 -0.4719
 5282TIP3    H137261   2.954   6.765  14.858  0.2985  0.5447  0.0162
 5282TIP3    H237262   2.994   6.681  14.739 -1.4584 -0.9331  0.4416
 5283TIP3   OH237263   5.964   4.784  15.903 -0.3455 -0.6038  0.0502
 5283TIP3    H137264   5.925   4.759  15.819 -0.0643 -0.0740 -0.2410
 5283TIP3    H237265   5.985   4.877  15.893  0.6656 -0.7924  0.3219
 5284TIP3   OH237266   5.033   6.397  10.783 -0.6104  0.2237  0.1536
 5284TIP3    H137267   5.077   6.417  10.700 -1.1949 -3.2353 -1.0643
 5284TIP3    H237268   5.100   6.409  10.850  1.2944 -1.7740 -1.3433
 5285TIP3   OH237269   3.338   0.542  11.945 -0.3266 -0.0681  0.1712
 5285TIP3    H137270   3.298   0.532  11.859 -2.7066 -0.5300  1.3006
 5285TIP3    H237271   3.389   0.623  11.938 -0.0885 -0.3754 -1.8218
 5286TIP3   OH237272   2.461   1.577  16.339 -0.4739 -0.7407 -0.4578
 5286TIP3    H137273   2.440   1.534  16.256 -0.3663 -1.8447  0.0864
 5286TIP3    H237274   2.557   1.573  16.344 -0.3317  1.0307 -1.1853
 5287TIP3   OH237275   5.351   2.147   0.238 -0.4437  0.1376  0.3909
 5287TIP3    H137276   5.277   2.096   0.207 -1.2502  1.9562 -0.7594
 5287TIP3    H237277   5.313   2.208   0.302 -0.2475  2.0112 -1.1990
 5288TIP3   OH237278   5.730   3.643   5.241  0.4278 -0.2057  0.0959
 5288TIP3    H137279   5.727   3.594   5.323  0.5196  2.5343  1.7739
 5288TIP3    H237280   5.671   3.717   5.255 -0.2404 -0.1811 -2.6425
 5289TIP3   OH237281   6.525   0.286  14.320 -0.1470 -0.1067 -0.0371
 5289TIP3    H137282   6.448   0.280  14.263  0.8777 -0.3108 -1.4412
 5289TIP3    H237283   6.554   0.377  14.311  0.4205 -0.3213 -0.3776
 5290TIP3   OH237284   4.794   4.332  16.710 -0.6041 -0.3038  0.3490
 5290TIP3    H137285   4.846   4.266  16.662 -0.4047  0.6863 -0.8093
 5290TIP3    H237286   4.860   4.390  16.748 -0.8311  0.3722 -0.2862
 5291TIP3   OH237287   3.414   0.363  11.326  0.1708  0.5294  0.1834
 5291TIP3    H137288   3.437   0.360  11.419  0.7975 -1.3447 -0.0232
 5291TIP3    H237289   3.496   0.344  11.280  0.0637  2.3164 -0.7982
 5292TIP3   OH237290   0.546   2.077   4.341  0.6157 -0.0079  0.2781
 5292TIP3    H137291   0.544   2.081   4.437  0.5086 -1.0066  0.3277
 5292TIP3    H237292   0.589   2.158   4.314  0.4971  0.3558  1.1671
 5293TIP3   OH237293   4.300   3.458   0.391 -0.0766 -0.1023 -0.1970
 5293TIP3    H137294   4.269   3.400   0.322  0.6112 -0.2810 -0.3691
 5293TIP3    H237295   4.335   3.534   0.346 -0.1843  0.0517 -0.0199
 5294TIP3   OH237296   1.916   1.248   3.540  0.8454 -0.6623 -0.0269
 5294TIP3    H137297   1.822   1.259   3.521  0.5560 -3.4253 -0.5139
 5294TIP3    H237298   1.930   1.296   3.621 -1.1273 -0.6752  0.3504
 5295TIP3   OH237299   2.990   3.486   4.265 -0.3041 -0.8228  0.7373
 5295TIP3    H137300   3.033   3.518   4.185  0.8951 -0.9938  1.2949
 5295TIP3    H237301   2.898   3.477   4.241 -0.4424  1.6998  0.1324
 5296TIP3   OH237302   1.839   4.602  13.479 -0.5091 -0.2892  0.0751
 5296TIP3    H137303   1.822   4.568  13.566 -0.3601 -1.1074 -0.2081
 5296TIP3    H237304   1.753   4.609  13.438 -0.7773  2.1544  1.0308
 5297TIP3   OH237305   3.725   2.147  12.247  0.1561  0.4624 -0.0738
 5297TIP3    H137306   3.648   2.202  12.237  1.2091  1.9120 -0.3694
 5297TIP3    H237307   3.799   2.208  12.244  1.2566 -0.7423  1.4785
 5298TIP3   OH237308   6.604   6.770   5.688  0.3094 -0.0694  0.9034
 5298TIP3    H137309   6.521   6.761   5.642  0.1172 -0.2135  1.2797
 5298TIP3    H237310   6.670   6.742   5.625 -0.1202 -2.3672  1.4236
 5299TIP3   OH237311   3.158   3.463  12.855 -0.4341 -0.7368  0.4822
 5299TIP3    H137312   3.096   3.395  12.879 -1.6213  0.5951  1.1967
 5299TIP3    H237313   3.174   3.512  12.936 -2.4287  2.1146 -0.7533
 5300TIP3   OH237314   3.660   2.412  11.386 -0.1888  0.5345  0.7120
 5300TIP3    H137315   3.651   2.489  11.331  2.0940  0.3073 -0.0516
 5300TIP3    H237316   3.728   2.436  11.449  0.5039 -0.8096  0.4953
 5301TIP3   OH237317   5.645   4.970   1.603  0.0457 -0.6697 -0.4903
 5301TIP3    H137318   5.583   5.026   1.557  1.7368 -0.1610 -2.2328
 5301TIP3    H237319   5.622   4.980   1.695 -1.0245  1.2438 -0.9236
 5302TIP3   OH237320   6.647   5.584  12.798  0.4526 -0.2083  0.1495
 5302TIP3    H137321   6.587   5.527  12.845 -0.3450  0.7196  0.2807
 5302TIP3    H237322   6.596   5.615  12.723  0.0604  2.1861  1.3579
 5303TIP3   OH237323   5.091   1.473   1.096 -0.1283  0.1779  0.2249
 5303TIP3    H137324   5.090   1.521   1.014  0.1590  1.3462  0.8984
 5303TIP3    H237325   5.182   1.448   1.109 -0.0792  0.4765  0.4640
 5304TIP3   OH237326   4.140   1.893  14.823  0.7728  0.2286 -0.3652
 5304TIP3    H137327   4.092   1.968  14.790  0.9707  0.3175 -0.4484
 5304TIP3    H237328   4.076   1.822  14.824  0.7862  0.2053 -1.0004
 5305TIP3   OH237329   5.118   4.866  16.414  0.4562  0.4423  0.0202
 5305TIP3    H137330   5.182   4.892  16.480  1.0154  0.4158 -0.5086
 5305TIP3    H237331   5.144   4.912  16.335 -0.1895  0.4423 -0.1983
 5306TIP3   OH237332   4.586   0.660  13.125 -0.2405  0.2182  0.0326
 5306TIP3    H137333   4.549   0.675  13.038  1.3189  0.5018 -0.5814
 5306TIP3    H237334   4.524   0.600  13.167 -1.7730  1.2352 -0.7274
 5307TIP3   OH237335   1.349   1.229   5.227 -0.5439 -0.5697  0.0237
 5307TIP3    H137336   1.382   1.305   5.179 -0.2787 -1.2943 -0.9639
 5307TIP3    H237337   1.295   1.182   5.163 -0.9139 -1.0774  0.7035
 5308TIP3   OH237338   5.790   4.030   2.788 -0.6744  0.4359 -0.2275
 5308TIP3    H137339   5.810   4.013   2.880 -1.6761  2.6339  0.4272
 5308TIP3    H237340   5.863   4.084   2.757 -0.9756  0.7711 -0.3588
 5309TIP3   OH237341   6.615   2.399   4.809  0.5670  0.6179 -0.4719
 5309TIP3    H137342   6.629   2.370   4.899 -0.9033  0.9635 -0.1309
 5309TIP3    H237343   6.582   2.488   4.817  0.1020  0.5315 -1.3456
 5310TIP3   OH237344   1.916   4.251  12.078  0.1262  0.1484  0.1882
 5310TIP3    H137345   1.992   4.272  12.132  0.1271  0.3067  0.1224
 5310TIP3    H237346   1.940   4.280  11.990  0.7102 -1.4106 -0.2000
 5311TIP3   OH237347   1.118   2.315   2.750  0.5110 -0.7120 -0.2059
 5311TIP3    H137348   1.158   2.278   2.829 -0.6458 -1.4256  0.0565
 5311TIP3    H237349   1.189   2.362   2.707  1.1293 -0.2186  1.3249
 5312TIP3   OH237350   0.629   4.797  13.010  0.1940  0.0999  0.3178
 5312TIP3    H137351   0.538   4.823  13.000  0.4844  0.4194 -1.7456
 5312TIP3    H237352   0.663   4.793  12.920  1.9087 -1.0783  0.9908
 5313TIP3   OH237353   3.634   3.537  11.363 -0.2115 -0.2939  0.6469
 5313TIP3    H137354   3.615   3.625  11.331  0.9516 -0.4180 -0.4264
 5313TIP3    H237355   3.549   3.494  11.366 -0.7529  0.7750  0.9163
 5314TIP3   OH237356   3.561   6.653  15.037  0.9803  0.2719  0.3742
 5314TIP3    H137357   3.494   6.690  15.094  2.1136  1.2629  1.0590
 5314TIP3    H237358   3.525   6.664  14.949  0.4532  1.2552  0.7024
 5315TIP3   OH237359   2.545   6.094   4.486 -0.6011 -0.4679 -0.2172
 5315TIP3    H137360   2.581   6.020   4.437 -1.1533 -0.6241 -0.3906
 5315TIP3    H237361   2.457   6.106   4.450 -0.8770 -0.3494  0.4913
 5316TIP3   OH237362   2.208   1.645  16.400 -0.9739  0.3932 -1.0097
 5316TIP3    H137363   2.291   1.598  16.408 -0.7532  0.7084 -1.3907
 5316TIP3    H237364   2.222   1.727  16.448 -0.7296  0.8727 -1.8720
 5317TIP3   OH237365   2.041   6.204   4.916  0.3834 -0.1326  0.6038
 5317TIP3    H137366   1.951   6.204   4.949  0.3185 -1.8072  0.4889
 5317TIP3    H237367   2.090   6.256   4.979 -0.8708  1.8062  0.0357
 5318TIP3   OH237368   0.217   4.769  16.094  0.4338  0.0580 -0.3986
 5318TIP3    H137369   0.288   4.747  16.034  1.3429  1.1455  0.2393
 5318TIP3    H237370   0.144   4.794  16.037  0.5164 -1.1838 -1.0611
 5319TIP3   OH237371   6.156   2.807   2.628  0.4718  0.3204  0.2126
 5319TIP3    H137372   6.226   2.799   2.693  0.0590 -0.4500  0.5600
 5319TIP3    H237373   6.082   2.759   2.665 -0.3110  1.3048 -0.0667
 5320TIP3   OH237374   6.408   6.705   1.159 -0.5033 -0.2656 -0.1178
 5320TIP3    H137375   6.483   6.677   1.210 -1.1386 -1.8129 -0.0255
 5320TIP3    H237376   6.392   6.795   1.188  0.9603 -0.1115  0.2495
 5321TIP3   OH237377   2.513   1.804   2.699 -0.0941 -0.5075 -0.1432
 5321TIP3    H137378   2.516   1.713   2.728  0.5782 -0.0835  1.1560
 5321TIP3    H237379   2.597   1.841   2.727  0.2495  0.1288 -1.9624
 5322TIP3   OH237380   4.957   6.588   2.040  0.0215  0.3231  0.9567
 5322TIP3    H137381   4.934   6.631   2.122 -1.9122  2.1417 -0.5078
 5322TIP3    H237382   4.941   6.654   1.972  0.3399 -1.5635 -1.0174
 5323TIP3   OH237383   0.586   2.577   1.976 -0.6246 -0.1938 -0.4359
 5323TIP3    H137384   0.550   2.610   2.058 -0.2190 -3.0690  0.9552
 5323TIP3    H237385   0.509   2.550   1.925 -0.7260 -3.1649  1.1515
 5324TIP3   OH237386   3.310   3.866   1.669  0.1403  0.3119 -0.0103
 5324TIP3    H137387   3.322   3.872   1.764 -1.4217  2.4603  0.0709
 5324TIP3    H237388   3.231   3.813   1.658  0.7605 -0.6107 -0.1694
 5325TIP3   OH237389   3.586   1.717  16.605  0.1261  0.1868  0.7841
 5325TIP3    H137390   3.657   1.660  16.634  0.2623  0.0833  0.2388
 5325TIP3    H237391   3.616   1.805  16.629  0.4220  0.1409  0.5851
 5326TIP3   OH237392   5.078   6.453   6.067  0.2579 -1.1056  0.3678
 5326TIP3    H137393   4.985   6.437   6.081  0.8498 -4.7099  0.8650
 5326TIP3    H237394   5.083   6.496   5.982 -1.8284 -1.2167  0.1766
 5327TIP3   OH237395   5.417   2.982  15.562  0.5381 -0.1699 -0.3513
 5327TIP3    H137396   5.323   2.961  15.556  0.9172 -2.1483  0.3145
 5327TIP3    H237397   5.426   3.029  15.644  0.4043 -1.6710  0.5433
 5328TIP3   OH237398   5.091   0.949  11.809  0.0152  0.2128  0.2590
 5328TIP3    H137399   5.141   1.030  11.810  0.7192 -0.2046  1.8817
 5328TIP3    H237400   5.043   0.950  11.892 -2.6881  0.5947 -1.2446
 5329TIP3   OH237401   3.682   2.210  15.601  0.1164 -0.0623 -0.2055
 5329TIP3    H137402   3.764   2.202  15.649 -0.1651 -0.4809  0.2178
 5329TIP3    H237403   3.703   2.263  15.524  0.5163  0.8205  0.5072
 5330TIP3   OH237404   0.478   4.076   5.933 -0.3778 -0.0108 -0.0284
 5330TIP3    H137405   0.526   3.996   5.956  0.4442  0.7221  0.8349
 5330TIP3    H237406   0.402   4.077   5.991  1.4829  1.6354  2.4696
 5331TIP3   OH237407   6.548   5.975   0.884 -0.1522  0.3950 -0.0944
 5331TIP3    H137408   6.536   6.069   0.899 -1.3567  0.2040  0.1805
 5331TIP3    H237409   6.460   5.939   0.886  0.2926 -0.7270 -0.3576
 5332TIP3   OH237410   1.478   3.900  16.635 -0.3642 -0.1266  0.4973
 5332TIP3    H137411   1.491   3.865  16.723 -2.1509 -2.0214  0.0466
 5332TIP3    H237412   1.401   3.854  16.602 -0.4836  1.4899 -1.5843
 5333TIP3   OH237413   5.771   6.625  13.636  0.3601  0.6722 -0.7450
 5333TIP3    H137414   5.688   6.660  13.668  1.0268  0.8383  0.8599
 5333TIP3    H237415   5.831   6.700  13.637  0.6861  0.4232 -1.3412
 5334TIP3   OH237416   0.661   0.276  12.760 -0.5437 -0.3158 -0.0752
 5334TIP3    H137417   0.646   0.364  12.727  0.6738 -1.0044 -2.5704
 5334TIP3    H237418   0.745   0.281  12.804 -0.5437 -0.1939 -0.0879
 5335TIP3   OH237419   3.533   5.684   1.396  0.0610 -0.0576  0.2433
 5335TIP3    H137420   3.591   5.642   1.459  1.2262 -1.4811 -1.7040
 5335TIP3    H237421   3.456   5.628   1.393  0.0456 -0.0410  0.3307
 5336TIP3   OH237422   1.038   4.321  16.991 -0.3341  0.0997  0.7878
 5336TIP3    H137423   0.973   4.383  16.959  0.0822 -0.2491 -0.7824
 5336TIP3    H237424   1.080   4.366  17.065  0.0132  1.7330 -0.3782
 5337TIP3   OH237425   1.687   0.465   1.383  0.2508 -0.2323  0.6337
 5337TIP3    H137426   1.766   0.511   1.411 -0.3326  1.3271 -0.2475
 5337TIP3    H237427   1.615   0.511   1.427 -0.3729 -0.0234 -0.5908
 5338TIP3   OH237428   1.048   3.569  12.280  0.6177  0.3372  0.3012
 5338TIP3    H137429   0.998   3.650  12.271 -0.1829 -0.1540  0.3305
 5338TIP3    H237430   1.020   3.533  12.364  1.1284  0.1287  0.3850
 5339TIP3   OH237431   1.141   1.230  15.087  0.2887 -0.2884 -0.6515
 5339TIP3    H137432   1.160   1.189  15.171  2.2383  0.8124 -0.5078
 5339TIP3    H237433   1.225   1.227  15.040 -1.1888 -2.4439 -3.2499
 5340TIP3   OH237434   5.798   0.881   2.429 -0.4782  0.1456  0.1653
 5340TIP3    H137435   5.762   0.834   2.354  1.3181  1.0314 -1.2859
 5340TIP3    H237436   5.775   0.972   2.414  0.9594  0.5024  0.0226
 5341TIP3   OH237437   6.064   5.061   4.393 -0.2007 -0.1151  0.2942
 5341TIP3    H137438   5.991   5.122   4.404 -1.0830 -1.2237  0.7425
 5341TIP3    H237439   6.075   5.055   4.298 -0.9405 -0.2046  0.2056
 5342TIP3   OH237440   4.462   1.452  16.211  0.1407 -0.2816  0.0564
 5342TIP3    H137441   4.528   1.521  16.216 -2.6275  2.5516 -0.8602
 5342TIP3    H237442   4.499   1.387  16.151  2.4248  0.8074  0.2438
 5343TIP3   OH237443   1.865   6.467  16.568 -0.1343 -0.3799 -0.0484
 5343TIP3    H137444   1.838   6.381  16.599 -1.1730 -0.3417 -0.8417
 5343TIP3    H237445   1.933   6.494  16.630  0.3328 -1.8447  0.0950
 5344TIP3   OH237446   3.441   0.212  14.554  0.1201  0.1324 -0.1995
 5344TIP3    H137447   3.508   0.175  14.611  0.1626  0.9200  0.2640
 5344TIP3    H237448   3.359   0.170  14.582  0.0085  1.1461  1.0133
 5345TIP3   OH237449   1.426   6.228  12.187 -0.2873  0.0631 -0.5930
 5345TIP3    H137450   1.463   6.140  12.192 -0.7890 -0.0632  1.5549
 5345TIP3    H237451   1.443   6.257  12.098 -0.8150 -2.5099 -1.5663
 5346TIP3   OH237452   5.287   6.716   2.756  0.1213 -0.1896 -0.0358
 5346TIP3    H137453   5.328   6.802   2.766  1.2606 -0.8438  1.0811
 5346TIP3    H237454   5.221   6.729   2.688  0.9479  1.3319 -0.5776
 5347TIP3   OH237455   6.422   0.520  16.075 -0.2040 -0.3309  0.4191
 5347TIP3    H137456   6.443   0.431  16.102  1.1650  0.3064  1.5665
 5347TIP3    H237457   6.353   0.548  16.136 -0.8905 -0.7186 -0.1721
 5348TIP3   OH237458   3.848   5.876  12.395  0.1421  0.0434  0.3674
 5348TIP3    H137459   3.784   5.860  12.465 -0.9543  2.2848 -0.0773
 5348TIP3    H237460   3.815   5.954  12.350  1.0687 -1.1239 -2.3907
 5349TIP3   OH237461   2.370   2.757  11.603  0.5268 -0.4447  0.0798
 5349TIP3    H137462   2.345   2.849  11.605  1.2474 -0.2465  0.0901
 5349TIP3    H237463   2.389   2.739  11.511 -2.7188 -1.4355 -0.4280
 5350TIP3   OH237464   3.734   5.877   2.781  0.2209 -0.0121 -0.6288
 5350TIP3    H137465   3.757   5.808   2.844 -1.0208 -0.3117 -0.4860
 5350TIP3    H237466   3.778   5.955   2.814  2.9948 -1.0525 -1.6756
 5351TIP3   OH237467   3.576   5.173  15.438  0.3948  0.2265  0.5301
 5351TIP3    H137468   3.558   5.125  15.357  0.9514 -0.1633  0.6370
 5351TIP3    H237469   3.540   5.118  15.507  0.2303  0.3963  0.5815
 5352TIP3   OH237470   0.532   5.459   4.773  0.2163  0.3635 -0.0902
 5352TIP3    H137471   0.531   5.529   4.839 -0.0898  0.1927  0.0888
 5352TIP3    H237472   0.557   5.503   4.692  3.7522  0.0316  0.7303
 5353TIP3   OH237473   5.295   2.940   2.456  0.3662 -0.1448  0.2879
 5353TIP3    H137474   5.312   2.990   2.536  0.8611 -1.0954  0.7755
 5353TIP3    H237475   5.278   3.007   2.389  0.8736  0.6697  0.9720
 5354TIP3   OH237476   5.406   2.843   1.100 -0.5690 -0.6219  0.8837
 5354TIP3    H137477   5.474   2.910   1.096 -1.3122  0.1355  0.8035
 5354TIP3    H237478   5.355   2.855   1.020 -0.0733 -1.9711  0.3553
 5355TIP3   OH237479   4.098   5.352   0.458 -0.5722  0.2518 -0.1826
 5355TIP3    H137480   4.144   5.303   0.389  1.0396 -0.2225  1.2065
 5355TIP3    H237481   4.086   5.289   0.528  0.4936  1.5353  1.1766
 5356TIP3   OH237482   6.237   3.467  11.704 -0.1137 -1.3134 -0.5482
 5356TIP3    H137483   6.254   3.397  11.641  1.0961  0.1815 -1.9242
 5356TIP3    H237484   6.323   3.499  11.729 -0.6308 -0.7989  0.6468
 5357TIP3   OH237485   5.905   4.836  14.795 -0.6426  0.3821 -0.1702
 5357TIP3    H137486   5.899   4.905  14.861  0.5101 -0.3650  0.7202
 5357TIP3    H237487   5.837   4.774  14.819  1.0691 -0.8859  1.5032
 5358TIP3   OH237488   3.784   6.670   1.530 -0.2461  0.7581 -0.3654
 5358TIP3    H137489   3.774   6.753   1.577  1.4926  0.2680  0.9146
 5358TIP3    H237490   3.738   6.606   1.584  1.1225  0.3308  0.3270
 5359TIP3   OH237491   1.444   0.186   6.563  0.6002  0.1082  0.5241
 5359TIP3    H137492   1.420   0.111   6.509  0.2887 -0.8468  1.9586
 5359TIP3    H237493   1.540   0.182   6.567  0.6090  0.0210  0.2874
 5360TIP3   OH237494   1.301   5.117  13.826 -0.1718 -0.7633 -0.3570
 5360TIP3    H137495   1.240   5.080  13.762 -0.1193 -1.0481 -0.2472
 5360TIP3    H237496   1.292   5.059  13.902 -1.2864  0.4127  0.4230
 5361TIP3   OH237497   0.559   4.436  14.409  0.6457 -0.0896 -0.1054
 5361TIP3    H137498   0.647   4.448  14.445  0.1669 -0.3040  1.1930
 5361TIP3    H237499   0.522   4.364  14.461  0.2931 -1.1272 -1.7546
 5362TIP3   OH237500   1.899   0.254   2.331  0.3272 -0.2384  0.5511
 5362TIP3    H137501   1.843   0.320   2.372  0.5035  0.3407 -0.1317
 5362TIP3    H237502   1.839   0.186   2.302  0.0911 -0.1463  0.8144
 5363TIP3   OH237503   2.041   2.144  16.991 -0.6116  0.2443 -0.3674
 5363TIP3    H137504   2.045   2.225  16.941  0.9538  0.5355  0.2108
 5363TIP3    H237505   2.132   2.126  17.015 -0.9731 -1.5440 -0.2728
 5364TIP3   OH237506   3.779   3.676   5.444  0.2431  0.1625 -0.9249
 5364TIP3    H137507   3.763   3.715   5.530  0.6928 -1.7903  0.0838
 5364TIP3    H237508   3.836   3.739   5.400  0.6589  0.8280  0.5086
 5365TIP3   OH237509   5.117   4.166  12.157 -0.1117 -0.3293  0.0629
 5365TIP3    H137510   5.127   4.189  12.065  0.6409  1.0728  0.4771
 5365TIP3    H237511   5.195   4.203  12.199 -0.0743 -1.6177  1.1375
 5366TIP3   OH237512   0.439   4.328  15.314  0.5098 -0.1981  0.0466
 5366TIP3    H137513   0.418   4.263  15.247  0.2900  1.2062 -1.2456
 5366TIP3    H237514   0.354   4.351  15.352  0.7206 -1.6766  1.4718
 5367TIP3   OH237515   0.996   1.665   6.299  0.2962 -0.0951 -0.2147
 5367TIP3    H137516   1.061   1.736   6.301 -1.1703  1.2319  1.3575
 5367TIP3    H237517   0.949   1.678   6.217  0.2496  0.5647 -0.0875
 5368TIP3   OH237518   3.443   0.459  12.684  0.7177 -0.3611 -0.0732
 5368TIP3    H137519   3.461   0.545  12.645 -0.1814 -0.2069 -0.1670
 5368TIP3    H237520   3.524   0.410  12.674  1.6352  0.8931  1.0987
 5369TIP3   OH237521   2.912   6.029  15.545 -0.8369 -0.0122  0.4286
 5369TIP3    H137522   2.970   6.104  15.559 -1.9707  0.8910  0.3442
 5369TIP3    H237523   2.912   6.016  15.450  0.3180 -0.9013  0.5392
 5370TIP3   OH237524   1.819   3.516   0.632  0.3544 -0.0901  0.2110
 5370TIP3    H137525   1.846   3.602   0.664  0.7462  0.2362 -0.9572
 5370TIP3    H237526   1.747   3.534   0.572  1.2315 -0.4512 -0.9788
 5371TIP3   OH237527   6.267   3.808  13.118  0.0338 -0.2728  0.2271
 5371TIP3    H137528   6.227   3.885  13.078 -1.2932 -0.9570  0.2248
 5371TIP3    H237529   6.239   3.811  13.209 -0.7262 -1.1985  0.0372
 5372TIP3   OH237530   6.627   4.272  12.255  0.3556 -0.2598  0.3479
 5372TIP3    H137531   6.713   4.232  12.270 -0.1388 -1.1503  0.8411
 5372TIP3    H237532   6.645   4.366  12.250  1.3978 -0.4645  0.1762
 5373TIP3   OH237533   5.360   2.541   5.343  0.0593  0.5286  0.3417
 5373TIP3    H137534   5.288   2.492   5.384  0.4822  0.6574  1.2294
 5373TIP3    H237535   5.424   2.552   5.412  1.4821 -0.6200 -0.7589
 5374TIP3   OH237536   2.592   0.992   2.322  0.3376 -0.1452 -0.0729
 5374TIP3    H137537   2.509   1.011   2.278  0.8806  1.0466 -0.6022
 5374TIP3    H237538   2.638   0.933   2.263 -0.4967 -1.5325  0.6344
 5375TIP3   OH237539   3.557   4.648   5.096 -0.1814 -0.6128  0.2334
 5375TIP3    H137540   3.645   4.630   5.128 -0.7229 -0.4335  1.8583
 5375TIP3    H237541   3.520   4.561   5.077 -0.2632 -0.8008  1.2253
 5376TIP3   OH237542   3.040   0.617  14.055 -0.1516  0.1867  0.2869
 5376TIP3    H137543   3.117   0.663  14.089  0.1007 -0.8164  1.0991
 5376TIP3    H237544   3.073   0.532  14.028 -0.8018  0.1173 -0.3200
 5377TIP3   OH237545   4.805   5.422   2.095 -0.0171 -0.5778  0.4009
 5377TIP3    H137546   4.826   5.338   2.056 -0.8147 -0.7693  0.3680
 5377TIP3    H237547   4.841   5.487   2.035  0.1423 -0.8920  0.1600
 5378TIP3   OH237548   5.643   2.312  10.795  0.0320  0.4288 -0.4149
 5378TIP3    H137549   5.661   2.222  10.768 -0.5845 -0.1011  0.9165
 5378TIP3    H237550   5.568   2.338  10.742 -1.5229 -0.8007  1.1407
 5379TIP3   OH237551   5.376   3.804  14.724 -0.2118  0.2931  0.1224
 5379TIP3    H137552   5.402   3.873  14.785 -0.0046  0.3571 -0.0342
 5379TIP3    H237553   5.282   3.814  14.714  0.1234  1.9983 -1.6468
 5380TIP3   OH237554   2.235   4.613  11.927  0.0465  0.2701  0.1924
 5380TIP3    H137555   2.212   4.671  11.855 -1.1478  0.2075  0.5256
 5380TIP3    H237556   2.331   4.618  11.931  0.0828  0.7000 -1.0307
 5381TIP3   OH237557   1.129   2.092  11.431 -0.3683  0.4054  0.2645
 5381TIP3    H137558   1.211   2.071  11.474  0.2797 -1.5901 -1.8369
 5381TIP3    H237559   1.131   2.187  11.419  1.8673  0.3207 -0.2186
 5382TIP3   OH237560   4.595   6.078   4.902  0.3860  0.0610  0.1428
 5382TIP3    H137561   4.576   6.168   4.928  0.6978  0.0273  0.4907
 5382TIP3    H237562   4.638   6.040   4.978 -1.6621 -1.0219  0.7877
 5383TIP3   OH237563   4.333   0.755  12.665 -0.1536 -0.3875  0.4859
 5383TIP3    H137564   4.239   0.736  12.668 -0.4901  1.1862  0.3380
 5383TIP3    H237565   4.349   0.778  12.573  0.3753 -0.6722  0.5089
 5384TIP3   OH237566   4.865   1.292  15.221  0.4249 -0.2402 -0.1619
 5384TIP3    H137567   4.780   1.327  15.247  0.0654 -0.7499 -0.6365
 5384TIP3    H237568   4.845   1.205  15.186  1.1463 -0.3776 -0.2363
 5385TIP3   OH237569   5.117   5.557  10.581  0.5880 -0.3732 -0.5980
 5385TIP3    H137570   5.063   5.493  10.627  1.2437 -0.6136 -0.1603
 5385TIP3    H237571   5.154   5.611  10.651 -2.3290  2.4037 -1.0733
 5386TIP3   OH237572   3.454   0.429   3.545  0.5139  0.1855 -0.2031
 5386TIP3    H137573   3.371   0.384   3.558  0.4091  0.5728  0.4750
 5386TIP3    H237574   3.458   0.494   3.615  1.0805  0.6204 -0.6298
 5387TIP3   OH237575   5.972   2.465   0.395  0.2843 -0.5952 -0.1233
 5387TIP3    H137576   5.998   2.482   0.305 -0.6693 -0.1317 -0.3128
 5387TIP3    H237577   6.044   2.413   0.431  0.3123 -1.4370 -1.3756
 5388TIP3   OH237578   1.913   4.959  12.851 -0.0645 -0.0579 -0.2142
 5388TIP3    H137579   1.846   5.020  12.883  0.0507  0.0447 -0.1677
 5388TIP3    H237580   1.957   5.007  12.781 -0.7093 -0.5021 -0.9377
 5389TIP3   OH237581   0.524   2.059  15.153 -0.6547  0.1565  0.3457
 5389TIP3    H137582   0.559   2.099  15.073 -1.5691 -0.1047 -0.1911
 5389TIP3    H237583   0.563   2.110  15.224 -0.2101  0.6991 -0.2803
 5390TIP3   OH237584   0.326   4.541   1.627 -0.2603 -0.2634 -0.2657
 5390TIP3    H137585   0.342   4.612   1.565  0.6252 -1.8250 -1.8758
 5390TIP3    H237586   0.350   4.577   1.712  0.7196  1.1835 -1.1390
 5391TIP3   OH237587   0.241   4.605  15.764  0.0185 -0.5332  0.0493
 5391TIP3    H137588   0.310   4.562  15.715  0.9431  1.0246 -0.0436
 5391TIP3    H237589   0.275   4.693  15.782 -1.5789 -0.0354  0.7452
 5392TIP3   OH237590   1.969   5.660  11.908  0.1445 -0.7167 -0.7653
 5392TIP3    H137591   2.018   5.598  11.963 -0.3151 -0.5209 -0.1226
 5392TIP3    H237592   1.938   5.727  11.970 -0.6599 -0.6715 -1.2188
 5393TIP3   OH237593   0.522   2.639   4.966 -0.4565 -0.4310  0.8292
 5393TIP3    H137594   0.504   2.732   4.952 -1.0951 -0.8561 -1.3744
 5393TIP3    H237595   0.617   2.634   4.971 -0.3281  0.1671 -0.6104
 5394TIP3   OH237596   3.085   1.660  16.294  0.1649 -0.0860 -0.1022
 5394TIP3    H137597   3.054   1.575  16.326  1.1031 -0.0385  1.0014
 5394TIP3    H237598   3.140   1.693  16.365 -0.7247  1.7561 -0.2462
 5395TIP3   OH237599   1.814   5.973   5.144 -0.1699 -0.2462 -0.0585
 5395TIP3    H137600   1.801   5.952   5.236  0.8060 -1.2627 -0.1509
 5395TIP3    H237601   1.765   5.905   5.097  1.6091 -1.3623 -0.3274
 5396TIP3   OH237602   2.144   5.675  13.901  0.3990 -0.3427 -0.6071
 5396TIP3    H137603   2.211   5.608  13.919 -0.2470 -1.2998 -1.7300
 5396TIP3    H237604   2.068   5.646  13.951  0.6230  0.4474  0.2141
 5397TIP3   OH237605   6.024   3.210   1.754  0.3474  0.0729 -0.0300
 5397TIP3    H137606   5.962   3.283   1.764 -1.7356 -1.7240  0.6808
 5397TIP3    H237607   6.070   3.206   1.838  0.2259  0.3607  0.0512
 5398TIP3   OH237608   1.750   0.406  14.252  0.2936  0.1136 -0.0883
 5398TIP3    H137609   1.833   0.452  14.258  0.9650 -1.1194  0.2380
 5398TIP3    H237610   1.685   0.469  14.282  1.0299  1.2827 -0.9425
 5399TIP3   OH237611   5.149   0.756   3.719  0.1581 -0.0385 -0.1488
 5399TIP3    H137612   5.215   0.756   3.649 -0.2632  0.1101 -0.5537
 5399TIP3    H237613   5.085   0.690   3.692  1.0839 -1.5053  1.1639
 5400TIP3   OH237614   3.851   4.685  13.237  0.3223  0.4840 -0.4478
 5400TIP3    H137615   3.772   4.671  13.185 -0.3080  1.4809  0.2195
 5400TIP3    H237616   3.820   4.684  13.328  1.0331  1.1102 -0.1912
 5401TIP3   OH237617   2.942   2.711  12.096 -0.1164 -0.1282 -0.1090
 5401TIP3    H137618   2.889   2.636  12.069 -0.2175 -0.3675  0.7386
 5401TIP3    H237619   3.033   2.681  12.085 -0.1433 -0.9419  1.7228
 5402TIP3   OH237620   0.693   1.602  11.626 -0.4829 -0.1952  0.3835
 5402TIP3    H137621   0.626   1.669  11.644  0.1905  0.4432  0.5073
 5402TIP3    H237622   0.645   1.519  11.631 -0.8059  0.1161  2.6928
 5403TIP3   OH237623   3.028   5.729  10.525  0.3809 -0.1885  0.4150
 5403TIP3    H137624   2.986   5.658  10.475  1.6812 -1.0663  0.5468
 5403TIP3    H237625   2.994   5.719  10.614  1.7147 -1.6227  0.7886
 5404TIP3   OH237626   5.907   1.277  12.627 -0.1846 -0.2154 -0.2054
 5404TIP3    H137627   5.858   1.291  12.546  0.6741  0.1864 -0.6596
 5404TIP3    H237628   5.864   1.201  12.668 -1.8634  0.7945 -0.0576
 5405TIP3   OH237629   6.379   3.855  15.780 -0.1930  0.4722  0.1232
 5405TIP3    H137630   6.462   3.874  15.824 -1.1275  0.7359  1.8296
 5405TIP3    H237631   6.402   3.847  15.687  1.7546  0.3681  0.5958
 5406TIP3   OH237632   1.298   6.665  13.149 -0.2569 -0.9939 -0.1878
 5406TIP3    H137633   1.287   6.717  13.070 -1.6726  1.0634  1.3081
 5406TIP3    H237634   1.219   6.683  13.200  1.7334 -0.3673  2.7624
 5407TIP3   OH237635   6.784   1.366   1.965  0.9218  0.0420 -0.9894
 5407TIP3    H137636   6.734   1.419   2.028  1.4267  0.3503 -0.8438
 5407TIP3    H237637   6.733   1.370   1.884  0.0300 -0.7386 -0.4686
 5408TIP3   OH237638   0.910   4.073  10.295  0.0737 -0.2839  0.0236
 5408TIP3    H137639   0.938   4.068  10.386  1.4908  2.6958 -0.1790
 5408TIP3    H237640   0.871   4.160  10.288  0.7983 -0.1325 -2.4263
 5409TIP3   OH237641   4.308   1.883   2.910 -0.4267  0.2147 -0.2501
 5409TIP3    H137642   4.385   1.845   2.954 -0.5275  0.6153  0.2729
 5409TIP3    H237643   4.345   1.945   2.848 -0.3791  1.5871  1.1253
 5410TIP3   OH237644   1.466   4.592   4.676  0.0377 -0.2028  0.0967
 5410TIP3    H137645   1.390   4.649   4.670 -0.1514 -0.5294 -0.7020
 5410TIP3    H237646   1.537   4.649   4.703 -0.3960  0.1881  0.4121
 5411TIP3   OH237647   5.681   5.429  14.652  0.2401 -0.2021  0.1823
 5411TIP3    H137648   5.714   5.342  14.628  0.3483 -0.2078  0.3485
 5411TIP3    H237649   5.589   5.428  14.625  0.3408 -0.2332 -0.1644
 5412TIP3   OH237650   6.708   0.145  13.082 -0.3017 -0.7751  0.7408
 5412TIP3    H137651   6.772   0.205  13.121 -0.4892 -0.7805  1.0603
 5412TIP3    H237652   6.634   0.200  13.059  0.2814 -0.5714 -0.7228
 5413TIP3   OH237653   6.684   1.802   1.272  0.2440  0.2941 -0.2056
 5413TIP3    H137654   6.766   1.768   1.237  0.1402  0.5773 -0.7262
 5413TIP3    H237655   6.689   1.784   1.366  0.7426 -0.0105 -0.2872
 5414TIP3   OH237656   0.745   5.745   5.723  0.0442 -0.0663  0.0869
 5414TIP3    H137657   0.743   5.661   5.770 -1.4835 -0.3407 -0.4420
 5414TIP3    H237658   0.717   5.723   5.634 -1.7638  1.2391  0.3161
 5415TIP3   OH237659   5.433   3.785  14.144  0.0378 -0.4640 -0.1000
 5415TIP3    H137660   5.526   3.792  14.165  0.8898 -0.2967 -3.6375
 5415TIP3    H237661   5.401   3.714  14.201  2.9612 -2.4020 -0.7706
 5416TIP3   OH237662   3.293   5.336   4.389  0.0589  0.0581  0.1313
 5416TIP3    H137663   3.254   5.250   4.369 -2.2118  1.0376  0.2354
 5416TIP3    H237664   3.299   5.338   4.485  2.3341 -0.8893  0.0634
 5417TIP3   OH237665   3.178   1.942  15.829  0.2701  0.3041 -0.1871
 5417TIP3    H137666   3.218   1.971  15.911  0.3029 -0.6876  0.1552
 5417TIP3    H237667   3.242   1.965  15.761  0.5985  0.3975  0.1525
 5418TIP3   OH237668   0.935   0.682  13.742  0.0730  0.0288  0.1016
 5418TIP3    H137669   0.852   0.643  13.715 -1.0277  0.7912  2.2349
 5418TIP3    H237670   0.984   0.610  13.782 -0.7602  0.1732  1.4138
 5419TIP3   OH237671   1.742   6.212   0.230  0.2800 -0.4377  0.4622
 5419TIP3    H137672   1.717   6.243   0.318 -1.0660  0.1067 -0.0905
 5419TIP3    H237673   1.750   6.292   0.178 -0.2776 -0.8349 -0.2403
 5420TIP3   OH237674   5.824   3.103  14.439  0.3445  0.3103 -0.1366
 5420TIP3    H137675   5.869   3.163  14.499 -1.2760  0.5553  0.8858
 5420TIP3    H237676   5.744   3.079  14.486  0.7654 -2.3541 -0.6867
 5421TIP3   OH237677   6.741   5.966  11.885  0.9717  0.3823  0.2222
 5421TIP3    H137678   6.712   5.888  11.837  1.4318 -1.6759  3.1311
 5421TIP3    H237679   6.668   5.987  11.943  2.5669 -0.7781  2.7799
 5422TIP3   OH237680   1.462   4.827   2.057 -1.1003 -0.1007 -0.1658
 5422TIP3    H137681   1.482   4.766   2.128 -0.4865 -0.2518 -0.4704
 5422TIP3    H237682   1.374   4.859   2.077 -1.1809 -0.6282  0.3165
 5423TIP3   OH237683   4.649   5.010   6.503  0.3138  0.2907 -0.2197
 5423TIP3    H137684   4.564   5.048   6.525  0.8047  1.7164 -0.7135
 5423TIP3    H237685   4.632   4.957   6.425  0.0157  1.2537 -0.8326
 5424TIP3   OH237686   3.104   5.953   3.492 -0.0028  0.1804 -0.0917
 5424TIP3    H137687   3.164   5.881   3.513  0.8927  1.8941  3.6380
 5424TIP3    H237688   3.021   5.927   3.531  0.5034  1.4072  1.8794
 5425TIP3   OH237689   2.777   2.775  14.128  0.5730 -0.0920  0.1739
 5425TIP3    H137690   2.778   2.792  14.034 -0.2281  0.1967  0.2128
 5425TIP3    H237691   2.831   2.845  14.165  1.1302 -0.3802 -0.0998
 5426TIP3   OH237692   0.608   6.118  14.088 -0.3762 -0.1584 -0.6582
 5426TIP3    H137693   0.571   6.184  14.029 -0.2378  0.0466 -0.5168
 5426TIP3    H237694   0.703   6.123  14.073 -0.4373 -0.9399 -1.2856
 5427TIP3   OH237695   0.036   5.036  16.799  0.2430 -0.0786  0.6572
 5427TIP3    H137696   0.050   4.980  16.875  1.3212 -0.4093  0.2203
 5427TIP3    H237697   0.071   5.121  16.825  0.6561 -0.2042  0.5086
 5428TIP3   OH237698   4.705   6.128  11.881  0.3780 -0.1411 -0.6767
 5428TIP3    H137699   4.798   6.150  11.878  0.8705 -1.7558  1.1981
 5428TIP3    H237700   4.686   6.091  11.795  1.4620  0.2833 -1.1044
 5429TIP3   OH237701   5.591   1.686   2.046  0.0156  0.0273 -0.5119
 5429TIP3    H137702   5.673   1.734   2.058 -0.6124  0.6119  1.8108
 5429TIP3    H237703   5.618   1.598   2.020  1.3375  0.4728 -0.6618
 5430TIP3   OH237704   2.961   4.720  16.461 -0.3556 -0.2925  0.2082
 5430TIP3    H137705   2.981   4.749  16.550 -0.4764 -0.5667  0.3237
 5430TIP3    H237706   2.879   4.764  16.440 -0.7004 -0.7795  0.4999
 5431TIP3   OH237707   3.390   2.959   1.903 -0.0173  0.1154 -0.3600
 5431TIP3    H137708   3.485   2.966   1.908 -0.0528  1.3914 -1.2143
 5431TIP3    H237709   3.371   2.948   1.810 -0.8058  1.7192 -0.4127
 5432TIP3   OH237710   0.487   2.121   0.946 -0.4545  0.3792  0.4325
 5432TIP3    H137711   0.511   2.039   0.989  0.3073  0.3623 -0.0288
 5432TIP3    H237712   0.418   2.158   1.002 -1.0937 -0.7765  0.4139
 5433TIP3   OH237713   4.416   2.877  16.332 -0.0575 -0.1978  0.1016
 5433TIP3    H137714   4.422   2.807  16.397 -2.9405  0.3144  1.0206
 5433TIP3    H237715   4.322   2.888  16.318  0.4267  1.9570 -1.7031
 5434TIP3   OH237716   6.634   6.438   3.234 -0.3438  0.5648 -0.0620
 5434TIP3    H137717   6.726   6.452   3.259 -0.4191  0.7708  0.1125
 5434TIP3    H237718   6.594   6.399   3.312 -0.8462  2.2801  0.5702
 5435TIP3   OH237719   4.564   2.547   2.283  0.5914 -0.3662 -0.0721
 5435TIP3    H137720   4.623   2.478   2.313 -0.0300 -1.2847 -0.9614
 5435TIP3    H237721   4.520   2.510   2.206 -2.0010 -0.1176  1.2431
 5436TIP3   OH237722   4.777   1.491   5.680 -0.2691 -0.5423  0.4073
 5436TIP3    H137723   4.756   1.577   5.643 -2.5373 -1.2484 -0.0212
 5436TIP3    H237724   4.815   1.442   5.607 -0.4289 -0.4093  0.2322
 5437TIP3   OH237725   4.012   3.652  11.829 -0.6482  0.3581 -0.5967
 5437TIP3    H137726   3.934   3.665  11.775  0.1170 -0.9506 -2.0646
 5437TIP3    H237727   3.979   3.613  11.910 -1.5263 -0.3282 -1.2632
 5438TIP3   OH237728   4.921   3.769  15.417 -0.1754  0.0431 -0.0561
 5438TIP3    H137729   4.887   3.856  15.396 -0.5503 -0.3483 -1.1124
 5438TIP3    H237730   4.873   3.743  15.496 -2.1540 -0.3805 -1.3575
 5439TIP3   OH237731   2.461   4.813   1.259  0.4186 -0.0748  0.0668
 5439TIP3    H137732   2.528   4.876   1.234  2.1950 -1.3786  1.4530
 5439TIP3    H237733   2.397   4.865   1.307  1.9449  0.6804  1.3306
 5440TIP3   OH237734   0.982   0.757   1.223 -0.1509 -0.0818  0.3534
 5440TIP3    H137735   1.041   0.757   1.299  1.6594 -0.0221 -1.0354
 5440TIP3    H237736   0.925   0.681   1.236 -0.0440  0.0869  1.8998
 5441TIP3   OH237737   4.218   2.840  14.376 -0.1332 -0.5859 -0.1248
 5441TIP3    H137738   4.226   2.759  14.326  0.6398 -1.7943  1.9158
 5441TIP3    H237739   4.146   2.823  14.437 -0.1935  0.4116  0.0917
 5442TIP3   OH237740   2.983   2.122   5.443  0.4207  0.2453  0.1426
 5442TIP3    H137741   3.054   2.072   5.483  0.3060 -0.5695 -0.6762
 5442TIP3    H237742   3.026   2.202   5.411  0.7571  0.2790  0.6661
 5443TIP3   OH237743   0.260   1.996  16.048 -0.4322  0.0889  0.2009
 5443TIP3    H137744   0.216   1.960  15.971 -0.4974 -0.7151  0.6015
 5443TIP3    H237745   0.353   1.988  16.030 -0.4471 -0.2325  0.2631
 5444TIP3   OH237746   2.127   2.562   2.854 -0.0005  0.0812  0.3228
 5444TIP3    H137747   2.215   2.599   2.866  0.1851  0.0049 -0.7408
 5444TIP3    H237748   2.123   2.491   2.917  0.6788  0.1315  0.4351
 5445TIP3   OH237749   0.882   2.645  14.826  0.4679 -0.0291 -0.1649
 5445TIP3    H137750   0.832   2.566  14.846 -0.9917  1.2814  1.5205
 5445TIP3    H237751   0.855   2.670  14.738 -0.9033 -0.0607  0.2390
 5446TIP3   OH237752   3.267   5.128   2.496  0.0379 -0.0101 -0.2407
 5446TIP3    H137753   3.246   5.205   2.443 -0.3168 -1.1242 -1.7316
 5446TIP3    H237754   3.226   5.055   2.451 -0.7442 -0.9225  1.8713
 5447TIP3   OH237755   0.019   5.079   5.520 -0.4719 -0.4845  0.3268
 5447TIP3    H137756   0.006   5.171   5.544  0.7646  0.5369 -2.6837
 5447TIP3    H237757   0.090   5.050   5.578 -0.6186  0.5815  1.0551
 5448TIP3   OH237758   0.155   6.707  12.833  0.2229  0.1462 -0.4588
 5448TIP3    H137759   0.149   6.638  12.767 -1.4596 -0.4854  0.3287
 5448TIP3    H237760   0.190   6.782  12.785  1.2945 -1.0009 -1.5197
 5449TIP3   OH237761   6.194   0.463   1.967 -0.2199  0.1362 -0.3919
 5449TIP3    H137762   6.200   0.504   2.053 -1.0536  1.1962 -0.8375
 5449TIP3    H237763   6.159   0.375   1.985 -1.6991  0.8402  0.2189
 5450TIP3   OH237764   0.400   4.176  16.670  0.1640 -0.1540 -0.8799
 5450TIP3    H137765   0.345   4.187  16.592  0.2040 -1.3845 -1.0940
 5450TIP3    H237766   0.340   4.190  16.743  0.5612  3.0693 -1.1070
 5451TIP3   OH237767   0.070   1.350   1.492 -0.2179 -0.1704  0.0139
 5451TIP3    H137768   0.104   1.263   1.512  3.0708  1.4549  1.8299
 5451TIP3    H237769  -0.012   1.356   1.542  0.7996 -1.3370  1.8545
 5452TIP3   OH237770   4.702   4.787  15.636 -0.7079  0.6552  0.1565
 5452TIP3    H137771   4.701   4.736  15.717 -0.5524  0.4021 -0.0013
 5452TIP3    H237772   4.610   4.802  15.615 -0.7972 -0.8119 -0.5942
 5453TIP3   OH237773   5.340   0.446   0.726  0.7408  0.6854 -0.7588
 5453TIP3    H137774   5.324   0.420   0.817  2.4549 -0.5953 -0.7869
 5453TIP3    H237775   5.271   0.509   0.706 -1.7373 -1.5930  0.3351
 5454TIP3   OH237776   1.639   0.651  14.621  0.2873 -0.2784 -0.3996
 5454TIP3    H137777   1.553   0.617  14.598 -0.1893  0.8512 -0.3662
 5454TIP3    H237778   1.657   0.718  14.555  0.7563  0.0723  0.0743
 5455TIP3   OH237779   6.780   0.824  10.851  0.5662  0.1975 -0.0131
 5455TIP3    H137780   6.709   0.829  10.788  1.0084 -0.0359 -0.5353
 5455TIP3    H237781   6.853   0.868  10.808  1.7305 -2.4293 -0.8564
 5456TIP3   OH237782   5.280   6.347  15.889 -0.3852  0.0096  0.4419
 5456TIP3    H137783   5.253   6.353  15.981  0.3090 -0.3798  0.6709
 5456TIP3    H237784   5.370   6.316  15.892 -0.7912 -1.3146 -0.4221
 5457TIP3   OH237785   6.592   6.240  15.023  0.3125 -0.5710  0.0574
 5457TIP3    H137786   6.502   6.223  15.048 -0.4056  2.7462  0.0367
 5457TIP3    H237787   6.643   6.229  15.104 -0.2736 -1.4231  0.3032
 5458TIP3   OH237788   0.629   4.410  10.796  0.3629  0.0968  0.0022
 5458TIP3    H137789   0.684   4.333  10.782  1.2902  0.6067  0.6955
 5458TIP3    H237790   0.540   4.380  10.781  0.5863 -1.4689  1.6643
 5459TIP3   OH237791   3.194   1.633   2.604 -0.2062 -0.0387 -0.3355
 5459TIP3    H137792   3.191   1.550   2.651 -0.6243  0.2481  0.1455
 5459TIP3    H237793   3.132   1.623   2.532  0.2415 -0.3843 -0.6743
 5460TIP3   OH237794   3.950   3.819  12.220  0.1287  0.3659  0.1121
 5460TIP3    H137795   4.003   3.804  12.298 -0.8206  0.7011  0.8260
 5460TIP3    H237796   3.960   3.913  12.202 -1.0530  0.6436  0.8648
 5461TIP3   OH237797   2.677   4.872   2.361 -0.0813  0.9712  0.1819
 5461TIP3    H137798   2.646   4.899   2.447 -1.5598 -1.0449  0.3044
 5461TIP3    H237799   2.765   4.838   2.377 -0.2938  0.7476  0.8715
 5462TIP3   OH237800   6.096   5.467  13.995  0.0749 -0.2578 -0.1925
 5462TIP3    H137801   6.077   5.451  14.087  1.1550  0.4406  0.1601
 5462TIP3    H237802   6.016   5.505  13.960 -0.1644 -0.0402  0.5837
 5463TIP3   OH237803   0.611   2.216   3.211 -0.7050 -0.0869 -0.3198
 5463TIP3    H137804   0.520   2.204   3.238  0.1881  2.0727  3.9138
 5463TIP3    H237805   0.643   2.289   3.263  3.1496  0.0219 -2.6366
 5464TIP3   OH237806   2.433   4.749  12.925  0.1077 -0.7070  0.3825
 5464TIP3    H137807   2.412   4.657  12.916  0.9928 -1.0263  1.4424
 5464TIP3    H237808   2.522   4.757  12.893 -0.8691  0.2742 -2.1993
 5465TIP3   OH237809   2.668   5.473   1.378 -0.2206  0.3469 -0.4094
 5465TIP3    H137810   2.637   5.445   1.292 -0.2241 -1.6216  0.2149
 5465TIP3    H237811   2.594   5.457   1.437  0.6793 -0.8332  0.4188
 5466TIP3   OH237812   0.982   1.301  16.942  0.4231 -0.5611 -0.0213
 5466TIP3    H137813   1.030   1.249  17.006  0.3562 -0.9945 -0.3178
 5466TIP3    H237814   1.044   1.368  16.914  0.1509  0.2101  1.1806
 5467TIP3   OH237815   2.375   3.248   6.483 -0.2953 -0.6185  0.3843
 5467TIP3    H137816   2.320   3.184   6.529 -0.9438 -1.0762 -0.9948
 5467TIP3    H237817   2.406   3.307   6.552 -1.1901 -1.3250  1.4137
 5468TIP3   OH237818   5.359   2.149  16.551  0.5323  0.1656  0.2619
 5468TIP3    H137819   5.445   2.162  16.513  1.0049 -0.4938  1.1023
 5468TIP3    H237820   5.375   2.101  16.632 -0.4372  1.5458  1.3140
 5469TIP3   OH237821   4.455   5.302   6.799  0.0363 -0.8086 -0.4820
 5469TIP3    H137822   4.544   5.292   6.765  0.5032 -1.2821  0.8764
 5469TIP3    H237823   4.418   5.374   6.747  1.5757  0.1397 -0.2941
 5470TIP3   OH237824   2.839   5.800  16.769  0.1724  0.0688  0.2671
 5470TIP3    H137825   2.784   5.721  16.773  1.7188 -0.9724  2.1736
 5470TIP3    H237826   2.801   5.859  16.834 -0.4095  0.4980 -0.4684
 5471TIP3   OH237827   2.402   4.415  11.183 -0.1606  0.2452  0.5734
 5471TIP3    H137828   2.487   4.424  11.226  0.9916 -0.8622 -1.3969
 5471TIP3    H237829   2.371   4.328  11.208  0.6814 -0.5490 -1.0822
 5472TIP3   OH237830   3.819   0.326  13.409  0.1728  0.0922 -0.1290
 5472TIP3    H137831   3.762   0.259  13.447 -1.5199  1.3018 -0.5006
 5472TIP3    H237832   3.791   0.408  13.451  1.9307  0.6446  0.0010
 5473TIP3   OH237833   4.819   0.019   0.143  0.0171 -0.3917  0.1827
 5473TIP3    H137834   4.824  -0.058   0.087 -1.6305  0.1574 -0.7298
 5473TIP3    H237835   4.766   0.082   0.094  0.1607  0.8038  1.5233
 5474TIP3   OH237836   3.158   4.791  11.356  0.1655 -0.0534  0.0859
 5474TIP3    H137837   3.177   4.876  11.396 -1.2216 -1.0490  3.0142
 5474TIP3    H237838   3.069   4.800  11.321 -0.1011 -0.3697  0.6700
 5475TIP3   OH237839   1.126   6.669  15.596 -0.4764 -0.7143  0.0438
 5475TIP3    H137840   1.048   6.715  15.563 -0.1185  0.0237  0.2381
 5475TIP3    H237841   1.195   6.693  15.535 -0.3172 -1.0994  0.0738
 5476TIP3   OH237842   1.013   3.591   4.904  0.1244 -0.0608 -0.1921
 5476TIP3    H137843   1.042   3.561   4.818  0.3667 -2.0627  0.5664
 5476TIP3    H237844   0.919   3.606   4.894 -0.0830 -1.4896 -0.4885
 5477TIP3   OH237845   4.653   5.407   3.408 -0.1619 -0.0410 -0.3689
 5477TIP3    H137846   4.565   5.372   3.415 -0.3619  0.0053 -2.2497
 5477TIP3    H237847   4.644   5.500   3.427 -0.7538  0.2090 -1.8098
 5478TIP3   OH237848   6.048   3.849  14.379 -0.0675 -0.0912 -0.0003
 5478TIP3    H137849   5.967   3.894  14.357 -1.1619 -0.7036  2.6755
 5478TIP3    H237850   6.021   3.763  14.411  1.7120 -0.7386 -0.1366
 5479TIP3   OH237851   1.967   1.637  15.801  0.3910  0.2390 -0.6989
 5479TIP3    H137852   1.967   1.563  15.862 -0.5376  0.2904 -0.6215
 5479TIP3    H237853   2.001   1.601  15.719  0.6828 -0.0818 -0.4349
 5480TIP3   OH237854   6.445   3.502   4.310 -0.6400 -0.0232 -0.2046
 5480TIP3    H137855   6.365   3.514   4.361 -1.0857 -1.5849 -0.5006
 5480TIP3    H237856   6.426   3.544   4.227 -0.1441  1.9802  0.6750
 5481TIP3   OH237857   6.014   4.417   3.233  0.0237 -0.2260 -0.3575
 5481TIP3    H137858   6.032   4.428   3.327 -1.4035 -0.8657  0.0029
 5481TIP3    H237859   6.001   4.506   3.201  0.8433  0.0212 -0.0284
 5482TIP3   OH237860   2.834   0.803   5.067 -0.2748  0.3898 -0.5606
 5482TIP3    H137861   2.919   0.839   5.042 -0.1174 -0.0121 -0.6093
 5482TIP3    H237862   2.806   0.752   4.991 -0.0920 -0.3074 -0.1720
 5483TIP3   OH237863   2.326   4.965   2.400 -0.4836  0.4834 -0.6320
 5483TIP3    H137864   2.389   4.926   2.461  1.7834  1.9296 -1.9736
 5483TIP3    H237865   2.350   5.058   2.398 -4.1858  1.5759  0.6153
 5484TIP3   OH237866   4.987   0.506   3.638  0.1148  0.4791  0.3504
 5484TIP3    H137867   5.078   0.483   3.658 -0.4613  0.3729  3.1132
 5484TIP3    H237868   4.935   0.436   3.676 -1.1428  0.5145 -1.2522
 5485TIP3   OH237869   0.989   1.110   4.600 -0.2764  0.6286  0.0957
 5485TIP3    H137870   0.902   1.093   4.566 -0.5290  0.0446  1.0093
 5485TIP3    H237871   1.027   1.174   4.540 -0.8931  0.0003 -0.9681
 5486TIP3   OH237872   0.403   2.770  13.006  0.2768  0.1638 -0.0774
 5486TIP3    H137873   0.394   2.747  13.099  0.0827 -1.1094 -0.4029
 5486TIP3    H237874   0.438   2.859  13.007 -0.6033  0.5208  1.2172
 5487TIP3   OH237875   4.024   2.383  12.721 -0.0454 -0.2349 -0.4054
 5487TIP3    H137876   3.966   2.403  12.648  1.5682  0.0152 -1.6615
 5487TIP3    H237877   3.969   2.388  12.799 -1.6748  0.0179 -1.5618
 5488TIP3   OH237878   6.420   5.811   0.594 -0.5233  0.1343 -0.0013
 5488TIP3    H137879   6.411   5.715   0.597 -2.4291  0.2852 -0.1789
 5488TIP3    H237880   6.490   5.830   0.656 -0.8450 -1.3006  0.8346
 5489TIP3   OH237881   0.542   2.268   2.574 -0.1404  0.1138 -0.4066
 5489TIP3    H137882   0.579   2.332   2.515  3.0067 -2.6072 -1.5561
 5489TIP3    H237883   0.599   2.270   2.651  0.2428 -1.4931 -0.6143
 5490TIP3   OH237884   3.509   0.199   2.545  0.7457 -0.4705 -0.4918
 5490TIP3    H137885   3.449   0.191   2.620  1.8355 -0.8437  0.3671
 5490TIP3    H237886   3.474   0.138   2.480 -1.4169  1.3972 -1.1316
 5491TIP3   OH237887   2.465   3.008   4.780 -0.0023  0.2020  0.0583
 5491TIP3    H137888   2.440   2.917   4.767  0.5549 -0.1192  1.1756
 5491TIP3    H237889   2.407   3.058   4.722 -0.3001 -0.8599 -0.5592
 5492TIP3   OH237890   1.565   0.178  10.457 -0.0513  0.1609 -0.0366
 5492TIP3    H137891   1.494   0.141  10.509 -0.0073  2.1273  1.5195
 5492TIP3    H237892   1.542   0.158  10.366 -1.5905 -0.9129  0.5771
 5493TIP3   OH237893   2.291   1.727  15.720 -0.1611  0.4201  0.3370
 5493TIP3    H137894   2.271   1.746  15.629  1.2430  0.9907  0.1440
 5493TIP3    H237895   2.238   1.790  15.769  0.4576  1.3067 -0.1356
 5494TIP3   OH237896   0.398   3.179   4.299  0.5097  0.3639  0.4549
 5494TIP3    H137897   0.327   3.116   4.287  1.3828 -1.0013  2.2443
 5494TIP3    H237898   0.471   3.143   4.249  0.8157  0.2987  0.9504
 5495TIP3   OH237899   5.417   4.075   6.382 -0.6342 -0.1882  0.1412
 5495TIP3    H137900   5.499   4.051   6.425  0.6716  0.9741 -1.6058
 5495TIP3    H237901   5.378   4.140   6.440  1.0026  1.2086 -0.2691
 5496TIP3   OH237902   6.378   6.278  15.786 -0.3582  0.3146  0.4041
 5496TIP3    H137903   6.428   6.319  15.716  0.2235 -0.0076  0.6346
 5496TIP3    H237904   6.313   6.225  15.741 -1.0134  1.3501  0.1042
 5497TIP3   OH237905   0.111   3.738  14.580 -0.1783  0.0256 -0.2806
 5497TIP3    H137906   0.020   3.722  14.556 -0.2265 -0.3076  0.1110
 5497TIP3    H237907   0.143   3.801  14.515 -0.3696 -0.6938 -1.0835
 5498TIP3   OH237908   0.873   4.927   2.848 -0.1447  0.5269  0.5571
 5498TIP3    H137909   0.783   4.958   2.837  0.0965  1.1738  0.4100
 5498TIP3    H237910   0.924   5.005   2.867  0.1968 -0.0036  1.8438
 5499TIP3   OH237911   5.827   2.875   4.670  0.0687 -0.4115 -0.3558
 5499TIP3    H137912   5.838   2.960   4.713 -0.1727 -0.6402  0.1697
 5499TIP3    H237913   5.803   2.815   4.741 -2.8359 -0.2840 -1.1512
 5500TIP3   OH237914   3.950   5.815   0.413 -0.0069  0.1658 -0.0926
 5500TIP3    H137915   3.877   5.822   0.475 -0.8580  0.1102 -1.0733
 5500TIP3    H237916   3.929   5.739   0.359  0.3686  0.6376 -0.9128
 5501TIP3   OH237917   3.140   4.072  16.677  0.3507 -0.1976  0.2788
 5501TIP3    H137918   3.147   4.108  16.588  0.2293  0.8181  0.6823
 5501TIP3    H237919   3.052   4.095  16.705  0.4653 -0.3402  0.7472
 5502TIP3   OH237920   1.706   4.253   0.947  0.4352  0.0017 -0.3215
 5502TIP3    H137921   1.667   4.194   0.883  0.9437 -1.8063  1.0151
 5502TIP3    H237922   1.758   4.314   0.894  1.2800 -1.7893 -1.6152
 5503TIP3   OH237923   1.407   3.004   3.838 -0.0193 -0.4203  0.4260
 5503TIP3    H137924   1.324   3.003   3.791  0.0247 -0.9794  0.3580
 5503TIP3    H237925   1.397   2.938   3.906 -0.0328  0.2868  1.1273
 5504TIP3   OH237926   1.238   3.585   2.422 -0.1130  0.0542  0.1315
 5504TIP3    H137927   1.241   3.509   2.480 -0.2385 -1.4337 -1.7715
 5504TIP3    H237928   1.321   3.630   2.438 -0.8335  0.6232  2.6468
 5505TIP3   OH237929   0.313   5.438   2.075  0.1345  0.1657 -0.1239
 5505TIP3    H137930   0.281   5.429   2.164 -0.4390  0.9661 -0.2408
 5505TIP3    H237931   0.400   5.476   2.085 -0.0249  0.4787  0.0866
 5506TIP3   OH237932   6.115   4.176   1.692  0.2048 -0.0521 -0.2112
 5506TIP3    H137933   6.188   4.237   1.701 -0.4864  0.7913 -0.3075
 5506TIP3    H237934   6.112   4.156   1.599  1.2763 -1.2866  0.0067
 5507TIP3   OH237935   1.541   1.586  11.126 -0.1480 -0.0346 -0.2480
 5507TIP3    H137936   1.590   1.652  11.175 -0.3242  0.1732 -0.3540
 5507TIP3    H237937   1.511   1.525  11.194 -1.5644  0.9977  0.0853
 5508TIP3   OH237938   5.865   1.413   6.138  0.7616  0.3505 -0.0235
 5508TIP3    H137939   5.808   1.357   6.191  2.0910 -1.2757 -0.2562
 5508TIP3    H237940   5.827   1.501   6.146 -0.3999 -0.2840  1.7196
 5509TIP3   OH237941   1.889   2.683  13.612 -0.8341  0.0179  0.6770
 5509TIP3    H137942   1.956   2.678  13.680 -1.0312  0.9708  0.9466
 5509TIP3    H237943   1.922   2.748  13.551 -1.7803  0.9312  1.1205
 5510TIP3   OH237944   4.577   3.557   4.451 -0.2540 -0.0768  0.0839
 5510TIP3    H137945   4.586   3.649   4.427  0.2669 -0.1235  0.0925
 5510TIP3    H237946   4.498   3.528   4.405  0.2937  0.0380 -0.9647
 5511TIP3   OH237947   2.731   4.193  12.288 -0.4193  0.3041 -0.5562
 5511TIP3    H137948   2.700   4.273  12.331 -1.5398 -0.3302 -0.1386
 5511TIP3    H237949   2.735   4.128  12.359 -1.5872 -0.5649 -1.2582
 5512TIP3   OH237950   4.856   2.932   1.456 -0.3517  0.3162  0.5638
 5512TIP3    H137951   4.767   2.960   1.478 -0.1815  2.4118 -1.2017
 5512TIP3    H237952   4.905   3.014   1.445  1.4346 -0.7769  0.1053
 5513TIP3   OH237953   3.743   4.091  12.492 -0.1950  0.8319 -0.6598
 5513TIP3    H137954   3.749   4.151  12.418  1.4991 -1.7576 -2.7110
 5513TIP3    H237955   3.810   4.121  12.553 -0.7943  2.2525 -0.6705
 5514TIP3   OH237956   3.470   5.201   3.600  0.5550  0.3737  0.3372
 5514TIP3    H137957   3.519   5.156   3.532  1.3719 -0.2630  1.3309
 5514TIP3    H237958   3.534   5.219   3.669  0.1996  2.8157  0.1033
 5515TIP3   OH237959   1.417   1.555   0.227 -0.0286  0.1337 -0.0851
 5515TIP3    H137960   1.446   1.547   0.318  0.6331  0.6453 -0.2465
 5515TIP3    H237961   1.475   1.496   0.178 -0.1912  0.0827 -0.2166
 5516TIP3   OH237962   3.670   2.278   6.437 -0.3730 -0.4156 -0.2685
 5516TIP3    H137963   3.731   2.248   6.369  1.1963 -0.9212  1.3221
 5516TIP3    H237964   3.694   2.228   6.514 -1.4955  0.8584  0.9249
 5517TIP3   OH237965   5.911   5.020  15.044  0.5261  0.2228 -0.1326
 5517TIP3    H137966   5.888   4.946  15.099 -0.1525  0.1332 -0.5419
 5517TIP3    H237967   5.837   5.080  15.051  0.4815  0.2645 -0.8446
 5518TIP3   OH237968   5.997   5.671   2.076  0.2634 -0.0078 -0.0578
 5518TIP3    H137969   6.045   5.603   2.122 -0.2153 -0.9603 -0.9531
 5518TIP3    H237970   5.970   5.631   1.994 -1.0680  0.8724 -0.0760
 5519TIP3   OH237971   3.217   0.463   0.192 -0.0266 -0.4782 -0.9990
 5519TIP3    H137972   3.126   0.487   0.172 -1.0190 -2.5361  0.8492
 5519TIP3    H237973   3.225   0.478   0.286  1.5722 -0.2803 -1.1579
 5520TIP3   OH237974   4.251   5.143  15.460  0.2670  0.5769  0.2217
 5520TIP3    H137975   4.250   5.202  15.384 -2.0224  1.5670  0.9838
 5520TIP3    H237976   4.161   5.113  15.469  0.9735 -1.3075  1.2126
 5521TIP3   OH237977   5.200   0.908  15.747 -0.6270 -0.2493 -0.3200
 5521TIP3    H137978   5.140   0.847  15.704 -1.7558  1.4733 -1.2613
 5521TIP3    H237979   5.204   0.877  15.838 -0.1958 -2.4316 -1.0355
 5522TIP3   OH237980   5.421   4.826  14.129 -0.2585  0.1563  0.3909
 5522TIP3    H137981   5.404   4.732  14.120  2.0266 -0.2862  0.4747
 5522TIP3    H237982   5.341   4.867  14.097 -1.0965 -1.8074 -0.1546
 5523TIP3   OH237983   5.980   5.684   3.576 -0.0870  0.5256  0.3891
 5523TIP3    H137984   5.906   5.627   3.555 -1.5466  2.1561  0.9447
 5523TIP3    H237985   5.942   5.772   3.581  2.0920  1.5464 -0.3512
 5524TIP3   OH237986   1.127   6.778   1.963  0.5914  0.7395 -0.1612
 5524TIP3    H137987   1.150   6.830   2.040  2.0439  2.7158 -1.8877
 5524TIP3    H237988   1.148   6.688   1.988  0.5812  1.2751  1.9089
 5525TIP3   OH237989   5.903   3.173   5.245  0.3132  0.4790 -0.0385
 5525TIP3    H137990   5.947   3.091   5.224 -2.1078 -1.2488  1.2901
 5525TIP3    H237991   5.851   3.153   5.323 -0.2939  3.3015  0.3549
 5526TIP3   OH237992   3.538   6.389   2.643 -0.1581  0.8806 -0.5764
 5526TIP3    H137993   3.494   6.318   2.691 -0.9602  1.3289 -0.6440
 5526TIP3    H237994   3.548   6.458   2.709 -2.1845  1.8964 -1.2845
 5527TIP3   OH237995   3.413   3.224   3.926  0.0067  0.3954  0.6179
 5527TIP3    H137996   3.455   3.153   3.878 -0.3295  1.9133 -1.9783
 5527TIP3    H237997   3.484   3.286   3.942 -0.3503  0.9204  0.1381
 5528TIP3   OH237998   3.961   4.246   0.618 -0.2650  0.0929  0.1479
 5528TIP3    H137999   3.912   4.169   0.647 -1.7935  1.1174  0.3656
 5528TIP3    H238000   3.935   4.315   0.679  0.9776  0.8261 -0.1327
 5529TIP3   OH238001   4.846   3.108  10.395 -0.5729  0.0090 -0.2839
 5529TIP3    H138002   4.873   3.098  10.303  0.8514 -0.0380  0.1246
 5529TIP3    H238003   4.773   3.169  10.392 -0.5390  0.0082 -1.4561
 5530TIP3   OH238004   5.957   0.621  14.310  0.0158  0.7638  0.0138
 5530TIP3    H138005   5.932   0.530  14.292  2.6016  0.4565 -2.3012
 5530TIP3    H238006   6.020   0.615  14.382  2.1647  0.4245 -1.8424
 5531TIP3   OH238007   2.834   0.683   1.859 -0.2833 -0.2194 -0.4922
 5531TIP3    H138008   2.790   0.649   1.936  2.1022  0.5406  1.2626
 5531TIP3    H238009   2.879   0.761   1.890  1.7197 -0.5892 -2.3810
 5532TIP3   OH238010   6.663   2.030   1.040 -0.1049 -0.2693 -0.3011
 5532TIP3    H138011   6.630   2.120   1.039 -0.5995 -0.4604 -1.6606
 5532TIP3    H238012   6.584   1.976   1.048  0.2465 -0.5772  1.4571
 5533TIP3   OH238013   1.626   0.336  10.848  0.0192 -0.3730 -0.3008
 5533TIP3    H138014   1.537   0.370  10.855  0.4514  0.8843 -0.6884
 5533TIP3    H238015   1.628   0.260  10.905 -1.6966 -1.2499 -1.3997
 5534TIP3   OH238016   2.241   5.523  14.630 -0.0993 -0.0306  0.0487
 5534TIP3    H138017   2.235   5.439  14.585  1.7677 -0.8597  1.2949
 5534TIP3    H238018   2.259   5.587  14.560 -0.9585 -0.7280 -0.8244
 5535TIP3   OH238019   0.305   1.873   3.946  0.0942 -0.7682  0.4567
 5535TIP3    H138020   0.327   1.897   4.036  1.0549  3.2086 -0.7559
 5535TIP3    H238021   0.379   1.819   3.918  0.7042 -0.4558  1.4295
 5536TIP3   OH238022   1.337   1.097  13.558  0.4241  0.1215 -0.6903
 5536TIP3    H138023   1.378   1.010  13.556  0.9630  0.3839 -1.0212
 5536TIP3    H238024   1.285   1.100  13.478 -0.4480 -0.3040 -0.1531
 5537TIP3   OH238025   6.305   5.735   3.520  0.3915  0.0624 -0.4751
 5537TIP3    H138026   6.318   5.725   3.426  2.0446 -0.4348 -0.1979
 5537TIP3    H238027   6.237   5.803   3.527  1.6869  1.5656 -1.9882
 5538TIP3   OH238028   2.386   0.861  12.544  0.2210 -0.1113 -0.1179
 5538TIP3    H138029   2.304   0.908  12.558  1.7426  2.0612  1.9046
 5538TIP3    H238030   2.363   0.769  12.554 -2.0222  0.4301  0.0537
 5539TIP3   OH238031   1.280   6.379  11.615 -0.5432 -0.2955  0.7985
 5539TIP3    H138032   1.283   6.439  11.541 -3.0937 -1.7314 -0.5174
 5539TIP3    H238033   1.205   6.408  11.667 -0.5436 -1.0932  1.2476
 5540TIP3   OH238034   1.369   3.591   3.363 -0.0858 -0.6739 -0.4542
 5540TIP3    H138035   1.427   3.619   3.292  0.1234 -1.9564 -0.8083
 5540TIP3    H238036   1.427   3.584   3.439 -0.0228 -0.7479 -0.5091
 5541TIP3   OH238037   3.136   0.131   5.216 -0.1033 -0.0188  0.1391
 5541TIP3    H138038   3.216   0.103   5.260  0.0143  0.5221  0.2687
 5541TIP3    H238039   3.096   0.049   5.186  0.4972 -0.2908  0.0694
 5542TIP3   OH238040   6.369   6.422  15.343  0.0252 -0.0450  0.4399
 5542TIP3    H138041   6.331   6.510  15.347 -0.3489 -0.2087  0.5335
 5542TIP3    H238042   6.454   6.435  15.301  0.3584  0.4879  1.2745
 5543TIP3   OH238043   1.822   4.759   2.498  0.0233 -0.3058 -0.1103
 5543TIP3    H138044   1.749   4.803   2.540 -0.1979  1.2821 -2.0890
 5543TIP3    H238045   1.868   4.715   2.569 -0.8699  1.5294  1.6477
 5544TIP3   OH238046   1.146   0.033  13.343 -0.1636 -0.2150 -0.3779
 5544TIP3    H138047   1.078  -0.014  13.295 -0.3105  0.8550 -1.2354
 5544TIP3    H238048   1.098   0.084  13.408  0.0127 -1.4180  0.7206
 5545TIP3   OH238049   1.952   4.817   6.195  0.1892  0.3251  0.6120
 5545TIP3    H138050   1.890   4.890   6.205 -1.3308 -0.4556 -2.3900
 5545TIP3    H238051   2.036   4.859   6.179 -0.6760  1.4827 -1.1138
 5546TIP3   OH238052   1.961   1.149  11.709  0.3388 -0.2794 -0.2520
 5546TIP3    H138053   1.959   1.057  11.683  1.1153 -1.2722  2.9572
 5546TIP3    H238054   1.912   1.152  11.791 -0.8068  2.4388 -0.9796
 5547TIP3   OH238055   2.276   5.575  11.891 -0.1004 -0.2535 -0.8552
 5547TIP3    H138056   2.264   5.663  11.927 -3.7735 -0.9327 -0.2748
 5547TIP3    H238057   2.253   5.583  11.799 -1.4088 -0.7961 -0.5839
 5548TIP3   OH238058   0.929   1.367  16.528 -0.2382  0.2217  0.0140
 5548TIP3    H138059   0.888   1.439  16.575 -3.2373 -0.5425 -1.3176
 5548TIP3    H238060   0.918   1.389  16.435 -1.0802 -1.8591 -0.4127
 5549TIP3   OH238061   5.776   0.625   2.555  0.0157 -0.4590  0.1082
 5549TIP3    H138062   5.787   0.708   2.509  0.5812 -0.0427  0.9817
 5549TIP3    H238063   5.763   0.560   2.486 -0.7093  0.3975 -0.5694
 5550TIP3   OH238064   1.846   5.147   4.911 -0.6198 -0.5816  0.1043
 5550TIP3    H138065   1.818   5.225   4.959 -1.1219 -1.6089  1.5219
 5550TIP3    H238066   1.879   5.088   4.979  1.1169 -1.0366 -1.1054
 5551TIP3   OH238067   6.587   6.242   0.899  0.6187 -0.2747 -0.1660
 5551TIP3    H138068   6.568   6.294   0.977 -1.2566 -0.6190 -0.3540
 5551TIP3    H238069   6.538   6.286   0.829  2.6220  0.2699 -1.2381
 5552TIP3   OH238070   0.840   6.187  16.179 -0.7611 -0.5211 -0.5489
 5552TIP3    H138071   0.915   6.246  16.189  0.1319 -1.4974 -1.3993
 5552TIP3    H238072   0.834   6.170  16.085 -0.6516 -2.2256 -0.2730
 5553TIP3   OH238073   4.009   4.580   4.658  0.6869  0.1787 -0.2682
 5553TIP3    H138074   4.039   4.586   4.567  1.7587 -0.4310  0.0388
 5553TIP3    H238075   4.039   4.494   4.687 -0.6723 -0.1108  0.3058
 5554TIP3   OH238076   3.258   1.771  11.463 -0.6582  0.7087 -0.4332
 5554TIP3    H138077   3.216   1.842  11.414 -5.5687 -1.9507 -0.4201
 5554TIP3    H238078   3.261   1.698  11.400 -0.3123 -0.5393  1.0067
 5555TIP3   OH238079   4.907   3.712   1.641  0.2609  0.1035  0.0021
 5555TIP3    H138080   4.821   3.671   1.632  0.0167  0.3687  1.1241
 5555TIP3    H238081   4.948   3.700   1.555 -0.6843 -0.4954 -0.3719
 5556TIP3   OH238082   1.915   1.890   4.232 -0.1137  0.1264 -0.0670
 5556TIP3    H138083   1.838   1.852   4.190 -0.6557  0.0024  1.0257
 5556TIP3    H238084   1.913   1.857   4.322  2.0365 -1.0653 -0.4282
 5557TIP3   OH238085   4.416   0.846   2.694  0.9139  0.4887  0.1397
 5557TIP3    H138086   4.497   0.799   2.675  1.0253  1.3235 -1.5391
 5557TIP3    H238087   4.349   0.798   2.644  0.9255  1.7355 -1.0811
 5558TIP3   OH238088   3.005   2.586  15.215 -0.4431 -0.0063 -0.3332
 5558TIP3    H138089   2.984   2.532  15.291 -1.3265 -0.5989 -0.9911
 5558TIP3    H238090   2.928   2.580  15.159  0.2129  0.4081 -1.2960
 5559TIP3   OH238091   5.175   1.735  10.947  0.0213 -0.0416 -0.9874
 5559TIP3    H138092   5.243   1.692  11.001 -0.1692 -0.3531 -0.9967
 5559TIP3    H238093   5.153   1.671  10.880  0.3442  0.3935 -1.5198
 5560TIP3   OH238094   6.628   1.626   4.858  0.4976 -0.1428  0.1819
 5560TIP3    H138095   6.662   1.541   4.887  1.1249  0.0249 -0.0476
 5560TIP3    H238096   6.533   1.615   4.857  0.5257 -0.5476  1.0799
 5561TIP3   OH238097   0.478   0.835   5.860  0.3447  0.0565  0.3170
 5561TIP3    H138098   0.396   0.793   5.887 -0.2766  1.6093  0.9020
 5561TIP3    H238099   0.532   0.834   5.940 -0.0528  1.2425  0.6121
 5562TIP3   OH238100   0.804   4.210   4.234  0.6234 -0.1260  0.6531
 5562TIP3    H138101   0.814   4.305   4.240  0.1699 -0.0964  0.9748
 5562TIP3    H238102   0.893   4.176   4.238  0.8267  0.3239 -0.1065
 5563TIP3   OH238103   1.430   0.995  13.136 -0.0875 -0.2801 -0.4996
 5563TIP3    H138104   1.473   0.963  13.057 -3.5382 -0.1131 -2.5270
 5563TIP3    H238105   1.387   1.076  13.110 -0.0059  0.6293  1.9827
 5564TIP3   OH238106   3.392   1.824   2.001  0.3447  0.1567 -0.0551
 5564TIP3    H138107   3.318   1.879   1.976  1.2858  1.9837  1.1407
 5564TIP3    H238108   3.384   1.747   1.945 -1.2437  1.2894 -1.4288
 5565TIP3   OH238109   4.571   3.202   5.426  0.7989 -0.0452  0.1837
 5565TIP3    H138110   4.605   3.189   5.514 -1.8811 -0.4373  1.2025
 5565TIP3    H238111   4.592   3.121   5.380 -0.0765 -0.8912  1.2477
 5566TIP3   OH238112   5.436   5.550  14.075 -0.2915 -0.0837  0.1308
 5566TIP3    H138113   5.351   5.540  14.031 -0.6452 -1.4022  1.0933
 5566TIP3    H238114   5.495   5.581  14.007 -1.4561  0.4776 -0.6412
 5567TIP3   OH238115   6.536   4.664   0.250 -0.1394  0.0364  0.0774
 5567TIP3    H138116   6.595   4.597   0.215  0.6915 -0.5675  2.5391
 5567TIP3    H238117   6.473   4.679   0.180  0.5743 -2.2197 -1.1030
 5568TIP3   OH238118   4.325   3.774  15.248  0.0671 -0.0725 -0.8413
 5568TIP3    H138119   4.353   3.834  15.317 -0.4026 -1.8943  0.9788
 5568TIP3    H238120   4.402   3.764  15.192  0.5605  1.1659 -0.3909
 5569TIP3   OH238121   1.238   2.866  13.525  0.6757 -0.0615 -0.2785
 5569TIP3    H138122   1.235   2.772  13.540  0.8719  0.0565  0.5043
 5569TIP3    H238123   1.329   2.884  13.501  0.8805  0.0785  0.5875
 5570TIP3   OH238124   3.872   6.538  13.627  0.2112 -0.2096  0.3136
 5570TIP3    H138125   3.847   6.558  13.718  0.6664 -1.1978  0.6599
 5570TIP3    H238126   3.954   6.490  13.635  0.5177  0.1476 -0.6567
 5571TIP3   OH238127   4.148   6.082  10.752  0.1505  0.0270 -1.0195
 5571TIP3    H138128   4.124   6.168  10.787  0.4634  0.2619 -1.3874
 5571TIP3    H238129   4.191   6.038  10.826 -1.1651 -0.2966 -0.4352
 5572TIP3   OH238130   5.980   6.606  15.369  0.2941  0.5016 -0.2452
 5572TIP3    H138131   6.055   6.578  15.317  1.4745  0.9723  1.1839
 5572TIP3    H238132   5.951   6.687  15.326 -0.4939 -0.5914 -1.8285
 5573TIP3   OH238133   0.461   3.363  12.642  0.4922  0.4013 -0.0298
 5573TIP3    H138134   0.388   3.337  12.587 -0.2571  2.7501 -0.1897
 5573TIP3    H238135   0.532   3.383  12.581  1.0006 -0.9844  0.0843
 5574TIP3   OH238136   2.254   5.192  12.487  0.3951 -0.1643 -0.1229
 5574TIP3    H138137   2.179   5.190  12.545  1.3649 -1.0457  1.1410
 5574TIP3    H238138   2.217   5.203  12.399 -1.0438  2.0421  0.7206
 5575TIP3   OH238139   1.181   3.409   3.603 -0.4817 -0.0625 -0.5680
 5575TIP3    H138140   1.087   3.418   3.589 -0.6111 -1.3544 -0.6103
 5575TIP3    H238141   1.209   3.493   3.638 -1.4979  0.6290 -1.4000
 5576TIP3   OH238142   1.767   1.135  13.853  0.4523  0.2547 -0.2640
 5576TIP3    H138143   1.715   1.057  13.835 -0.0751  0.4221  0.4923
 5576TIP3    H238144   1.849   1.121  13.806 -0.1657 -0.1363 -1.2463
 5577TIP3   OH238145   2.389   4.877  14.967  0.1277  0.2703  0.0976
 5577TIP3    H138146   2.362   4.932  14.893 -0.3118 -0.2064 -0.1052
 5577TIP3    H238147   2.328   4.803  14.964  1.2293 -0.6448 -0.1490
 5578TIP3   OH238148   5.657   6.593  15.526  0.5088 -0.0379 -1.0188
 5578TIP3    H138149   5.712   6.633  15.594 -0.2701 -0.5761 -0.0594
 5578TIP3    H238150   5.715   6.534  15.479  1.0388  0.2994 -0.7861
 5579TIP3   OH238151   3.560   3.317  15.226  0.1619 -0.3963 -0.4603
 5579TIP3    H138152   3.598   3.231  15.242 -2.8744 -1.6019  0.6126
 5579TIP3    H238153   3.546   3.320  15.132  1.3804 -0.5647 -0.6587
 5580TIP3   OH238154   0.424   2.628   2.528  0.0538 -0.3086 -0.3095
 5580TIP3    H138155   0.384   2.557   2.579  1.8858 -0.1307  1.4039
 5580TIP3    H238156   0.366   2.703   2.543  0.1852 -0.4495  0.9188
 5581TIP3   OH238157   3.839   2.983   2.129  0.0513  0.1956 -0.5188
 5581TIP3    H138158   3.857   3.072   2.098 -0.6821 -0.5239 -3.1355
 5581TIP3    H238159   3.922   2.937   2.118 -0.0440  0.0932 -0.7911
 5582TIP3   OH238160   2.628   0.115   3.100 -0.5231 -0.5144 -0.1470
 5582TIP3    H138161   2.589   0.155   3.023  0.0776 -0.5996 -0.4989
 5582TIP3    H238162   2.723   0.122   3.086 -0.4043 -0.2374  0.7325
 5583TIP3   OH238163   4.936   0.339  10.937  0.1714  0.0562 -0.3747
 5583TIP3    H138164   4.910   0.247  10.942 -0.5044  0.2396 -0.5673
 5583TIP3    H238165   4.861   0.388  10.970  1.2221  0.4543  1.5463
 5584TIP3   OH238166   3.719   4.558   0.930 -0.4007 -0.0409 -0.4102
 5584TIP3    H138167   3.775   4.554   1.008  0.1062  1.1056 -0.7157
 5584TIP3    H238168   3.697   4.651   0.921 -2.4282 -0.4788 -0.2496
 5585TIP3   OH238169   4.834   4.108   1.596 -0.4915 -0.4674  0.1386
 5585TIP3    H138170   4.757   4.157   1.567  0.2628  0.9779  0.5164
 5585TIP3    H238171   4.884   4.091   1.516 -1.4850 -1.9184 -0.1815
 5586TIP3   OH238172   2.073   3.336  11.000 -0.1899 -0.6391 -0.1312
 5586TIP3    H138173   2.152   3.370  11.043 -0.5041  1.3573 -1.0727
 5586TIP3    H238174   2.063   3.247  11.034  1.6171 -0.3756  1.1351
 5587TIP3   OH238175   0.736   0.557   4.776 -0.0177  0.4278 -0.4579
 5587TIP3    H138176   0.809   0.494   4.770 -1.9553 -2.0425  0.8546
 5587TIP3    H238177   0.747   0.599   4.861 -3.0829 -3.9950  2.4019
 5588TIP3   OH238178   5.552   3.375  16.834 -1.1726  0.0006 -0.0769
 5588TIP3    H138179   5.580   3.285  16.815 -1.0186 -0.8349  3.6827
 5588TIP3    H238180   5.572   3.424  16.754 -1.2707 -3.2998 -2.2072
 5589TIP3   OH238181   4.517   2.529  16.235 -0.0124  0.0151 -0.3588
 5589TIP3    H138182   4.434   2.491  16.263  0.6877 -0.8560  0.5399
 5589TIP3    H238183   4.543   2.586  16.307  0.9506 -0.9254  0.0351
 5590TIP3   OH238184   0.106   0.609   5.246 -0.5544 -0.1591 -0.0950
 5590TIP3    H138185   0.012   0.616   5.233 -0.2301  1.0864 -1.9769
 5590TIP3    H238186   0.142   0.688   5.204  1.1719  0.3490  2.2192
 5591TIP3   OH238187   5.970   5.456   5.036 -0.0745  0.5149 -0.0206
 5591TIP3    H138188   5.931   5.543   5.041 -0.4720  0.3267  0.1289
 5591TIP3    H238189   5.940   5.420   4.953 -1.4194 -0.2099  0.7700
 5592TIP3   OH238190   1.523   0.029   4.765 -0.2700 -0.5007 -0.2797
 5592TIP3    H138191   1.593  -0.036   4.775  0.8514  0.8140  0.5882
 5592TIP3    H238192   1.483   0.009   4.681  1.9953 -0.4913 -1.3845
 5593TIP3   OH238193   2.322   2.165   5.439 -0.3074  0.4440 -0.5002
 5593TIP3    H138194   2.326   2.241   5.496  0.7590  1.2431 -1.6138
 5593TIP3    H238195   2.311   2.202   5.351  0.1870 -0.6859 -1.0493
 5594TIP3   OH238196   0.173   3.564   2.120  0.2416  0.5991  0.1398
 5594TIP3    H138197   0.117   3.551   2.197  0.8821  1.4626  0.7624
 5594TIP3    H238198   0.211   3.651   2.133 -0.3446  1.1388 -1.5937
 5595TIP3   OH238199   4.997   4.706  15.193 -0.2397 -0.1651  0.6935
 5595TIP3    H138200   4.974   4.798  15.204  0.9716 -0.0764  2.7181
 5595TIP3    H238201   4.928   4.658  15.239 -0.8267 -0.2750 -0.2925
 5596TIP3   OH238202   1.829   0.855  12.725 -0.7305  0.4813 -0.3244
 5596TIP3    H138203   1.864   0.775  12.687  1.2969  0.6043  1.2325
 5596TIP3    H238204   1.873   0.864  12.809 -1.5070  2.8212 -0.1141
 5597TIP3   OH238205   3.454   3.204  12.971  0.4745  0.0108  0.7241
 5597TIP3    H138206   3.448   3.115  12.937  1.0014 -0.0627  0.8081
 5597TIP3    H238207   3.372   3.218  13.019 -1.1554  0.8123 -2.1928
 5598TIP3   OH238208   0.186   3.483   5.645  0.0064  0.2675 -0.1396
 5598TIP3    H138209   0.222   3.427   5.576 -0.9782 -0.4639 -0.0753
 5598TIP3    H238210   0.122   3.538   5.600  0.1654  0.5645 -0.0033
 5599TIP3   OH238211   2.299   0.812   2.912 -0.0875  0.2798  0.1190
 5599TIP3    H138212   2.223   0.869   2.908  0.2109  0.6036 -1.4354
 5599TIP3    H238213   2.358   0.854   2.974 -0.1883  1.2660 -0.4434
 5600TIP3   OH238214   1.536   6.525  16.546 -0.2310  0.1091  0.0364
 5600TIP3    H138215   1.606   6.524  16.612  0.5259  1.4848 -0.7218
 5600TIP3    H238216   1.530   6.434  16.517 -0.1146 -0.3890  1.5095
 5601TIP3   OH238217   5.340   4.048  16.685 -0.3549 -0.0693  0.3010
 5601TIP3    H138218   5.339   3.958  16.719  1.2326 -1.2524 -2.5704
 5601TIP3    H238219   5.428   4.058  16.648 -0.4420  2.7802  0.8130
 5602TIP3   OH238220   0.760   0.961   2.150  0.1857 -0.0048  0.1163
 5602TIP3    H138221   0.783   0.896   2.084  1.9695  0.6476  0.0485
 5602TIP3    H238222   0.835   0.962   2.209 -0.0811  1.5321  0.4562
 5603TIP3   OH238223   1.364   3.846   1.252 -0.2745  0.8413  0.6707
 5603TIP3    H138224   1.407   3.909   1.193 -1.3426  0.6996 -0.2850
 5603TIP3    H238225   1.325   3.900   1.321 -1.9154  1.3483 -0.5986
 5604TIP3   OH238226   4.442   0.525  13.330 -0.3730 -0.1074 -0.3993
 5604TIP3    H138227   4.457   0.516  13.424  0.4802 -0.1399 -0.5287
 5604TIP3    H238228   4.516   0.480  13.290 -0.9100 -0.3839 -1.0881
 5605TIP3   OH238229   1.341   6.270   4.975 -0.0683 -0.1828 -0.3756
 5605TIP3    H138230   1.359   6.194   4.919 -0.4369  0.3112 -1.1737
 5605TIP3    H238231   1.289   6.234   5.047 -1.4640 -0.4647 -1.4933
 5606TIP3   OH238232   0.328   1.580   5.275 -0.3100  0.4405 -0.4602
 5606TIP3    H138233   0.273   1.530   5.214  1.9598 -1.8615 -0.6793
 5606TIP3    H238234   0.404   1.606   5.223 -0.2436  1.9238  0.3520
 5607TIP3   OH238235   2.650   3.159   5.831 -0.4515  0.2499  0.4979
 5607TIP3    H138236   2.713   3.202   5.889 -0.2108 -1.5553  1.6261
 5607TIP3    H238237   2.704   3.116   5.765 -0.4991 -0.7164  1.0652
 5608TIP3   OH238238   0.321   3.771   3.338  0.2906  0.2459 -0.0974
 5608TIP3    H138239   0.335   3.749   3.246 -0.5236  0.3172 -0.2373
 5608TIP3    H238240   0.227   3.781   3.347  0.3510  0.1052  0.7810
 5609TIP3   OH238241   1.357   2.229   4.835 -0.5258 -0.1276 -0.1472
 5609TIP3    H138242   1.304   2.272   4.903 -2.5962 -2.2027 -0.4050
 5609TIP3    H238243   1.340   2.281   4.756 -1.0375  0.0665  0.0854
 5610TIP3   OH238244   1.291   1.124  11.348  0.1038  0.6720 -0.6979
 5610TIP3    H138245   1.386   1.136  11.341  0.5082 -1.1212  1.3481
 5610TIP3    H238246   1.261   1.198  11.400  0.4753  0.8297 -0.7079
 5611TIP3   OH238247   3.705   3.520   2.236 -0.5670 -0.2319 -0.0181
 5611TIP3    H138248   3.744   3.600   2.201  2.0606 -0.6720  1.8367
 5611TIP3    H238249   3.674   3.473   2.158 -0.3592  1.6524 -1.2692
 5612TIP3   OH238250   0.297   2.358   0.302 -0.3463  0.1601  0.0040
 5612TIP3    H138251   0.312   2.293   0.234  1.3215 -0.5798  1.0513
 5612TIP3    H238252   0.203   2.373   0.300 -0.8427 -2.7266  0.1378
 5613TIP3   OH238253   5.183   3.699   1.724  0.3876  0.2426 -0.2618
 5613TIP3    H138254   5.213   3.783   1.760  1.0760 -1.0404  2.2657
 5613TIP3    H238255   5.088   3.700   1.738  0.4875  0.2983  0.4291
 5614TIP3   OH238256   0.575   2.782   4.597 -0.3873  0.7312 -0.5614
 5614TIP3    H138257   0.543   2.701   4.638  0.2654  0.4454 -0.6219
 5614TIP3    H238258   0.495   2.834   4.583 -0.6551  0.7262  0.8230
 5615TIP3   OH238259   3.127   4.924   2.055  0.4667 -0.0284 -0.5386
 5615TIP3    H138260   3.141   4.957   1.966 -0.5750 -1.3614 -1.2067
 5615TIP3    H238261   3.189   4.973   2.109  1.6870  0.1946 -2.1268
 5616TIP3   OH238262   4.749   5.747   5.241  0.3802  0.5705 -0.3155
 5616TIP3    H138263   4.816   5.697   5.195  1.1618  0.8026  0.5659
 5616TIP3    H238264   4.779   5.752   5.331  0.0297  2.1115 -0.2588
 5617TIP3   OH238265   6.666   0.745   5.144 -0.1677 -0.0572 -0.1964
 5617TIP3    H138266   6.587   0.705   5.108  1.2039 -1.3859 -1.7608
 5617TIP3    H238267   6.694   0.807   5.077 -0.2065  0.8549  0.6177
 5618TIP3   OH238268   4.399   6.376   0.690  0.1563 -0.0109 -0.4459
 5618TIP3    H138269   4.324   6.372   0.630  0.1198  1.7549 -0.5380
 5618TIP3    H238270   4.463   6.431   0.645  1.3153 -1.0970 -0.1430
 5619TIP3   OH238271   1.705   6.256   0.496  0.0324  0.3636 -0.1745
 5619TIP3    H138272   1.641   6.310   0.542  1.5882  0.7425  1.5893
 5619TIP3    H238273   1.675   6.166   0.510 -0.3138  0.5582  0.3442
 5620TIP3   OH238274   2.865   5.904   0.426 -0.1033 -0.5376  0.2914
 5620TIP3    H138275   2.926   5.873   0.493 -0.4514  0.2767  0.9916
 5620TIP3    H238276   2.780   5.871   0.454 -0.3496  0.3544  0.6071
 5621TIP3   OH238277   6.595   6.240   0.269 -0.0491  0.0964 -0.0061
 5621TIP3    H138278   6.674   6.275   0.228  1.0202 -1.4858  0.6723
 5621TIP3    H238279   6.530   6.237   0.199  0.6029  1.0221 -0.6639
 5622TIP3   OH238280   1.464   2.108   1.903  0.1997  0.3519  0.1397
 5622TIP3    H138281   1.417   2.188   1.926  1.5915  0.8047  1.4534
 5622TIP3    H238282   1.510   2.083   1.983  2.8517  0.3706 -1.3113
 5623TIP3   OH238283   3.657   0.295  14.347 -0.2633  0.4360 -0.1731
 5623TIP3    H138284   3.579   0.253  14.382 -0.2153  1.8780  1.7488
 5623TIP3    H238285   3.632   0.387  14.335  1.6672  1.3634  2.3328
 5624TIP3   OH238286   2.259   5.223   0.285  0.4444  0.1679 -0.3179
 5624TIP3    H138287   2.170   5.257   0.284  0.2333 -0.3276  0.6742
 5624TIP3    H238288   2.307   5.280   0.225 -0.8687 -0.4790 -2.0362
 5625TIP3   OH238289   0.451   3.766   0.996 -0.0055  0.4600  0.1484
 5625TIP3    H138290   0.523   3.796   0.940  1.7834 -0.1068  2.0828
 5625TIP3    H238291   0.435   3.676   0.970 -1.1337  1.0719 -1.3710
 5626TIP3   OH238292   6.669   1.356   4.940 -0.3981  0.4449  0.2948
 5626TIP3    H138293   6.740   1.308   4.897 -1.7258  0.9556 -2.5306
 5626TIP3    H238294   6.611   1.287   4.974  1.2155  0.0317  2.3281
 5627TIP3   OH238295   5.800   0.446   0.623  0.1980 -0.6691  0.0687
 5627TIP3    H138296   5.718   0.399   0.610 -0.4215  0.6654 -0.9452
 5627TIP3    H238297   5.866   0.392   0.579 -0.7639  0.1860 -2.4848
 5628TIP3   OH238298   0.593   2.242  15.313 -0.2497 -0.3154  0.5325
 5628TIP3    H138299   0.661   2.253  15.380  0.0484 -1.7717  0.4915
 5628TIP3    H238300   0.557   2.330  15.300  1.0398  0.3152  1.1781
 5629TIP3   OH238301   0.976   4.380   2.384 -0.0604  0.9118 -0.4709
 5629TIP3    H138302   0.960   4.411   2.295 -0.6537  0.7348 -0.4307
 5629TIP3    H238303   0.938   4.292   2.386  1.7670  0.0893 -0.6399
 5630TIP3   OH238304   0.443   2.275  14.751  0.3487  0.0948 -0.1638
 5630TIP3    H138305   0.519   2.239  14.797  1.7184  0.6638 -1.9153
 5630TIP3    H238306   0.390   2.198  14.728  2.0539 -0.6448 -1.7835
 5631TIP3   OH238307   6.234   2.038  15.211 -0.7724  0.7148 -0.5221
 5631TIP3    H138308   6.289   2.094  15.156  0.1392 -1.4203 -1.8598
 5631TIP3    H238309   6.293   2.009  15.281 -0.8285  0.2142 -0.6858
 5632TIP3   OH238310   0.320   3.434  16.074  0.2486 -0.2550 -0.5082
 5632TIP3    H138311   0.258   3.492  16.029  0.6083 -1.4381 -2.6162
 5632TIP3    H238312   0.307   3.349  16.032  2.8824 -0.6505 -0.6173
 5633TIP3   OH238313   4.879   2.195  13.544 -0.2660 -0.2286  0.2903
 5633TIP3    H138314   4.962   2.207  13.589  0.7735  0.2044 -1.7100
 5633TIP3    H238315   4.815   2.242  13.599  1.2981  1.9773  0.2719
 5634TIP3   OH238316   3.422   0.700   1.877 -0.4946 -0.5775 -0.1101
 5634TIP3    H138317   3.430   0.736   1.789  0.6820 -1.4863 -0.3863
 5634TIP3    H238318   3.402   0.608   1.864  0.9260 -0.9940  0.5447
 5635TIP3   OH238319   2.183   6.715  11.112  0.1393 -0.4211  0.1180
 5635TIP3    H138320   2.195   6.620  11.109 -2.0015 -0.7460  0.8340
 5635TIP3    H238321   2.131   6.735  11.034 -1.9149 -0.2546  1.5116
 5636TIP3   OH238322   3.868   1.503  11.173 -0.5639  0.0955  0.4152
 5636TIP3    H138323   3.798   1.537  11.117 -0.7680 -1.4382 -0.2992
 5636TIP3    H238324   3.947   1.510  11.119 -0.2952  1.0786  0.9254
 5637TIP3   OH238325   3.740   1.449  15.199  0.1066 -0.5475 -0.1889
 5637TIP3    H138326   3.708   1.530  15.239  0.1089 -0.3430 -0.6008
 5637TIP3    H238327   3.835   1.458  15.200  0.2593 -2.0877  2.9873
 5638TIP3   OH238328   0.181   3.368  15.178  0.5786 -0.5526 -0.2541
 5638TIP3    H138329   0.152   3.363  15.269  2.0359 -1.0990  0.1931
 5638TIP3    H238330   0.265   3.414  15.182  1.3743 -1.8961 -1.1415
 5639TIP3   OH238331   2.699   6.092   2.987 -0.3358  0.0940 -0.4613
 5639TIP3    H138332   2.714   6.102   2.893 -1.1174 -1.2957 -0.7591
 5639TIP3    H238333   2.656   6.173   3.014  0.9544  0.9942 -1.0574
 5640TIP3   OH238334   0.428   2.968  13.635  0.0404  0.7465  0.0021
 5640TIP3    H138335   0.361   2.920  13.684 -0.0894  0.4542 -0.4577
 5640TIP3    H238336   0.474   3.019  13.702 -0.0187  0.2146  0.4617
 5641TIP3   OH238337   1.749   2.178  17.035  0.3985 -0.1242  0.4500
 5641TIP3    H138338   1.841   2.155  17.047  0.3951  0.2607  1.2484
 5641TIP3    H238339   1.701   2.107  17.078  0.3454  0.1656  0.8762
 5642TIP3   OH238340   3.126   2.739  14.356 -0.3495  0.0699  0.2198
 5642TIP3    H138341   3.050   2.796  14.343  0.2174  1.0676  1.1572
 5642TIP3    H238342   3.197   2.799  14.379 -0.1118 -1.1280  2.8646
 5643TIP3   OH238343   3.290   4.546   1.563 -0.3861 -0.4739 -0.4060
 5643TIP3    H138344   3.259   4.608   1.496 -1.1071 -0.2921  0.0931
 5643TIP3    H238345   3.215   4.532   1.620 -0.4572 -2.4005 -0.9348
 5644TIP3   OH238346   5.807   1.394   0.329 -0.2975  0.4899  0.7548
 5644TIP3    H138347   5.751   1.350   0.265  0.4581  1.5924 -0.6938
 5644TIP3    H238348   5.856   1.323   0.371 -1.2022 -0.2917  0.5187
 5645TIP3   OH238349   0.235   1.948  15.679  0.3964 -0.0624  0.0256
 5645TIP3    H138350   0.197   1.901  15.752 -1.6627 -0.5914 -1.3430
 5645TIP3    H238351   0.171   2.016  15.658 -0.7420 -2.0648 -3.4233
 5646TIP3   OH238352   0.735   4.216  13.026  0.2450  0.4097 -0.4740
 5646TIP3    H138353   0.725   4.305  12.993  0.9629  0.7461  0.1982
 5646TIP3    H238354   0.791   4.225  13.103 -0.3990 -0.5134  0.1175
 5647TIP3   OH238355   1.019   0.385   2.440 -0.0145  0.1666  0.3637
 5647TIP3    H138356   1.075   0.455   2.407  0.1716 -0.5145 -0.7936
 5647TIP3    H238357   1.072   0.306   2.431 -1.3584 -0.5762 -1.2995
 5648TIP3   OH238358   6.485   3.505  15.378  0.8364 -0.0497  0.2851
 5648TIP3    H138359   6.528   3.501  15.463  0.0376  1.5744  0.8004
 5648TIP3    H238360   6.392   3.495  15.397  0.6052  0.8280 -0.3264
 5649TIP3   OH238361   1.795   3.383   4.605  0.6140 -0.3369 -0.8340
 5649TIP3    H138362   1.779   3.444   4.533  0.4904 -0.7136 -1.1318
 5649TIP3    H238363   1.770   3.298   4.569  0.1498 -0.4655 -0.1954
 5650TIP3   OH238364   6.771   3.138   3.979  0.0223 -0.1310 -0.8385
 5650TIP3    H138365   6.781   3.060   4.033  1.0289 -0.1824 -1.0902
 5650TIP3    H238366   6.773   3.211   4.041  3.5552 -0.0326 -0.9809
 5651TIP3   OH238367   0.019   5.425  13.491 -0.6450 -0.2626  0.5235
 5651TIP3    H138368   0.113   5.437  13.486 -0.5662 -0.6702  0.9760
 5651TIP3    H238369  -0.002   5.430  13.584 -0.9151 -1.2731  0.5332
 5652TIP3   OH238370   1.941   2.220   4.231  0.1692  0.0050  0.3134
 5652TIP3    H138371   1.850   2.211   4.204  0.1445  0.3331  0.2858
 5652TIP3    H238372   1.986   2.147   4.188 -0.1400 -0.3686  0.6109
 5653TIP3   OH238373   2.084   1.248   2.124 -0.2625 -0.2829  0.0827
 5653TIP3    H138374   2.048   1.333   2.148 -1.2882 -0.0407 -2.1315
 5653TIP3    H238375   2.054   1.188   2.192  0.0015  1.0169  1.3553
 5654TIP3   OH238376   0.351   0.772   2.224  0.2189 -0.4361  0.1021
 5654TIP3    H138377   0.421   0.799   2.283  0.3551 -0.5330 -0.0153
 5654TIP3    H238378   0.364   0.677   2.214 -0.5853 -0.6509  0.9541
 5655TIP3   OH238379   2.354   1.084   2.214 -0.1468 -0.1889  0.2817
 5655TIP3    H138380   2.280   1.109   2.270  0.6790  1.4247  0.6828
 5655TIP3    H238381   2.379   1.165   2.170 -0.4018 -1.3204 -1.9939
 5656TIP3   OH238382   5.868   6.217  12.157  0.0874  0.3235 -0.0157
 5656TIP3    H138383   5.918   6.177  12.086  1.0524  1.4546  0.0193
 5656TIP3    H238384   5.922   6.200  12.235 -0.7553 -0.5397  0.3828
 5657TIP3   OH238385   5.925   0.671   3.101 -0.5526 -0.5583  0.3141
 5657TIP3    H138386   5.937   0.696   3.009 -2.4100  1.6641  0.6237
 5657TIP3    H238387   5.990   0.722   3.149  0.1039 -1.3641  0.2848
 5658TIP3   OH238388   6.252   0.797   1.916 -0.5373  0.1718  0.0718
 5658TIP3    H138389   6.295   0.826   1.997 -0.5067  0.5057 -0.0614
 5658TIP3    H238390   6.229   0.706   1.932  0.9297 -0.2491 -0.1420
 5659TIP3   OH238391   5.354   0.873   2.285 -0.2953 -0.1848 -0.1968
 5659TIP3    H138392   5.276   0.928   2.294 -0.2110  0.2234 -1.7614
 5659TIP3    H238393   5.324   0.785   2.308 -2.1069 -0.6629 -3.9798
 5660TIP3   OH238394   0.991   2.287  16.848 -0.0860 -0.2452  0.8996
 5660TIP3    H138395   1.071   2.337  16.835  1.0141 -2.0039  0.7323
 5660TIP3    H238396   0.943   2.335  16.916  1.1243  0.7942  1.0268
 5661TIP3   OH238397   1.838   3.867  14.358 -0.1226  0.3575  0.7996
 5661TIP3    H138398   1.747   3.854  14.385 -0.8350  0.9394 -1.2579
 5661TIP3    H238399   1.876   3.779  14.360 -0.6828  0.1261  1.7764
 5662TIP3   OH238400   2.011   6.017   2.797  0.2029  0.3151  0.0989
 5662TIP3    H138401   2.014   5.937   2.745  1.0132 -0.3332  1.1476
 5662TIP3    H238402   2.006   5.987   2.888  0.5281  1.4459  0.4978
 5663TIP3   OH238403   0.636   0.120   2.560 -0.9673 -0.4644  0.4748
 5663TIP3    H138404   0.695   0.067   2.615  2.9447  0.7220 -2.3159
 5663TIP3    H238405   0.649   0.085   2.472 -1.9554  2.0183 -0.6861
 5664TIP3   OH238406   5.947   5.869   5.257  0.0569 -0.2340  0.4491
 5664TIP3    H138407   6.018   5.863   5.321 -0.4163 -1.5770  0.8618
 5664TIP3    H238408   5.874   5.908   5.305  0.8371  2.1610 -0.2674
 5665TIP3   OH238409   3.262   6.128   2.521 -0.0314 -0.2580 -0.4236
 5665TIP3    H138410   3.183   6.178   2.544  0.0826  0.0066 -0.5968
 5665TIP3    H238411   3.295   6.095   2.604 -0.2498 -0.2536 -0.3342
 5666TIP3   OH238412   4.554   5.018  13.153 -0.1712  0.1898 -0.7447
 5666TIP3    H138413   4.610   4.944  13.177 -0.3146  0.5364  0.6634
 5666TIP3    H238414   4.472   5.002  13.198  0.4251  2.1611  1.1384
 5667TIP3   OH238415   0.545   6.659   6.062 -0.4056 -0.2030  0.9629
 5667TIP3    H138416   0.542   6.673   5.967  0.9583 -0.4456  0.8812
 5667TIP3    H238417   0.593   6.576   6.072  0.9069  0.6644  1.9353
 5668TIP3   OH238418   5.730   0.752  16.114 -0.8381 -0.0463 -0.3631
 5668TIP3    H138419   5.756   0.828  16.166 -0.4150  0.1778 -0.9089
 5668TIP3    H238420   5.750   0.676  16.170 -3.3795  0.3065  1.1322
 5669TIP3   OH238421   2.876   3.773  13.603 -0.1172  0.2280  0.1186
 5669TIP3    H138422   2.896   3.762  13.510 -1.7747 -0.6580 -0.1547
 5669TIP3    H238423   2.899   3.689  13.643  2.6515  1.3039  0.9335
 5670TIP3   OH238424   1.205   1.081   2.891 -0.0113 -0.2295 -0.3595
 5670TIP3    H138425   1.127   1.136   2.886 -0.6673 -1.2874 -2.3776
 5670TIP3    H238426   1.171   0.996   2.920  0.6356 -0.2663  0.3020
 5671TIP3   OH238427   3.857   6.635  17.158  0.3434 -0.1301  0.2620
 5671TIP3    H138428   3.864   6.567  17.225  0.1330  0.8204  1.2899
 5671TIP3    H238429   3.914   6.606  17.087  0.8387 -0.9997  1.0033
 5672TIP3   OH238430   1.177   5.872  16.254  0.1284 -0.1324 -0.4772
 5672TIP3    H138431   1.158   5.952  16.303  0.2288 -0.0334 -0.6004
 5672TIP3    H238432   1.172   5.899  16.162  2.4345  0.2636 -0.5178
 5673TIP3   OH238433   6.325   3.772  14.518 -0.2856 -0.2371  0.0266
 5673TIP3    H138434   6.313   3.863  14.545 -1.1519 -0.1220 -0.7160
 5673TIP3    H238435   6.382   3.735  14.585 -0.1107  0.7884  0.4658
 5674TIP3   OH238436   6.217   6.509  12.441  0.6946  0.0082 -0.4179
 5674TIP3    H138437   6.303   6.551  12.438  0.7269 -0.1248 -1.5218
 5674TIP3    H238438   6.217   6.448  12.367 -0.2640 -0.1660 -0.2851
 5675TIP3   OH238439   1.935   6.327   3.879  0.1140  0.1083  1.0617
 5675TIP3    H138440   2.025   6.333   3.846  1.1356  0.3254  3.7713
 5675TIP3    H238441   1.900   6.416   3.868  0.3015  0.0852  0.2261
 5676TIP3   OH238442   0.820   1.387  10.891 -0.0429 -0.3502  0.1282
 5676TIP3    H138443   0.741   1.440  10.888 -0.6217 -1.2318 -0.8189
 5676TIP3    H238444   0.865   1.406  10.808 -0.8044 -2.1428 -0.7118
 5677TIP3   OH238445   4.204   0.309  12.597 -0.8117  0.0935 -0.2241
 5677TIP3    H138446   4.244   0.260  12.525 -1.5187 -0.6375 -0.1340
 5677TIP3    H238447   4.210   0.249  12.672  0.7609  1.2135  0.5576
 5678TIP3   OH238448   0.042   0.336   1.084  0.4303  0.1016 -0.6554
 5678TIP3    H138449   0.011   0.279   1.155 -1.0855  1.4121 -0.2154
 5678TIP3    H238450   0.134   0.314   1.074  0.5383 -0.5019  1.3705
 5679TIP3   OH238451   1.817   6.110  12.107  0.0041 -0.1259 -0.6304
 5679TIP3    H138452   1.733   6.068  12.128 -1.2355  2.3009 -0.5923
 5679TIP3    H238453   1.836   6.165  12.183  1.0741  0.2395 -1.1481
 5680TIP3   OH238454   1.577   4.217  14.527  0.3132  0.6839  0.0679
 5680TIP3    H138455   1.530   4.167  14.593  0.3030 -1.2608 -1.3780
 5680TIP3    H238456   1.551   4.308  14.542 -1.7799 -0.0467  1.0238
 5681TIP3   OH238457   5.883   1.733  14.452 -0.1726  0.2225 -0.3071
 5681TIP3    H138458   5.826   1.698  14.383 -2.0766  0.0673  1.3021
 5681TIP3    H238459   5.896   1.659  14.511  1.2724  0.4175 -0.3721
 5682TIP3   OH238460   1.623   1.038  12.915  0.1307  0.1849  0.4880
 5682TIP3    H138461   1.604   1.119  12.868 -0.1627  0.8982  1.8047
 5682TIP3    H238462   1.702   1.057  12.966  0.0981 -0.3713  0.7527
 5683TIP3   OH238463   3.014   2.805   1.460  0.1346 -0.5385 -0.2745
 5683TIP3    H138464   2.947   2.739   1.442 -0.3580  0.1569 -1.0454
 5683TIP3    H238465   3.082   2.788   1.395 -1.3164  1.5158 -2.4510
 5684TIP3   OH238466   0.245   0.596  15.086 -0.3853 -0.1180 -0.5843
 5684TIP3    H138467   0.328   0.639  15.103 -1.1095  2.0330 -2.2008
 5684TIP3    H238468   0.267   0.504  15.073  1.1868 -0.3367  3.0687
 5685TIP3   OH238469   4.624   0.089  15.139  0.7947 -0.1417 -0.2280
 5685TIP3    H138470   4.601   0.168  15.188 -0.9637 -0.3408 -0.6931
 5685TIP3    H238471   4.657   0.121  15.055  0.0115  0.0925 -0.4463
 5686TIP3   OH238472   4.003   3.898  14.049  0.5056  0.2275 -0.0669
 5686TIP3    H138473   3.970   3.889  13.959 -0.8972 -2.5291  0.6704
 5686TIP3    H238474   3.936   3.857  14.103  3.5905 -2.6584  1.7905
 5687TIP3   OH238475   4.741   2.517  14.958  0.3625  0.6203 -0.2018
 5687TIP3    H138476   4.812   2.551  14.904  0.0701  1.4057 -0.1022
 5687TIP3    H238477   4.747   2.422  14.949 -0.4485  0.7662 -2.5798
 5688TIP3   OH238478   0.207   1.624  16.460 -0.2249  0.2878  0.0153
 5688TIP3    H138479   0.247   1.614  16.373  1.6657 -2.0160  1.0840
 5688TIP3    H238480   0.113   1.617  16.443  0.0979  0.0967 -1.8901
 5689TIP3   OH238481   0.963   5.873  12.662  0.3232 -0.4798 -0.3768
 5689TIP3    H138482   1.023   5.934  12.704 -0.1163 -0.4672  0.2468
 5689TIP3    H238483   0.960   5.798  12.722 -0.7102 -0.2415 -0.1083
 5690TIP3   OH238484   2.400   4.968  15.504  0.2474 -0.2626  0.4648
 5690TIP3    H138485   2.472   4.905  15.502  0.1916 -0.4391  3.0292
 5690TIP3    H238486   2.441   5.052  15.525 -0.3016 -0.4384  2.3565
 5691TIP3   OH238487   6.179   5.477  13.627  0.2807 -0.1736 -0.1430
 5691TIP3    H138488   6.200   5.464  13.719 -2.6333  0.0577  0.6311
 5691TIP3    H238489   6.202   5.395  13.584  2.3873  0.0002  0.6344
 5692TIP3   OH238490   1.618   3.082  10.344 -0.5026 -0.0766 -0.5193
 5692TIP3    H138491   1.607   3.172  10.375 -1.6679 -0.6042  0.6156
 5692TIP3    H238492   1.674   3.041  10.410 -1.5498 -0.7165 -0.0267
 5693TIP3   OH238493   3.095   4.575  12.046  0.5638  0.0910  0.1410
 5693TIP3    H138494   3.121   4.660  12.079  0.2292  0.5377 -0.7155
 5693TIP3    H238495   3.050   4.533  12.120  0.9691  0.5430  0.6477
 5694TIP3   OH238496   1.657   3.354  12.094 -0.5308  0.4107  0.2787
 5694TIP3    H138497   1.611   3.365  12.177 -0.8926 -0.3778  0.1942
 5694TIP3    H238498   1.749   3.368  12.115 -0.4087 -1.5354  1.1975
 5695TIP3   OH238499   1.325   0.562   5.967  0.3611  0.3669  0.0992
 5695TIP3    H138500   1.334   0.631   6.034  0.0673  3.2536 -2.6972
 5695TIP3    H238501   1.409   0.562   5.922  0.2312 -0.8967 -0.1563
 5696TIP3   OH238502   1.417   1.867   5.614  0.3640 -0.1770  0.2555
 5696TIP3    H138503   1.447   1.916   5.691 -0.9860  0.4261  0.4030
 5696TIP3    H238504   1.431   1.775   5.637  0.7460  0.0354  0.8776
 5697TIP3   OH238505   1.566   0.631   0.764  0.5015 -0.6979  0.1757
 5697TIP3    H138506   1.489   0.681   0.790  0.3825 -0.8995  0.2100
 5697TIP3    H238507   1.531   0.547   0.732  0.4165  0.5017 -3.0968
 5698TIP3   OH238508   6.380   3.170  13.370  0.8766  0.1015  0.1186
 5698TIP3    H138509   6.354   3.214  13.450 -0.6187  0.9585 -0.8202
 5698TIP3    H238510   6.463   3.211  13.346  1.8167 -0.8098  1.7060
 5699TIP3   OH238511   3.314   3.110  11.278 -0.2533 -0.3653  0.2795
 5699TIP3    H138512   3.309   3.186  11.336 -0.8485 -0.0687 -0.1520
 5699TIP3    H238513   3.236   3.058  11.298  0.1321 -0.8484  0.5481
 5700TIP3   OH238514   5.139   2.491  12.444 -0.0675 -0.0217  0.3074
 5700TIP3    H138515   5.109   2.427  12.379  1.6772  0.2017 -0.7539
 5700TIP3    H238516   5.235   2.487  12.439  0.1122 -0.1220  3.0089
 5701TIP3   OH238517   5.957   2.226  13.431 -0.4612  0.5485 -0.4343
 5701TIP3    H138518   5.999   2.252  13.513 -0.5798  0.3807 -0.3214
 5701TIP3    H238519   5.998   2.142  13.408 -1.2095  0.0619  0.0192
 5702TIP3   OH238520   5.378   6.646   1.809 -0.0574 -0.1134 -0.2811
 5702TIP3    H138521   5.350   6.561   1.776  1.1182 -0.6684  0.1062
 5702TIP3    H238522   5.302   6.680   1.856 -1.5033  0.3441 -2.8201
 5703TIP3   OH238523   4.959   2.471  11.680 -0.3535 -0.3998 -0.0515
 5703TIP3    H138524   4.880   2.514  11.649  0.4650 -0.2270 -1.9803
 5703TIP3    H238525   5.023   2.542  11.691  0.2087 -0.8002 -0.6980
 5704TIP3   OH238526   3.709   1.832   5.544  0.1191 -0.5042  0.1400
 5704TIP3    H138527   3.667   1.861   5.625 -2.3360 -0.1226 -1.2445
 5704TIP3    H238528   3.708   1.908   5.487  1.6494 -0.8301 -0.3474
 5705TIP3   OH238529   2.508   2.339  15.925 -1.0917 -0.4980  0.3041
 5705TIP3    H138530   2.553   2.304  15.848 -3.7176 -0.8038 -1.1579
 5705TIP3    H238531   2.485   2.262  15.977  1.0199 -0.2658  1.6264
 5706TIP3   OH238532   5.188   3.203  16.276 -0.1485 -0.1084 -0.5564
 5706TIP3    H138533   5.100   3.234  16.299 -0.4897 -0.8773 -0.7653
 5706TIP3    H238534   5.241   3.282  16.270 -1.0025  0.4255 -1.1638
 5707TIP3   OH238535   1.197   4.115  14.963  0.1498 -0.3581 -0.8333
 5707TIP3    H138536   1.161   4.181  14.903  1.5123  0.2280 -1.0166
 5707TIP3    H238537   1.228   4.165  15.038 -0.1186 -0.9404 -0.3371
 5708TIP3   OH238538   4.142   2.191  16.673 -0.5075  0.0396 -0.5824
 5708TIP3    H138539   4.090   2.262  16.711  0.5785  0.2534  0.5180
 5708TIP3    H238540   4.127   2.199  16.579  0.8618  2.7488 -0.6132
 5709TIP3   OH238541   0.318   3.930   1.891  0.0069  0.0867  0.4523
 5709TIP3    H138542   0.249   3.989   1.923 -0.5624 -0.9175  1.1179
 5709TIP3    H238543   0.337   3.873   1.966 -0.0693 -1.1319 -0.4437
 5710TIP3   OH238544   0.850   2.276   3.087  0.7513  0.0777  0.1328
 5710TIP3    H138545   0.903   2.341   3.133  1.1680 -0.3274  0.2245
 5710TIP3    H238546   0.780   2.253   3.148  0.8109  0.1702  0.2342
 5711TIP3   OH238547   2.455   5.794  15.176 -0.5847 -0.3055 -0.2403
 5711TIP3    H138548   2.428   5.763  15.263  1.2310  1.0008  0.8147
 5711TIP3    H238549   2.393   5.864  15.155  0.7022  1.3482  1.3102
 5712TIP3   OH238550   5.066   6.784  14.094 -0.1811  0.0635  0.4210
 5712TIP3    H138551   5.031   6.857  14.044 -0.3501 -0.3336 -0.0521
 5712TIP3    H238552   4.997   6.718  14.093 -0.4572  0.3265  1.7926
 5713TIP3   OH238553   0.358   4.434  16.459  0.0380  0.2900  0.2176
 5713TIP3    H138554   0.276   4.390  16.437  1.2455 -1.5493 -0.6771
 5713TIP3    H238555   0.358   4.514  16.405  0.0119 -0.9749 -1.6839
 5714TIP3   OH238556   4.846   4.192   5.563  0.1350  0.6701 -0.2868
 5714TIP3    H138557   4.839   4.128   5.493  0.8873  1.7372 -1.3573
 5714TIP3    H238558   4.899   4.149   5.630  2.6889  1.0541 -2.0330
 5715TIP3   OH238559   2.311   4.747   2.839  0.3680 -0.0678 -0.4393
 5715TIP3    H138560   2.347   4.782   2.921  0.9930  1.2270 -1.2394
 5715TIP3    H238561   2.285   4.657   2.859 -0.8660  0.7110  1.5743
 5716TIP3   OH238562   4.148   0.898   2.302 -0.3173 -0.9696 -0.0998
 5716TIP3    H138563   4.101   0.869   2.223  0.4616 -1.2206 -0.4798
 5716TIP3    H238564   4.170   0.989   2.285 -0.1655 -1.0186 -0.1677
 5717TIP3   OH238565   3.400   3.193  17.114  0.1186 -0.0731 -0.1277
 5717TIP3    H138566   3.318   3.148  17.139  0.4009 -1.0528 -0.9160
 5717TIP3    H238567   3.467   3.126  17.124  0.6549  0.3897 -0.6280
 5718TIP3   OH238568   0.124   1.211   3.804 -0.1775  0.0843  0.1743
 5718TIP3    H138569   0.051   1.169   3.759  0.9681 -1.4271 -0.2711
 5718TIP3    H238570   0.184   1.140   3.826  2.4687  1.5813 -1.8504
 5719TIP3   OH238571   2.232   4.898  15.228  0.0710  0.0488 -0.2499
 5719TIP3    H138572   2.235   4.990  15.254  0.8399  0.1204 -0.5704
 5719TIP3    H238573   2.259   4.899  15.136 -1.2183 -0.3546 -0.6500
 5720TIP3   OH238574   5.592   6.325  15.344  0.2855  0.1122 -0.3950
 5720TIP3    H138575   5.666   6.321  15.284  0.5442 -1.3591  0.0057
 5720TIP3    H238576   5.631   6.337  15.430  0.0125  0.1665 -0.2778
 5721TIP3   OH238577   2.494   5.566  14.696  0.5026 -0.9894 -0.0345
 5721TIP3    H138578   2.518   5.536  14.784  2.0716 -1.8240 -0.7347
 5721TIP3    H238579   2.400   5.548  14.691  0.7270 -2.5838  0.8510
 5722TIP3   OH238580   4.374   2.937   0.523 -0.3922  0.2121  0.7649
 5722TIP3    H138581   4.292   2.934   0.474 -0.9815 -1.4397  1.8053
 5722TIP3    H238582   4.442   2.942   0.456 -1.3129  1.0575 -0.1167
 5723TIP3   OH238583   1.708   3.549  10.763 -0.0296 -0.0942  0.3197
 5723TIP3    H138584   1.734   3.586  10.679  1.0808  0.6661  0.9920
 5723TIP3    H238585   1.616   3.524  10.750  0.1999 -0.2483 -1.1952
 5724TIP3   OH238586   3.546   6.449  13.783  0.4933 -0.1449 -0.5176
 5724TIP3    H138587   3.482   6.414  13.722  0.7949 -1.7354  0.0632
 5724TIP3    H238588   3.631   6.430  13.743  0.6551  0.3207 -0.4045
 5725TIP3   OH238589   6.542   5.129   3.888 -0.2053 -0.1503  0.5768
 5725TIP3    H138590   6.569   5.185   3.960  1.3066 -0.5295  0.3061
 5725TIP3    H238591   6.617   5.126   3.830 -1.6830  0.8118 -1.4561
 5726TIP3   OH238592   3.197   0.168  16.761 -0.1754 -0.3367 -0.0400
 5726TIP3    H138593   3.203   0.076  16.737 -1.3052 -0.4216 -0.0105
 5726TIP3    H238594   3.280   0.186  16.806  0.5004 -1.0534 -0.9776
 5727TIP3   OH238595   6.346   2.050  15.772 -0.3774 -0.3147  0.1523
 5727TIP3    H138596   6.263   2.073  15.812 -0.5337  0.1315 -0.4202
 5727TIP3    H238597   6.360   1.958  15.796 -0.7640 -0.2291  0.7060
 5728TIP3   OH238598   4.539   4.649   0.671 -0.1019 -0.8275  0.3867
 5728TIP3    H138599   4.632   4.649   0.695  0.1405 -0.4116 -0.4946
 5728TIP3    H238600   4.497   4.594   0.736  0.6694 -0.4924  1.1809
 5729TIP3   OH238601   4.179   2.708   3.539 -0.3046  0.1402  0.0222
 5729TIP3    H138602   4.194   2.796   3.504 -0.8194  0.1263 -0.2420
 5729TIP3    H238603   4.257   2.659   3.514 -1.2338 -0.2247 -2.2748
 5730TIP3   OH238604   5.865   4.570  14.138  0.1642  0.1380  0.7158
 5730TIP3    H138605   5.848   4.605  14.051 -0.4767 -1.1899  0.2929
 5730TIP3    H238606   5.855   4.645  14.196 -1.8946  0.5269 -0.0880
 5731TIP3   OH238607   4.689   2.696   4.170 -0.0382 -0.3557  0.0173
 5731TIP3    H138608   4.781   2.713   4.192 -0.3515  1.1248  0.2287
 5731TIP3    H238609   4.687   2.604   4.143  1.5085 -0.3892 -0.0027
 5732TIP3   OH238610   5.452   0.256   6.325 -0.3554  0.2671  0.1882
 5732TIP3    H138611   5.439   0.161   6.335  0.5835  0.1273  0.1373
 5732TIP3    H238612   5.433   0.292   6.412  0.3451 -0.0940  0.4953
 5733TIP3   OH238613   2.174   1.672  13.593 -0.0231 -0.1442  0.0986
 5733TIP3    H138614   2.197   1.579  13.590  0.1848 -0.1416  1.2918
 5733TIP3    H238615   2.086   1.673  13.632  0.3015  0.2010  0.8357
 5734TIP3   OH238616   0.096   0.460  16.496  0.4008  0.3099 -0.1180
 5734TIP3    H138617   0.159   0.483  16.428  1.4462 -0.7539  0.4762
 5734TIP3    H238618   0.023   0.521  16.484  0.3491 -0.1959 -2.4968
 5735TIP3   OH238619   4.474   4.501   4.619 -0.1431 -0.5037  0.0993
 5735TIP3    H138620   4.515   4.508   4.533  0.2865 -1.5528  0.2065
 5735TIP3    H238621   4.543   4.524   4.680 -0.1975 -0.6083  0.2003
 5736TIP3   OH238622   4.503   5.231   5.906 -0.0285  0.2823  0.1269
 5736TIP3    H138623   4.520   5.280   5.826  0.2362 -0.5505 -0.3277
 5736TIP3    H238624   4.478   5.298   5.970  2.5823  1.2915  0.1681
 5737TIP3   OH238625   4.323   2.284  17.009 -0.0049 -0.0131 -0.1368
 5737TIP3    H138626   4.411   2.308  17.039 -0.7197  0.5417  1.5928
 5737TIP3    H238627   4.289   2.365  16.970  0.0123 -0.0500 -0.2280
 5738TIP3   OH238628   0.235   3.168  15.999 -0.0191  0.3464 -0.2764
 5738TIP3    H138629   0.290   3.111  15.946 -0.1120 -0.7512  0.7942
 5738TIP3    H238630   0.146   3.136  15.986 -0.3473  1.7107 -1.4905
 5739TIP3   OH238631   0.994   3.315   0.356  0.0554  0.4867  0.1421
 5739TIP3    H138632   0.974   3.381   0.422 -0.5000  1.3503 -0.8799
 5739TIP3    H238633   0.912   3.303   0.308  1.0353  1.5238 -1.8482
 5740TIP3   OH238634   4.033   6.012  16.068 -0.2786  0.0531 -0.1466
 5740TIP3    H138635   4.015   6.104  16.048 -0.6265 -0.0971 -0.5404
 5740TIP3    H238636   4.111   5.992  16.016  0.2456  0.3333  0.5300
 5741TIP3   OH238637   1.771   2.132  14.470  0.6715 -0.0505  0.0125
 5741TIP3    H138638   1.705   2.078  14.515  0.1397 -0.1550 -0.8824
 5741TIP3    H238639   1.850   2.078  14.469  0.8277  0.1326  1.2266
 5742TIP3   OH238640   4.405   4.563  12.238 -0.7542 -0.4577  0.4109
 5742TIP3    H138641   4.430   4.541  12.328 -1.2548  0.5815  0.8149
 5742TIP3    H238642   4.465   4.512  12.184 -0.1357 -0.7358  1.3324
 5743TIP3   OH238643   3.535   2.482   1.208  0.0074 -0.3348  0.0839
 5743TIP3    H138644   3.458   2.536   1.192 -1.0881 -1.2410  2.1823
 5743TIP3    H238645   3.519   2.402   1.158  0.8045  0.4746 -1.5437
 5744TIP3   OH238646   1.783   6.361   0.793 -0.4683  0.7576 -0.5547
 5744TIP3    H138647   1.834   6.290   0.754 -1.2287  0.0557 -0.2806
 5744TIP3    H238648   1.709   6.372   0.734 -1.8591 -0.6078  0.9174
 5745TIP3   OH238649   5.174   5.935   2.305 -0.0065 -0.4888  0.0005
 5745TIP3    H138650   5.115   5.986   2.250 -0.1212 -0.3012  0.2977
 5745TIP3    H238651   5.254   5.926   2.253  0.0412  0.0617 -0.0212
 5746TIP3   OH238652   0.533   3.896   3.456  0.0647  0.2433 -0.5424
 5746TIP3    H138653   0.446   3.866   3.433 -0.4786 -1.3024  3.1804
 5746TIP3    H238654   0.522   3.941   3.540  2.8411 -0.1634  0.1126
 5747TIP3   OH238655   4.495   5.812  13.489 -0.1815 -0.2592  0.1824
 5747TIP3    H138656   4.526   5.900  13.468  1.0011 -0.9503 -1.0592
 5747TIP3    H238657   4.488   5.768  13.404  2.8696 -2.5281  0.9777
 5748TIP3   OH238658   1.784   6.356   1.765  0.4954 -0.1113 -0.2325
 5748TIP3    H138659   1.733   6.327   1.841  0.4021  0.2030 -0.1750
 5748TIP3    H238660   1.865   6.306   1.770  0.1098 -0.7621 -0.4312
 5749TIP3   OH238661   1.265   6.373  15.433  0.4127 -0.0612  0.2414
 5749TIP3    H138662   1.205   6.444  15.409  0.5453 -0.2117 -0.5232
 5749TIP3    H238663   1.214   6.293  15.420  0.7748 -0.1887 -0.4103
 5750TIP3   OH238664   2.095   3.162  11.666 -0.3227 -0.4739  0.7389
 5750TIP3    H138665   2.071   3.070  11.675 -0.1698 -0.5717  0.1897
 5750TIP3    H238666   2.024   3.209  11.710 -0.4993 -0.8450  0.8607
 5751TIP3   OH238667   6.249   6.073   0.646  0.8145 -0.2498  0.2650
 5751TIP3    H138668   6.327   6.080   0.590  2.2793 -3.1494  1.8048
 5751TIP3    H238669   6.265   5.994   0.698 -2.7702 -0.3662  1.2660
 5752TIP3   OH238670   1.902   3.466  12.106 -0.2414 -0.4052 -0.0813
 5752TIP3    H138671   1.918   3.555  12.076  0.7784 -1.0677 -1.6026
 5752TIP3    H238672   1.990   3.431  12.124 -0.7466 -0.5197  2.2484
 5753TIP3   OH238673   5.127   1.187  14.622 -0.1120 -0.2073 -0.5049
 5753TIP3    H138674   5.192   1.248  14.656 -1.2247  1.0262 -0.5396
 5753TIP3    H238675   5.166   1.100  14.634  0.6900  0.3892  1.3308
 5754TIP3   OH238676   5.130   5.623   1.372  0.2974 -0.1422  0.2080
 5754TIP3    H138677   5.098   5.669   1.450  0.8132  0.5560  0.0195
 5754TIP3    H238678   5.074   5.546   1.365 -1.4849  1.1502 -0.2271
 5755TIP3   OH238679   4.940   5.838  13.654  0.2381  0.2422  0.0518
 5755TIP3    H138680   4.896   5.792  13.583 -0.9188  1.5207 -0.0967
 5755TIP3    H238681   4.924   5.931  13.636 -0.9149  0.5633  2.4949
 5756TIP3   OH238682   1.925   6.677   3.140 -0.4793  0.4943  0.1297
 5756TIP3    H138683   1.859   6.681   3.070  0.5848 -0.1996 -0.9364
 5756TIP3    H238684   2.005   6.650   3.095  0.0062 -0.8769  1.7816
 5757TIP3   OH238685   5.608   2.260   3.154 -0.2639 -0.5758 -0.5000
 5757TIP3    H138686   5.584   2.350   3.174 -1.3900 -1.1754  0.8732
 5757TIP3    H238687   5.612   2.216   3.238  0.4208 -1.7869 -1.1457
 5758TIP3   OH238688   5.197   4.199   2.814 -0.2279  0.2945 -0.0127
 5758TIP3    H138689   5.146   4.141   2.758 -0.4463  0.9131 -0.4543
 5758TIP3    H238690   5.196   4.157   2.900 -1.7761  0.4809  0.0714
 5759TIP3   OH238691   0.508   5.495   3.891 -0.8117 -0.5660  0.4792
 5759TIP3    H138692   0.419   5.503   3.856  0.0436 -1.4797 -2.0104
 5759TIP3    H238693   0.526   5.401   3.891 -0.1841 -0.4577  1.8970
 5760TIP3   OH238694   0.281   3.565   5.294 -0.2578  0.4386 -0.1594
 5760TIP3    H138695   0.363   3.550   5.342  1.1303  3.5737 -1.4444
 5760TIP3    H238696   0.236   3.632   5.345 -1.2344 -0.0007 -0.4355
 5761TIP3   OH238697   4.942   3.305   0.515 -0.0047  0.4984 -0.0580
 5761TIP3    H138698   4.979   3.379   0.564 -0.8508  0.5383  0.5251
 5761TIP3    H238699   4.859   3.338   0.482  0.0807  0.1258 -0.6479
 5762TIP3   OH238700   0.299   0.470   4.486  0.0060 -0.3766 -0.0788
 5762TIP3    H138701   0.349   0.481   4.405 -1.2519  0.0116 -0.8198
 5762TIP3    H238702   0.364   0.448   4.552  0.8290 -2.6751 -1.5972
 5763TIP3   OH238703   4.309   2.182  14.946 -0.3426  0.0077  0.0156
 5763TIP3    H138704   4.401   2.194  14.925 -0.3956  1.4340  0.5123
 5763TIP3    H238705   4.301   2.089  14.968  0.5984 -0.5316 -1.7896
 5764TIP3   OH238706   0.270   5.195  13.311  0.2481  0.1573  0.7407
 5764TIP3    H138707   0.240   5.283  13.335  0.0505  0.8711 -1.9866
 5764TIP3    H238708   0.364   5.196  13.327  0.1966  0.7631  1.0013
 5765TIP3   OH238709   1.861   1.305  16.991  0.1530  0.3863 -0.5989
 5765TIP3    H138710   1.894   1.351  17.069  0.1347 -0.9749  0.2231
 5765TIP3    H238711   1.805   1.370  16.948 -0.2501  1.0053  0.7949
 5766TIP3   OH238712   4.510   2.262   3.194  0.1852  0.4428 -0.1457
 5766TIP3    H138713   4.481   2.178   3.160  3.6549 -0.7536 -0.3806
 5766TIP3    H238714   4.451   2.326   3.153 -1.1031 -1.6747 -1.7050
 5767TIP3   OH238715   5.596   3.369   0.568  0.6279  0.5267 -0.1964
 5767TIP3    H138716   5.673   3.319   0.594  1.0786 -0.2946 -2.9443
 5767TIP3    H238717   5.631   3.456   0.546  0.7860  0.1352 -1.5029
 5768TIP3   OH238718   4.506   3.922   1.555 -0.3174  0.6872 -0.0866
 5768TIP3    H138719   4.476   4.000   1.601 -0.3277 -0.0158  1.1445
 5768TIP3    H238720   4.434   3.859   1.564  0.6023 -0.2450  0.9579
 5769TIP3   OH238721   4.461   0.743   1.004 -0.4328  0.5397 -0.4023
 5769TIP3    H138722   4.472   0.758   1.098 -0.2177  0.0284 -0.3413
 5769TIP3    H238723   4.549   0.720   0.973 -0.0858  2.8017 -1.1326
 5770TIP3   OH238724   5.981   1.564  12.980 -0.2017  0.3117  0.0969
 5770TIP3    H138725   5.949   1.611  12.903  0.2803  0.1828 -0.1899
 5770TIP3    H238726   5.905   1.519  13.015 -0.5268  0.7721 -0.0143
 5771TIP3   OH238727   1.537   4.604  12.366  0.3965  0.9377 -0.1284
 5771TIP3    H138728   1.565   4.515  12.342  0.0219  0.5496  0.8384
 5771TIP3    H238729   1.596   4.629  12.436 -0.6168  0.7513  0.8093
 5772TIP3   OH238730   5.174   4.512  14.777 -0.0650 -0.1521 -0.2342
 5772TIP3    H138731   5.084   4.497  14.807  0.7020 -1.8095  1.3684
 5772TIP3    H238732   5.200   4.595  14.818 -0.7467  0.1522 -0.4177
 5773TIP3   OH238733   3.021   4.057   3.222 -0.1787  0.1835  0.2814
 5773TIP3    H138734   3.033   4.135   3.276 -0.2994 -0.2311  0.9144
 5773TIP3    H238735   3.101   4.006   3.236  1.1399  1.4878 -2.3084
 5774TIP3   OH238736   1.290   0.584  15.192 -0.0768  0.7566  0.3238
 5774TIP3    H138737   1.248   0.664  15.161 -2.0285 -0.3046  0.2155
 5774TIP3    H238738   1.326   0.543  15.113 -1.1421  0.3329  0.0545
 5775TIP3   OH238739   5.382   3.832   2.131  0.1227 -0.0182 -0.4368
 5775TIP3    H138740   5.444   3.884   2.182 -0.9048 -0.3997  1.2465
 5775TIP3    H238741   5.393   3.864   2.042 -0.2479  2.8899  0.4809
 5776TIP3   OH238742   1.964   6.171   1.419 -0.1672 -0.2560  0.1656
 5776TIP3    H138743   1.884   6.220   1.400  0.3040  0.2538 -0.5205
 5776TIP3    H238744   1.942   6.080   1.400 -0.3266 -0.0088 -0.8677
 5777TIP3   OH238745   0.024   3.615   3.020  0.1335 -0.0084 -0.2027
 5777TIP3    H138746   0.049   3.625   3.111  0.5022  0.8334 -0.3936
 5777TIP3    H238747   0.084   3.548   2.986  1.4928  1.2943 -0.4061
 5778TIP3   OH238748   3.581   1.667   0.145  0.3177  0.3404 -0.7133
 5778TIP3    H138749   3.554   1.758   0.164  0.4785  0.0343  1.0963
 5778TIP3    H238750   3.676   1.669   0.148  0.3237  0.1422 -0.7961
 5779TIP3   OH238751   3.247   0.907  16.046 -0.3931 -0.1778  0.1773
 5779TIP3    H138752   3.167   0.858  16.066 -0.4241 -0.1298  0.1709
 5779TIP3    H238753   3.312   0.839  16.028 -0.7313 -0.2081 -0.9850
 5780TIP3   OH238754   0.978   5.677  13.524 -0.0875 -0.5907 -0.4131
 5780TIP3    H138755   0.923   5.655  13.599 -1.6000 -0.3631 -1.4505
 5780TIP3    H238756   0.919   5.717  13.461  1.3579  0.1082 -1.3516
 5781TIP3   OH238757   2.776   0.634   4.864 -0.4503  0.0385 -0.1532
 5781TIP3    H138758   2.828   0.556   4.846 -2.1054 -1.1895  0.2058
 5781TIP3    H238759   2.739   0.659   4.779 -0.3925  0.0835 -0.1651
 5782TIP3   OH238760   5.668   4.848  15.592  0.4386 -0.3088 -1.0030
 5782TIP3    H138761   5.680   4.910  15.520  0.3685  0.4662 -0.3554
 5782TIP3    H238762   5.576   4.821  15.585  0.6550 -0.8694 -1.7020
 5783TIP3   OH238763   2.602   6.741   5.652 -0.3435 -1.0194 -0.1711
 5783TIP3    H138764   2.683   6.731   5.701  1.0247 -0.8730 -2.3220
 5783TIP3    H238765   2.619   6.697   5.569 -2.3081 -0.5854 -0.8326
 5784TIP3   OH238766   2.333   4.949  13.409 -0.0898  0.1422  0.1798
 5784TIP3    H138767   2.403   4.915  13.352 -0.5351  0.9213 -0.8601
 5784TIP3    H238768   2.256   4.898  13.385 -0.5295  1.1871 -0.6888
 5785TIP3   OH238769   1.976   3.582   0.271  0.0038  0.3376 -0.2045
 5785TIP3    H138770   1.987   3.676   0.257 -0.3418  0.5497  0.8258
 5785TIP3    H238771   1.892   3.562   0.229  0.1655  0.4619 -0.5827
 5786TIP3   OH238772   5.012   1.933  13.109 -0.0606 -0.0159 -0.3713
 5786TIP3    H138773   5.005   2.012  13.162  3.3364  1.2341 -1.6052
 5786TIP3    H238774   4.922   1.905  13.095 -1.2616  2.7369  1.4184
 5787TIP3   OH238775   2.536   4.454  10.645 -0.2825 -0.5444 -0.3158
 5787TIP3    H138776   2.471   4.385  10.660 -1.1992  0.4727  0.4892
 5787TIP3    H238777   2.484   4.530  10.618  0.6087  0.1961  0.0335
 5788TIP3   OH238778   1.878   3.297   1.914  0.1837  0.5687  0.1956
 5788TIP3    H138779   1.798   3.284   1.863  0.1157 -0.1998  0.4936
 5788TIP3    H238780   1.896   3.390   1.906 -0.7611  0.7568  0.1527
 5789TIP3   OH238781   1.342   4.290  12.195  0.1203 -0.6483 -0.0218
 5789TIP3    H138782   1.280   4.240  12.248 -0.8934 -0.3729 -0.9381
 5789TIP3    H238783   1.426   4.247  12.209 -0.4906 -1.7607  0.2796
 5790TIP3   OH238784   4.843   4.920   3.984  0.2602  0.3631 -0.1822
 5790TIP3    H138785   4.838   5.015   3.982  0.5348  0.4297  1.5475
 5790TIP3    H238786   4.937   4.901   3.994  0.6071 -0.1919 -3.7285
 5791TIP3   OH238787   1.724   1.168  15.036  0.5490 -0.1413 -0.0621
 5791TIP3    H138788   1.773   1.236  15.083  0.6500 -0.4140  0.2220
 5791TIP3    H238789   1.774   1.153  14.957  0.2036  0.5615 -0.4241
 5792TIP3   OH238790   0.182   4.276  16.189  0.5980 -0.3767 -0.0445
 5792TIP3    H138791   0.219   4.333  16.122 -0.6578  0.9725  0.3764
 5792TIP3    H238792   0.125   4.216  16.141  1.1306 -0.6117 -0.3778
 5793TIP3   OH238793   3.967   2.673   5.976  0.3210 -0.0370 -0.0503
 5793TIP3    H138794   4.059   2.659   5.951  0.0464 -1.2239 -0.4409
 5793TIP3    H238795   3.935   2.736   5.912  0.3929 -0.9618 -1.0192
 5794TIP3   OH238796   4.849   3.444  15.017 -0.4810  0.2558 -0.2712
 5794TIP3    H138797   4.786   3.488  15.074 -1.0541 -1.1654  0.2202
 5794TIP3    H238798   4.836   3.351  15.034  0.8230 -0.1095 -1.1654
 5795TIP3   OH238799   4.872   3.495  11.962 -0.0985 -0.0055  0.0878
 5795TIP3    H138800   4.899   3.527  12.049  1.7084 -0.1778 -0.3940
 5795TIP3    H238801   4.794   3.443  11.980  2.3786 -3.2355  2.1944
 5796TIP3   OH238802   3.271   4.024  15.233 -0.4342 -0.2978  0.0204
 5796TIP3    H138803   3.341   3.993  15.291  0.6982  1.0266 -0.6003
 5796TIP3    H238804   3.259   3.953  15.170  1.2700 -0.0330 -0.6458
 5797TIP3   OH238805   5.934   6.376  16.327 -0.4716 -0.2956  0.4553
 5797TIP3    H138806   5.970   6.444  16.270  0.1386 -1.3211 -0.3994
 5797TIP3    H238807   5.910   6.422  16.408  2.5521  0.4639  0.9827
 5798TIP3   OH238808   0.564   1.285  13.051  0.6217 -0.4068 -0.4910
 5798TIP3    H138809   0.562   1.368  13.005  1.5222 -0.4506 -0.6128
 5798TIP3    H238810   0.473   1.255  13.050  0.1639  0.9053  0.1836
 5799TIP3   OH238811   1.746   3.457  16.809 -0.1122  0.3838 -0.5478
 5799TIP3    H138812   1.697   3.404  16.745  0.8970  0.0524 -1.0549
 5799TIP3    H238813   1.799   3.393  16.856 -0.0768  0.7594 -0.0850
 5800TIP3   OH238814   0.404   4.325  12.875  0.4041  0.2339  0.6561
 5800TIP3    H138815   0.347   4.271  12.820  0.1588  0.1314  1.0094
 5800TIP3    H238816   0.438   4.265  12.941  2.7627 -0.2167 -0.9370
 5801TIP3   OH238817   0.506   6.035  16.903 -0.7433 -0.1867  0.1107
 5801TIP3    H138818   0.478   5.974  16.834 -2.0214  0.9806 -0.4178
 5801TIP3    H238819   0.425   6.067  16.942 -0.0484  0.0486  1.3902
 5802TIP3   OH238820   6.672   0.345   6.508 -0.2236  0.8056  0.5106
 5802TIP3    H138821   6.680   0.273   6.446 -3.3431  0.6769  0.1633
 5802TIP3    H238822   6.683   0.304   6.594  0.2145  0.3060  0.2156
 5803TIP3   OH238823   3.486   5.711   4.572  0.1373  0.5960  0.2746
 5803TIP3    H138824   3.538   5.637   4.542 -0.0633  0.5501  0.0332
 5803TIP3    H238825   3.532   5.788   4.539 -0.7505  0.5058 -1.2386
 5804TIP3   OH238826   3.963   0.766  14.496  0.0717 -0.0676 -0.3570
 5804TIP3    H138827   4.041   0.820  14.484  0.6117 -0.4823  1.1821
 5804TIP3    H238828   3.994   0.676  14.487 -0.2341 -0.2368  0.2615
 5805TIP3   OH238829   1.162   3.471  16.467  0.3295 -0.0616  0.6555
 5805TIP3    H138830   1.185   3.458  16.375 -1.9520 -2.9279  0.3895
 5805TIP3    H238831   1.193   3.392  16.511 -1.8327 -0.4183  1.6288
 5806TIP3   OH238832   5.362   4.971   6.166  0.1033 -0.1915 -0.1976
 5806TIP3    H138833   5.356   5.016   6.250  0.2760  0.7949 -0.7069
 5806TIP3    H238834   5.302   4.897   6.174  0.2461 -0.2015  0.8501
 5807TIP3   OH238835   2.709   3.634   5.979 -0.1890 -0.1728  0.6610
 5807TIP3    H138836   2.795   3.622   5.938 -0.7419  0.0425 -0.5862
 5807TIP3    H238837   2.717   3.592   6.064  1.3120  0.2807  0.7510
 5808TIP3   OH238838   0.689   5.975   5.474 -0.2728  0.0259  0.5696
 5808TIP3    H138839   0.780   5.995   5.493  0.2060  0.7575 -2.2001
 5808TIP3    H238840   0.691   5.887   5.437 -0.7782 -0.2366  1.1674
 5809TIP3   OH238841   4.220   1.455   2.507  0.6340 -0.3590 -0.0832
 5809TIP3    H138842   4.137   1.443   2.461  0.6940  0.8721 -0.5187
 5809TIP3    H238843   4.204   1.419   2.594  0.0261 -1.2393 -0.5522
 5810TIP3   OH238844   4.712   4.868   4.817 -0.1995  0.0851 -0.4233
 5810TIP3    H138845   4.639   4.908   4.770 -0.9599  1.2707  1.6706
 5810TIP3    H238846   4.777   4.938   4.824  1.5412 -1.2043 -2.9872
 5811TIP3   OH238847   4.986   5.851  14.464  0.0334 -0.6931  0.1756
 5811TIP3    H138848   5.073   5.812  14.469  1.1765  1.6385 -0.6417
 5811TIP3    H238849   4.989   5.926  14.524 -1.0096  0.0788 -0.7051
 5812TIP3   OH238850   6.404   1.026   3.481  0.5120  0.0898 -0.1663
 5812TIP3    H138851   6.448   1.111   3.475 -1.7088  1.2126 -1.4935
 5812TIP3    H238852   6.341   1.036   3.552 -0.7048  0.0677 -1.2033
 5813TIP3   OH238853   4.033   1.066   2.609  0.6993 -0.3067  0.0087
 5813TIP3    H138854   3.977   0.991   2.591  1.0460 -0.2253 -1.4604
 5813TIP3    H238855   4.052   1.060   2.703 -0.6632 -1.0837  0.2442
 5814TIP3   OH238856   2.061   3.578  16.983 -0.1589  0.5498  0.5294
 5814TIP3    H138857   2.014   3.512  17.035  0.5631 -0.4052 -0.0087
 5814TIP3    H238858   2.152   3.547  16.983 -0.0731  0.7921 -0.9173
 5815TIP3   OH238859   4.895   5.634  14.215 -0.2772 -0.1962  0.7824
 5815TIP3    H138860   4.876   5.649  14.122 -1.2895  0.2866  1.0707
 5815TIP3    H238861   4.810   5.619  14.255 -0.0828  2.1411  2.1029
 5816TIP3   OH238862   2.167   5.044  13.961  0.1755  0.3370 -0.3012
 5816TIP3    H138863   2.238   4.992  13.922 -1.3248 -2.8833  1.0718
 5816TIP3    H238864   2.088   5.013  13.916 -1.2289 -1.4172  3.2066
 5817TIP3   OH238865   2.337   5.992   5.145 -0.3277  0.1129  0.2758
 5817TIP3    H138866   2.406   6.006   5.081  2.0166 -3.2428  1.9236
 5817TIP3    H238867   2.339   6.069   5.201 -0.1874  1.5442 -1.6468
 5818TIP3   OH238868   2.203   1.523   4.244  0.3796 -0.3136 -0.2504
 5818TIP3    H138869   2.201   1.618   4.257  2.6378 -0.2768 -0.0497
 5818TIP3    H238870   2.296   1.500   4.247 -0.3112 -3.0886  3.7582
 5819TIP3   OH238871   2.383   2.405   3.008  0.2561 -0.1631 -0.0820
 5819TIP3    H138872   2.342   2.360   2.934 -0.4932  1.7174 -0.8452
 5819TIP3    H238873   2.412   2.489   2.972  1.2953  0.1235  1.3961
 5820TIP3   OH238874   6.154   3.138  12.633 -0.2302 -0.6377 -0.3496
 5820TIP3    H138875   6.059   3.130  12.622 -0.5209  0.6267  1.1068
 5820TIP3    H238876   6.178   3.065  12.690 -0.1193 -1.7125 -1.7453
 5821TIP3   OH238877   1.867   6.658  12.494 -0.2853 -0.0842 -0.3818
 5821TIP3    H138878   1.949   6.613  12.513  1.0097  2.4466  0.2011
 5821TIP3    H238879   1.881   6.699  12.409 -0.5981  1.0991  0.1299
 5822TIP3   OH238880   6.548   0.592   3.475 -0.3095  0.0728  0.2821
 5822TIP3    H138881   6.623   0.640   3.510 -1.2515  0.4868  1.7638
 5822TIP3    H238882   6.587   0.526   3.417  1.1919  0.3788  0.9171
 5823TIP3   OH238883   3.877   3.077   6.247 -0.0863  0.7189  0.4519
 5823TIP3    H138884   3.795   3.031   6.267  0.1021 -0.0079 -0.4214
 5823TIP3    H238885   3.850   3.152   6.195 -0.0158 -0.7133 -1.7140
 5824TIP3   OH238886   4.390   1.131  12.500 -0.2438  0.7548  0.2685
 5824TIP3    H138887   4.442   1.149  12.422 -0.8319  0.3307 -0.2326
 5824TIP3    H238888   4.453   1.096  12.564  0.1067  0.3573 -0.2892
 5825TIP3   OH238889   4.120   0.800  16.656  0.0384 -0.0165  0.2044
 5825TIP3    H138890   4.113   0.872  16.593  0.7614  1.4309  1.7148
 5825TIP3    H238891   4.106   0.842  16.741  1.7324 -1.4383  1.2153
 5826TIP3   OH238892   3.248   6.014   0.640 -0.0680 -0.0737  0.5567
 5826TIP3    H138893   3.262   6.074   0.566  2.9511 -1.8167 -0.3713
 5826TIP3    H238894   3.311   6.042   0.706 -0.5001 -0.5519  1.1769
 5827TIP3   OH238895   6.544   4.696   5.688 -0.5801  0.0226  0.3310
 5827TIP3    H138896   6.515   4.733   5.771 -2.6986 -0.3851 -0.2063
 5827TIP3    H238897   6.475   4.718   5.626  0.8011 -0.0113 -1.2562
 5828TIP3   OH238898   5.188   4.777   6.205  0.2904 -0.0932 -0.5960
 5828TIP3    H138899   5.105   4.731   6.199 -0.7929  1.5860  0.8282
 5828TIP3    H238900   5.238   4.729   6.272 -0.0377 -0.3625 -0.5473
 5829TIP3   OH238901   5.759   6.738   4.088  0.3127  0.2000 -0.0809
 5829TIP3    H138902   5.800   6.820   4.116  1.9383 -0.6200  0.0193
 5829TIP3    H238903   5.739   6.751   3.996 -0.4760  1.1163  0.2166
 5830TIP3   OH238904   4.663   0.542   4.833  0.1079  0.3730  0.1273
 5830TIP3    H138905   4.704   0.613   4.783  0.3103 -0.0129 -0.2551
 5830TIP3    H238906   4.723   0.527   4.907  1.4025 -1.1379 -1.1826
 5831TIP3   OH238907   2.868   4.415   1.437  0.0579 -0.5670  0.3534
 5831TIP3    H138908   2.928   4.414   1.363  1.0704 -1.0712  1.1786
 5831TIP3    H238909   2.852   4.508   1.454 -1.1335 -0.4485 -1.2425
 5832TIP3   OH238910   0.307   3.266   3.672 -0.4565 -0.3424  0.5530
 5832TIP3    H138911   0.316   3.330   3.742 -2.8837 -0.5844  1.1133
 5832TIP3    H238912   0.318   3.181   3.716  2.5764 -0.3979 -0.1573
 5833TIP3   OH238913   2.493   1.083   3.760 -0.0986 -0.0440 -0.0498
 5833TIP3    H138914   2.495   0.989   3.741  0.6467 -0.0538  0.0624
 5833TIP3    H238915   2.559   1.120   3.702 -0.3030  0.3953  0.0004
 5834TIP3   OH238916   0.671   1.277   2.358 -0.1578 -0.5606  0.3036
 5834TIP3    H138917   0.642   1.368   2.368  2.5717  0.4373 -0.4887
 5834TIP3    H238918   0.623   1.245   2.281  0.5187  0.9524 -0.7848
 5835TIP3   OH238919   6.037   6.379   3.808  0.0151  0.3346 -1.0507
 5835TIP3    H138920   5.961   6.366   3.864 -0.0026  0.6117 -1.0115
 5835TIP3    H238921   6.076   6.461   3.838  1.3965 -0.7345  0.1637
 5836TIP3   OH238922   0.604   3.563  11.830  0.1374 -0.2777  0.2307
 5836TIP3    H138923   0.694   3.544  11.856  0.1115 -3.1255 -1.4458
 5836TIP3    H238924   0.553   3.555  11.911  1.1977 -0.1343  0.9172
 5837TIP3   OH238925   0.003   5.370  12.619 -0.5847  0.4935 -0.2172
 5837TIP3    H138926  -0.034   5.384  12.706 -0.9692  0.9512 -0.4506
 5837TIP3    H238927   0.024   5.457  12.587  2.1934  0.1306  0.5324
 5838TIP3   OH238928   1.152   0.010   5.745 -0.0023  0.2553  0.2996
 5838TIP3    H138929   1.144   0.009   5.650 -0.3404 -0.4174  0.3345
 5838TIP3    H238930   1.064  -0.009   5.778  0.7266 -2.6841  0.7068
 5839TIP3   OH238931   5.822   1.513   4.725 -0.0632 -0.0884 -0.4122
 5839TIP3    H138932   5.913   1.482   4.726 -0.6941 -1.9677  0.9135
 5839TIP3    H238933   5.782   1.468   4.651  0.1903  1.1253 -1.3067
 5840TIP3   OH238934   5.592   3.311   5.601 -0.3065 -0.1558  0.9688
 5840TIP3    H138935   5.562   3.363   5.675 -1.2296 -2.6329  2.4063
 5840TIP3    H238936   5.513   3.267   5.570  0.5774 -1.2879  0.2843
 5841TIP3   OH238937   6.721   5.973   1.687 -0.4171  0.2829  0.1381
 5841TIP3    H138938   6.749   5.934   1.604 -0.5627  1.4153 -0.4710
 5841TIP3    H238939   6.770   6.055   1.692 -0.5012  0.2799  1.1196
 5842TIP3   OH238940   5.734   4.600   0.522  0.2079 -0.0963  0.4213
 5842TIP3    H138941   5.732   4.506   0.539 -0.9772  0.0097  0.9423
 5842TIP3    H238942   5.645   4.621   0.495  0.0591  1.1512  1.8430
 5843TIP3   OH238943   1.959   4.304   1.855 -0.3483 -0.5777  0.2020
 5843TIP3    H138944   1.936   4.396   1.872  0.6202 -0.5472  1.4393
 5843TIP3    H238945   2.054   4.305   1.845  0.2448 -2.0100  4.5057
 5844TIP3   OH238946   3.775   4.138   5.633 -0.2248  0.3162 -0.2426
 5844TIP3    H138947   3.772   4.214   5.691 -1.8142  0.0140  0.0973
 5844TIP3    H238948   3.744   4.171   5.549 -1.6261 -0.0994  0.0941
 5845TIP3   OH238949   3.489   0.197  12.307 -0.2269  0.3947  0.2732
 5845TIP3    H138950   3.424   0.156  12.364 -0.9416  0.1261 -0.7236
 5845TIP3    H238951   3.477   0.291  12.321 -0.3907  0.3268  0.5834
 5846TIP3   OH238952   2.159   0.332  16.622  0.2543  0.3946 -0.0513
 5846TIP3    H138953   2.209   0.251  16.629 -0.7522 -0.1520  1.0839
 5846TIP3    H238954   2.221   0.401  16.642  0.6103 -0.2543  1.1300
 5847TIP3   OH238955   1.001   5.786   5.862  0.2413  0.6217 -0.4437
 5847TIP3    H138956   1.043   5.866   5.892 -0.0394  1.2861 -1.7792
 5847TIP3    H238957   0.913   5.813   5.836  0.4005  0.0407 -1.6443
 5848TIP3   OH238958   2.225   6.298   6.136  0.0968  0.1478 -0.0495
 5848TIP3    H138959   2.166   6.322   6.064 -0.5395  3.1597  1.4343
 5848TIP3    H238960   2.194   6.212   6.165 -2.3698  0.8474 -0.5430
 5849TIP3   OH238961   5.405   3.398   3.195  0.3591 -0.5967  0.5724
 5849TIP3    H138962   5.406   3.306   3.221  1.7590 -1.3818 -2.1041
 5849TIP3    H238963   5.458   3.443   3.261 -1.1831 -1.5112  2.4747
 5850TIP3   OH238964   5.900   3.749  12.564 -0.0624  0.5835 -0.1824
 5850TIP3    H138965   5.961   3.766  12.493 -1.9526  1.3308 -1.6603
 5850TIP3    H238966   5.948   3.772  12.643  0.4794  4.3728 -1.5178
 5851TIP3   OH238967   4.436   1.579   6.232  0.2793  0.0781  0.2316
 5851TIP3    H138968   4.362   1.550   6.286  0.5664  3.1167  2.3954
 5851TIP3    H238969   4.503   1.512   6.245 -0.6059 -0.5749  1.5851
 5852TIP3   OH238970   0.696   1.784   5.354  0.4480  0.3493  0.3007
 5852TIP3    H138971   0.619   1.834   5.330  0.5472 -0.1202 -1.0419
 5852TIP3    H238972   0.759   1.850   5.385 -1.1213  0.5518  3.2115
 5853TIP3   OH238973   4.229   3.962   5.268  0.1142  0.3670  0.2283
 5853TIP3    H138974   4.255   3.873   5.245 -0.2577  0.1858  0.5037
 5853TIP3    H238975   4.152   3.980   5.215  0.1015  0.4737  0.2809
 5854TIP3   OH238976   1.295   4.781   4.609 -0.4250 -0.0653  0.0204
 5854TIP3    H138977   1.329   4.868   4.590 -1.8368  0.5179  0.0726
 5854TIP3    H238978   1.224   4.769   4.546 -0.6503 -0.9095  0.4360
 5855TIP3   OH238979   6.089   1.474  15.229  0.2197 -0.5456 -0.2540
 5855TIP3    H138980   5.993   1.480  15.230  0.2332 -0.4275  1.6912
 5855TIP3    H238981   6.118   1.565  15.222  0.1787 -0.3684  1.4899
 5856TIP3   OH238982   2.291   3.684  12.353 -0.6345 -0.3306  0.3358
 5856TIP3    H138983   2.241   3.631  12.291 -0.5591  0.4393 -0.3967
 5856TIP3    H238984   2.321   3.759  12.301  1.3230 -0.8057  0.7479
 5857TIP3   OH238985   5.851   1.111   0.811  0.2372  0.2082  0.6273
 5857TIP3    H138986   5.853   1.028   0.762 -0.0057 -0.0748  1.0900
 5857TIP3    H238987   5.943   1.134   0.822  0.3294 -0.3674  1.1041
 5858TIP3   OH238988   2.577   3.373   1.534 -0.0949 -0.0901 -0.2785
 5858TIP3    H138989   2.498   3.322   1.518  1.2801 -1.8675 -1.5105
 5858TIP3    H238990   2.565   3.453   1.483 -0.7290 -0.7476 -1.1747
 5859TIP3   OH238991   2.883   3.477   2.420 -0.7918  0.7177  0.3389
 5859TIP3    H138992   2.881   3.565   2.458  0.7100  0.7543  0.3447
 5859TIP3    H238993   2.896   3.419   2.494 -0.9207  0.5444  0.2280
 5860TIP3   OH238994   1.685   2.741   5.780  0.4549  0.5088  0.8473
 5860TIP3    H138995   1.646   2.824   5.752  1.0579  0.3332 -0.5893
 5860TIP3    H238996   1.778   2.752   5.764  0.2300 -1.5048 -2.3200
 5861TIP3   OH238997   2.783   4.057   3.582 -0.0298 -0.1015  0.3048
 5861TIP3    H138998   2.733   4.061   3.501  0.0065 -0.2349  0.2751
 5861TIP3    H238999   2.718   4.065   3.652 -0.0012  0.5610  0.2539
 5862TIP3   OH239000   0.556   1.635   2.784  0.3229 -0.1636  0.1862
 5862TIP3    H139001   0.577   1.694   2.858 -2.6519  0.1851  0.8272
 5862TIP3    H239002   0.516   1.559   2.826 -4.5764  1.4997 -1.1691
 5863TIP3   OH239003   3.943   2.596   4.076  0.4320 -0.4509  0.1252
 5863TIP3    H139004   3.955   2.660   4.006 -0.1285 -0.5160 -0.0291
 5863TIP3    H239005   4.029   2.554   4.084  1.1830  1.1981  1.1103
 5864TIP3   OH239006   1.648   4.327  12.372 -0.1315 -0.1446  0.2863
 5864TIP3    H139007   1.570   4.285  12.409  0.9526 -2.6325 -0.1525
 5864TIP3    H239008   1.718   4.264  12.387  1.6848  1.7715  0.0720
 5865TIP3   OH239009   3.135   2.303  14.446 -0.2870 -0.0495  0.2374
 5865TIP3    H139010   3.138   2.358  14.367 -0.4420  0.9117  0.8837
 5865TIP3    H239011   3.148   2.365  14.518  0.3441 -0.9908  0.9440
 5866TIP3   OH239012   2.758   5.632   5.157  0.1309 -0.1082 -0.1257
 5866TIP3    H139013   2.663   5.633   5.172  0.2088  4.3866  0.8010
 5866TIP3    H239014   2.794   5.588   5.234 -1.1527 -1.4160 -0.2515
 5867TIP3   OH239015   5.432   2.086  10.880  0.1729  0.0328  0.2574
 5867TIP3    H139016   5.525   2.106  10.890  0.3990 -0.9818  0.2784
 5867TIP3    H239017   5.417   2.013  10.941 -0.7669  0.5826  0.6864
 5868TIP3   OH239018   5.574   5.208  12.666  0.2951 -0.2931  0.7859
 5868TIP3    H139019   5.561   5.170  12.579 -0.9552 -0.8125  1.1854
 5868TIP3    H239020   5.565   5.303  12.652  2.9228 -0.1308 -0.1220
 5869TIP3   OH239021   1.773   5.606   3.472  0.7225  0.6101 -0.3517
 5869TIP3    H139022   1.751   5.601   3.565  0.0627 -1.6994 -0.6061
 5869TIP3    H239023   1.701   5.563   3.428  1.9073  0.0678 -1.7965
 5870TIP3   OH239024   1.675   0.083   1.256  0.0553  0.0654  0.7045
 5870TIP3    H139025   1.605   0.071   1.192  0.0794 -0.2898  0.7441
 5870TIP3    H239026   1.705  -0.006   1.276  0.6623  0.2277  0.5238
 5871TIP3   OH239027   4.692   1.679  13.365 -0.0254 -0.3415  0.0597
 5871TIP3    H139028   4.740   1.617  13.310  0.8750 -0.2950  0.7796
 5871TIP3    H239029   4.665   1.627  13.441 -0.8948 -0.3023 -0.2193
 5872TIP3   OH239030   1.648   2.348  10.974  0.1305  0.1881 -0.6238
 5872TIP3    H139031   1.565   2.301  10.965 -0.0094  0.6258 -1.6298
 5872TIP3    H239032   1.715   2.281  10.962 -0.0486 -0.4407  1.5650
 5873TIP3   OH239033   1.530   3.995   1.094 -0.4421  0.6655 -0.3043
 5873TIP3    H139034   1.573   3.954   1.019 -0.6949  0.2151 -0.2077
 5873TIP3    H239035   1.575   4.078   1.106  0.2877  0.2699 -0.3064
 5874TIP3   OH239036   2.167   2.914   5.818 -0.1990 -0.1932  0.3728
 5874TIP3    H139037   2.217   2.864   5.754 -1.8916  0.2039 -1.3061
 5874TIP3    H239038   2.233   2.952   5.876  1.2400 -2.2967  0.1558
 5875TIP3   OH239039   6.231   1.496  12.568 -0.5698  0.6139 -0.2056
 5875TIP3    H139040   6.139   1.489  12.540 -0.5286  1.5233 -0.5915
 5875TIP3    H239041   6.244   1.421  12.626 -0.9351 -0.7490 -1.8318
 5876TIP3   OH239042   3.086   5.787   4.282  0.2047  0.1276 -0.4831
 5876TIP3    H139043   3.120   5.799   4.371 -0.6259  0.3528 -0.1914
 5876TIP3    H239044   3.159   5.749   4.233 -0.0971 -2.4332  0.9261
 5877TIP3   OH239045   1.215   0.553   1.158  0.1644 -0.0280 -0.0872
 5877TIP3    H139046   1.145   0.577   1.098 -0.4066  2.2185  1.4010
 5877TIP3    H239047   1.172   0.540   1.242  1.5224  1.6874  0.9205
 5878TIP3   OH239048   0.983   1.197   0.516  0.2833  0.1874 -0.3075
 5878TIP3    H139049   1.007   1.263   0.581  0.6395 -0.3345  0.0948
 5878TIP3    H239050   0.890   1.180   0.533  0.8458 -1.3698  1.3628
 5879TIP3   OH239051   5.711   1.533   3.222  0.6184  0.4989 -0.8537
 5879TIP3    H139052   5.653   1.592   3.271  2.8486  0.0964  2.4430
 5879TIP3    H239053   5.746   1.588   3.152  0.0352  2.1750  0.1187
 5880TIP3   OH239054   3.807   2.589  15.270 -0.0528  0.2535 -0.0823
 5880TIP3    H139055   3.772   2.523  15.330 -0.9085 -0.5984 -1.4804
 5880TIP3    H239056   3.732   2.613  15.215  0.3975  1.9695  0.0378
 5881TIP3   OH239057   4.928   4.547   1.358  0.0355 -0.2630 -0.0554
 5881TIP3    H139058   5.011   4.515   1.393 -0.6188  1.1222  3.0173
 5881TIP3    H239059   4.863   4.524   1.425 -1.3940  2.1286 -0.5458
 5882TIP3   OH239060   0.422   4.202   4.905  0.6195  0.0873 -0.4301
 5882TIP3    H139061   0.350   4.266   4.910  1.2669  0.8382 -0.6336
 5882TIP3    H239062   0.411   4.148   4.984  0.6249  1.0391  0.2368
 5883TIP3   OH239063   4.236   2.595  14.182  0.3871 -0.1225  0.1575
 5883TIP3    H139064   4.199   2.526  14.128  2.8653  0.1185 -1.9331
 5883TIP3    H239065   4.277   2.549  14.255 -0.9203 -0.5913  0.6214
 5884TIP3   OH239066   1.529   5.026  12.635 -0.2301  0.3904  0.6244
 5884TIP3    H139067   1.524   4.955  12.699  0.0771  0.5694  0.8493
 5884TIP3    H239068   1.439   5.039  12.606 -0.1553 -0.7866 -0.1812
 5885TIP3   OH239069   4.683   0.017  13.390  0.1197 -0.5356  0.3560
 5885TIP3    H139070   4.775   0.036  13.404 -0.0398 -0.3739  1.1826
 5885TIP3    H239071   4.640   0.039  13.473 -0.6067 -0.9446  0.1001
 5886TIP3   OH239072   0.976   2.704  16.719  0.4117 -0.2863 -0.1002
 5886TIP3    H139073   1.050   2.761  16.697 -1.4832  1.7485 -1.4971
 5886TIP3    H239074   0.957   2.723  16.810  1.9694 -1.3025  0.4708
 5887TIP3   OH239075   2.593   0.403   5.333  0.3963 -0.0164  0.1874
 5887TIP3    H139076   2.664   0.454   5.293  1.1152  0.1258  1.6444
 5887TIP3    H239077   2.527   0.468   5.356 -0.1178 -0.1212 -0.9275
 5888TIP3   OH239078   5.632   1.723  12.004  0.0581  0.2301  0.2061
 5888TIP3    H139079   5.581   1.765  12.074 -0.3923 -2.0607  1.3186
 5888TIP3    H239080   5.720   1.714  12.041 -0.4809 -2.1276  1.0483
 5889TIP3   OH239081   5.878   4.512   5.128  0.0927 -0.4243  0.2019
 5889TIP3    H139082   5.891   4.599   5.092  0.1505 -0.5285 -0.0364
 5889TIP3    H239083   5.947   4.459   5.087 -0.6668 -0.8405 -0.5699
 5890TIP3   OH239084   3.097   3.471   3.367  0.2406  0.1855 -0.0812
 5890TIP3    H139085   3.058   3.490   3.281 -2.0835  0.2543  0.9627
 5890TIP3    H239086   3.022   3.451   3.424  1.8425 -1.0454  1.6471
 5891TIP3   OH239087   4.978   1.503  14.549  0.0892  0.1964  0.0759
 5891TIP3    H139088   4.933   1.443  14.490  0.6690 -0.6979  0.5452
 5891TIP3    H239089   5.019   1.567  14.490 -1.0285  0.4942 -0.3903
 5892TIP3   OH239090   0.455   5.919   3.902 -0.3375  0.3227 -0.2292
 5892TIP3    H139091   0.461   5.824   3.908 -1.4479  0.3150  1.1407
 5892TIP3    H239092   0.465   5.938   3.809  2.8970 -0.8773 -0.1865
 5893TIP3   OH239093   0.997   3.710   5.286 -0.3694  0.5655 -0.2961
 5893TIP3    H139094   0.904   3.728   5.301 -0.1237  0.5442  1.4155
 5893TIP3    H239095   1.043   3.772   5.344  0.6511 -0.5714  0.1317
 5894TIP3   OH239096   5.873   1.271   2.500  0.4963 -0.0381 -0.7039
 5894TIP3    H139097   5.923   1.281   2.581  1.8401  1.0995 -1.6528
 5894TIP3    H239098   5.782   1.264   2.529  0.9341  0.6002  0.8858
 5895TIP3   OH239099   3.918   1.781  15.222  0.2439  0.1668 -0.1651
 5895TIP3    H139100   3.895   1.823  15.139  1.0856 -2.1894 -1.6296
 5895TIP3    H239101   3.836   1.743  15.253 -0.0365  0.9078  0.0228
 5896TIP3   OH239102   1.517   3.885  15.253  0.2985 -0.0736 -0.5901
 5896TIP3    H139103   1.569   3.805  15.238 -0.4789 -0.4292 -1.4349
 5896TIP3    H239104   1.461   3.892  15.176 -0.9604  0.2683  0.3392
 5897TIP3   OH239105   5.323   6.598   4.971 -0.6446 -0.3884 -0.0318
 5897TIP3    H139106   5.289   6.509   4.977  0.8953 -1.0027 -0.1961
 5897TIP3    H239107   5.273   6.647   5.036 -3.5138 -0.6922 -1.9040
 5898TIP3   OH239108   4.446   4.564  15.770  0.2732  0.4802 -0.1475
 5898TIP3    H139109   4.380   4.621  15.808  0.3696  2.3531 -2.6740
 5898TIP3    H239110   4.498   4.534  15.845 -0.9637  2.1479  1.4296
 5899TIP3   OH239111   6.717   4.432   5.720  0.1058  0.2384 -0.0710
 5899TIP3    H139112   6.654   4.503   5.710 -0.1184 -0.0731 -0.8941
 5899TIP3    H239113   6.729   4.397   5.632 -0.2086 -1.1152  0.4045
 5900TIP3   OH239114   1.815   3.991   1.476 -0.2259  0.0908  0.0087
 5900TIP3    H139115   1.722   4.011   1.490 -0.3549 -0.6798  0.2405
 5900TIP3    H239116   1.818   3.953   1.388  0.1717  2.1151 -0.8812
 5901TIP3   OH239117   2.947   4.638   5.558 -0.7692 -0.0281  0.1244
 5901TIP3    H139118   2.916   4.619   5.470  0.3688  0.6018 -0.4260
 5901TIP3    H239119   2.971   4.553   5.594 -0.1570 -0.1572 -0.5919
 5902TIP3   OH239120   4.311   6.522   4.333  0.7043  1.0821 -0.0869
 5902TIP3    H139121   4.221   6.555   4.339  0.3555  0.0820  0.3945
 5902TIP3    H239122   4.352   6.550   4.415  0.3786  0.2511  0.3668
 5903TIP3   OH239123   4.084   1.639   4.981 -0.4891  0.0779  0.1820
 5903TIP3    H139124   4.141   1.673   5.049  0.0874 -2.7500  1.1998
 5903TIP3    H239125   4.029   1.713   4.955  0.9691  1.8223  1.9509
 5904TIP3   OH239126   4.116   0.514  15.662 -0.1071  0.4464  0.0730
 5904TIP3    H139127   4.170   0.477  15.593 -0.5604 -0.7186  0.3203
 5904TIP3    H239128   4.026   0.491  15.638 -0.7441  4.1931 -1.4516
 5905TIP3   OH239129   2.372   4.838   6.549 -0.0501  0.7146 -0.1586
 5905TIP3    H139130   2.411   4.893   6.617  0.7055  0.2615 -0.2286
 5905TIP3    H239131   2.282   4.871   6.541 -0.1606  0.7467  1.0855
 5906TIP3   OH239132   1.521   5.889  13.761  0.0404 -0.2318 -0.2245
 5906TIP3    H139133   1.436   5.898  13.718  0.0357  0.1321 -0.1369
 5906TIP3    H239134   1.574   5.961  13.725  0.2159 -0.2745 -0.0508
 5907TIP3   OH239135   3.304   2.174  16.951  0.0954 -0.0523 -0.2119
 5907TIP3    H139136   3.234   2.110  16.937  0.9134 -0.8629 -0.6670
 5907TIP3    H239137   3.375   2.123  16.989  0.7214  0.6085 -0.4866
 5908TIP3   OH239138   5.960   0.219   2.240 -0.4309  0.4786  0.6703
 5908TIP3    H139139   5.907   0.140   2.232 -2.0995  1.8084 -1.8297
 5908TIP3    H239140   5.955   0.261   2.154 -0.2132  3.6860  2.1405
 5909TIP3   OH239141   5.344   0.650   6.335 -0.2040 -0.0224  0.4169
 5909TIP3    H139142   5.319   0.570   6.289  0.3200 -0.0038  0.1052
 5909TIP3    H239143   5.317   0.635   6.425 -3.6702  0.9545 -0.3609
 5910TIP3   OH239144   0.767   3.087  10.279 -0.2072  0.1441 -0.3061
 5910TIP3    H139145   0.831   3.018  10.299 -0.3286  0.6573  2.0761
 5910TIP3    H239146   0.813   3.168  10.301 -1.4158  0.5629  0.6946
 5911TIP3   OH239147   1.218   2.735  12.441 -0.1073  0.2512 -0.0657
 5911TIP3    H139148   1.133   2.738  12.485 -0.1899 -0.5837 -0.1500
 5911TIP3    H239149   1.197   2.739  12.348 -0.0082  0.8301 -0.0604
 5912TIP3   OH239150   1.869   0.704  12.176 -0.0184  0.0991 -0.3056
 5912TIP3    H139151   1.825   0.777  12.219  1.1504  0.8690 -0.3621
 5912TIP3    H239152   1.854   0.720  12.082 -0.8600 -0.4579 -0.2696
 5913TIP3   OH239153   5.304   6.741   4.580 -0.6992  0.1195  0.5579
 5913TIP3    H139154   5.231   6.764   4.522  0.2405 -0.5872 -0.9094
 5913TIP3    H239155   5.282   6.653   4.610 -0.0948 -0.3811 -0.4553
 5914TIP3   OH239156   0.553   1.144  14.884 -0.1330  0.5877  0.5521
 5914TIP3    H139157   0.483   1.084  14.911  0.3901 -0.2999 -0.0739
 5914TIP3    H239158   0.508   1.213  14.835 -0.4057 -0.7443 -1.1003
 5915TIP3   OH239159   1.517   2.457   5.928 -0.9007  0.4529  0.0643
 5915TIP3    H139160   1.602   2.414   5.940 -1.3993 -0.3967  0.6068
 5915TIP3    H239161   1.497   2.447   5.836 -0.1104  1.2365 -0.2043
 5916TIP3   OH239162   5.279   5.957   6.270  0.8850  0.0261  0.1907
 5916TIP3    H139163   5.267   5.876   6.220 -0.4881  0.1148  0.3629
 5916TIP3    H239164   5.328   5.930   6.348 -1.3251 -1.0267  1.2502
 5917TIP3   OH239165   6.498   5.555  11.047 -0.4084  0.1690  0.0977
 5917TIP3    H139166   6.423   5.527  11.098 -0.6500  2.1388  0.8677
 5917TIP3    H239167   6.468   5.551  10.956 -0.3741 -2.1443  0.1626
 5918TIP3   OH239168   1.102   4.120  12.849  0.5709 -0.5856 -0.2345
 5918TIP3    H139169   1.036   4.074  12.900  0.1210  2.3681  2.0020
 5918TIP3    H239170   1.058   4.143  12.767 -0.8813  0.5106  0.8384
 5919TIP3   OH239171   5.906   0.317  12.706 -0.2820  0.2169  0.1980
 5919TIP3    H139172   5.949   0.251  12.650  0.7526  0.0333  1.1828
 5919TIP3    H239173   5.814   0.312  12.683 -0.5718 -3.2011  1.8636
 5920TIP3   OH239174   6.058   0.338  15.871 -0.2154 -0.4090 -0.0897
 5920TIP3    H139175   6.008   0.373  15.798 -0.6938  0.8526  0.8179
 5920TIP3    H239176   6.123   0.405  15.890  0.2213 -0.9441  0.3205
 5921TIP3   OH239177   4.078   3.198  14.399 -0.2294  0.0835 -0.5028
 5921TIP3    H139178   4.090   3.120  14.344  0.9705 -0.1369  0.0462
 5921TIP3    H239179   4.150   3.194  14.462  0.1078  1.8713 -0.7378
 5922TIP3   OH239180   2.120   4.806   5.321  0.2232 -0.5981 -0.1466
 5922TIP3    H139181   2.029   4.835   5.331  0.6067  0.7019 -0.4350
 5922TIP3    H239182   2.162   4.829   5.404  0.5354 -0.3074 -0.3870
 5923TIP3   OH239183   3.941   4.880   0.982 -0.0869  0.4004 -0.0050
 5923TIP3    H139184   3.976   4.922   0.904 -1.7366 -0.7402 -1.3882
 5923TIP3    H239185   3.987   4.796   0.987  2.4769  1.8364  2.1956
 5924TIP3   OH239186   5.169   4.112   1.354  0.5000  0.4336  0.0341
 5924TIP3    H139187   5.208   4.134   1.439  2.0920 -0.1979 -0.5045
 5924TIP3    H239188   5.196   4.183   1.296  1.2261 -0.2214 -0.4451
 5925TIP3   OH239189   2.260   4.550  15.242 -0.1211  0.4773 -0.3573
 5925TIP3    H139190   2.331   4.511  15.192 -2.0108 -1.3168 -1.6913
 5925TIP3    H239191   2.296   4.634  15.272  2.5988 -0.4531 -0.8259
 5926TIP3   OH239192   0.672   4.131  16.500  0.5219  0.4462 -0.2646
 5926TIP3    H139193   0.742   4.190  16.526  2.0506 -0.4770 -2.1264
 5926TIP3    H239194   0.601   4.149  16.561  2.0156  2.1137  1.0255
 5927TIP3   OH239195   5.411   4.469  14.362  0.0675  0.1821  0.1175
 5927TIP3    H139196   5.437   4.483  14.271  1.3409  1.0022  0.5845
 5927TIP3    H239197   5.452   4.385  14.386 -0.7617 -0.3255 -0.2407
 5928TIP3   OH239198   6.238   2.711  13.724  0.2435  0.6856  0.0628
 5928TIP3    H139199   6.173   2.642  13.736  1.9278 -0.8818  0.3861
 5928TIP3    H239200   6.317   2.665  13.695  1.5858  2.3997  0.9274
 5929TIP3   OH239201   0.152   1.116   2.522  0.1735  0.7439 -0.1946
 5929TIP3    H139202   0.243   1.123   2.492 -0.3318 -1.7477 -2.5616
 5929TIP3    H239203   0.151   1.037   2.577 -0.4588  1.0566  0.2507
 5930TIP3   OH239204   3.701   1.890   4.741  0.0692  0.6092 -0.0943
 5930TIP3    H139205   3.756   1.900   4.663 -0.6512  0.7329 -0.5839
 5930TIP3    H239206   3.693   1.796   4.753  1.5260  0.5783  0.7834
 5931TIP3   OH239207   2.557   5.871  15.539  0.2187 -0.6508 -0.4747
 5931TIP3    H139208   2.627   5.815  15.506 -0.5941 -1.4775 -0.8403
 5931TIP3    H239209   2.476   5.823  15.517 -0.4460  0.1956  0.0933
 5932TIP3   OH239210   3.804   6.055  15.863 -0.6813 -0.3410  0.6209
 5932TIP3    H139211   3.718   6.092  15.841 -0.3118 -0.5704 -1.3085
 5932TIP3    H239212   3.854   6.131  15.894 -1.1784  0.0184  0.5682
 5933TIP3   OH239213   2.403   5.778   0.929  0.2550 -0.6438  0.6250
 5933TIP3    H139214   2.457   5.782   1.008  0.8126 -0.2414  0.2260
 5933TIP3    H239215   2.409   5.687   0.900  2.7684 -0.0738 -0.8204
 5934TIP3   OH239216   0.389   3.890  16.713  0.4906 -0.3888  0.5852
 5934TIP3    H139217   0.311   3.885  16.657  1.1217 -0.2209 -0.3261
 5934TIP3    H239218   0.391   3.980  16.745  0.2534 -0.4222  0.6926
 5935TIP3   OH239219   6.360   0.565  13.938  0.1573 -0.5899 -0.0968
 5935TIP3    H139220   6.358   0.497  14.006 -0.7665 -0.5824 -0.1065
 5935TIP3    H239221   6.452   0.590  13.932  0.5214 -1.8944 -0.1512
 5936TIP3   OH239222   4.761   1.199   4.608  0.0734  0.2162  0.0809
 5936TIP3    H139223   4.775   1.197   4.702  0.9138 -0.1936 -0.0559
 5936TIP3    H239224   4.791   1.114   4.576  0.7720  0.7460 -0.6983
 5937TIP3   OH239225   1.757   5.880  13.505 -0.3412 -0.2514  0.0379
 5937TIP3    H139226   1.796   5.870  13.419  1.3034 -0.2815  0.7751
 5937TIP3    H239227   1.752   5.790  13.540 -0.5251 -0.1854  0.1863
 5938TIP3   OH239228   1.917   1.251  14.117 -0.0346  0.4090  0.3507
 5938TIP3    H139229   2.001   1.293  14.139 -0.3721  0.8047  0.8963
 5938TIP3    H239230   1.869   1.251  14.200  0.2106 -1.6326  0.5144
 5939TIP3   OH239231   4.523   4.177   0.802 -0.2015  0.2970 -0.5828
 5939TIP3    H139232   4.528   4.120   0.725  3.3790  0.6341 -0.6608
 5939TIP3    H239233   4.434   4.213   0.800 -0.0859  0.5001 -4.6975
 5940TIP3   OH239234   4.775   0.825  12.253  0.3579 -0.1366  0.2632
 5940TIP3    H139235   4.768   0.734  12.225 -1.0506 -0.1415  0.5980
 5940TIP3    H239236   4.737   0.827  12.341  1.6500  0.5240  0.8205
 5941TIP3   OH239237   2.884   1.412  12.970 -0.3302  0.2336  0.8340
 5941TIP3    H139238   2.792   1.397  12.948 -0.2686  0.6799  0.2875
 5941TIP3    H239239   2.926   1.328  12.953 -0.6047  0.0667  0.9557
 5942TIP3   OH239240   0.540   1.064   6.735  0.0424 -0.2641 -0.1634
 5942TIP3    H139241   0.547   0.969   6.747 -1.9129 -0.3923  0.1600
 5942TIP3    H239242   0.605   1.084   6.668  1.5279 -1.5973  0.8395
 5943TIP3   OH239243   0.599   0.424  15.242 -0.1086  0.3719 -0.1764
 5943TIP3    H139244   0.648   0.492  15.196 -2.0679  1.5898 -0.5028
 5943TIP3    H239245   0.641   0.419  15.328 -1.3007  3.6130  0.6848
 5944TIP3   OH239246   5.229   1.400  14.223  0.1161 -0.5331 -0.0936
 5944TIP3    H139247   5.280   1.324  14.251 -0.5919 -1.6126 -1.6378
 5944TIP3    H239248   5.243   1.405  14.129  1.6246  2.3934  0.2193
 5945TIP3   OH239249   4.724   6.366  16.570 -0.4992 -0.7470  0.1996
 5945TIP3    H139250   4.676   6.392  16.491  2.1660 -0.0129 -1.2448
 5945TIP3    H239251   4.798   6.315  16.537  0.4124 -0.7991  2.2487
 5946TIP3   OH239252   3.830   2.904  17.088 -0.0166  0.1086 -0.3248
 5946TIP3    H139253   3.856   2.929  17.177 -0.1384  0.5004 -0.3961
 5946TIP3    H239254   3.907   2.924  17.034 -0.3020  0.8470 -0.4675
 5947TIP3   OH239255   4.776   2.596  13.797 -0.3127 -0.2258 -0.1607
 5947TIP3    H139256   4.737   2.618  13.713  0.6560  2.8875  0.1129
 5947TIP3    H239257   4.717   2.634  13.862  0.5824  0.2013  0.4208
 5948TIP3   OH239258   3.538   0.935  12.271 -0.1495  0.3103 -0.2147
 5948TIP3    H139259   3.582   1.017  12.246  1.9623 -0.9730 -0.8764
 5948TIP3    H239260   3.608   0.882  12.310 -1.5619 -1.0452  0.5275
 5949TIP3   OH239261   4.875   6.027  16.170 -0.3693 -0.1280 -0.5269
 5949TIP3    H139262   4.907   5.938  16.158  0.6839  0.1524  0.0894
 5949TIP3    H239263   4.951   6.075  16.203 -1.5786  0.4397  1.5276
 5950TIP3   OH239264   1.600   3.621   0.516  0.4048  0.1218  0.0351
 5950TIP3    H139265   1.570   3.597   0.428  0.3585 -1.1891  0.4021
 5950TIP3    H239266   1.590   3.716   0.519 -2.4605 -0.1354 -0.3144
 5951TIP3   OH239267   4.363   1.857  15.011  0.5143  0.4684  0.1776
 5951TIP3    H139268   4.282   1.867  15.062  1.0266 -0.9340  1.2978
 5951TIP3    H239269   4.334   1.832  14.924 -0.2960  0.5513  0.4213
 5952TIP3   OH239270   5.925   2.368   5.396 -0.5463 -0.3030  0.3328
 5952TIP3    H139271   6.009   2.412   5.391  0.4935 -2.3865 -1.5092
 5952TIP3    H239272   5.933   2.306   5.469 -1.1014  0.6775  1.2451
 5953TIP3   OH239273   0.182   2.144  16.361 -0.2220 -0.0498 -0.0356
 5953TIP3    H139274   0.242   2.212  16.390 -0.7332  1.5194 -2.4528
 5953TIP3    H239275   0.238   2.068  16.346  1.3521  1.5653 -2.8467
 5954TIP3   OH239276   1.753   1.703  10.687  0.2902  0.3366  0.2266
 5954TIP3    H139277   1.734   1.645  10.760  2.3049  1.3116  1.5934
 5954TIP3    H239278   1.675   1.702  10.633  0.2248 -3.4909  0.3125
 5955TIP3   OH239279   4.484   2.938  15.494  0.1441  0.4033 -0.4044
 5955TIP3    H139280   4.428   3.007  15.458 -0.0806  0.4134 -0.0463
 5955TIP3    H239281   4.488   2.871  15.426  0.3719  0.7792 -0.7585
 5956TIP3   OH239282   3.470   4.984   4.439  0.2370 -0.2422 -0.2933
 5956TIP3    H139283   3.463   4.933   4.358  0.2231  0.3947 -0.6954
 5956TIP3    H239284   3.474   4.918   4.508  0.3372 -0.7933 -0.8179
 5957TIP3   OH239285   4.052   5.737  14.563 -0.0309 -0.0492 -0.1604
 5957TIP3    H139286   4.058   5.770  14.474 -0.2505  0.8787  0.1663
 5957TIP3    H239287   4.141   5.747  14.598  0.0359 -0.3355 -0.2463
 5958TIP3   OH239288   6.710   2.806  13.373  0.1649 -0.3077  0.8603
 5958TIP3    H139289   6.778   2.763  13.425  2.4723 -1.4018 -2.8950
 5958TIP3    H239290   6.692   2.746  13.302 -1.2295  2.1347 -0.9285
 5959TIP3   OH239291   3.905   1.056   4.788  0.2876  0.2419  0.2354
 5959TIP3    H139292   3.991   1.093   4.805  0.7437 -0.0596 -1.2763
 5959TIP3    H239293   3.894   0.988   4.854  1.5434 -0.2267 -0.0139
 5960TIP3   OH239294   2.051   2.346   4.886  0.4603 -0.3618 -0.4131
 5960TIP3    H139295   2.049   2.404   4.963 -0.3726 -0.3283 -0.4501
 5960TIP3    H239296   2.001   2.269   4.913  0.1673 -0.3528 -0.9155
 5961TIP3   OH239297   2.231   4.066   4.870  0.3472 -0.2466 -0.2971
 5961TIP3    H139298   2.258   4.111   4.950  1.1000 -0.8650 -0.2026
 5961TIP3    H239299   2.310   4.064   4.816 -0.3169  0.7524 -1.3389
 5962TIP3   OH239300   5.482   0.905   5.503 -0.1338  0.5363 -0.2523
 5962TIP3    H139301   5.415   0.861   5.554  0.2531 -0.2407 -0.4008
 5962TIP3    H239302   5.436   0.975   5.457 -0.7173  0.4124  0.1477
 5963TIP3   OH239303   1.993   3.563  13.574  0.0658 -0.1505  0.1939
 5963TIP3    H139304   1.954   3.635  13.524  1.5978  0.5302 -0.0484
 5963TIP3    H239305   1.983   3.486  13.517 -1.3334 -0.0884  0.3430
 5964TIP3   OH239306   4.571   0.679   2.230  0.0239 -0.6659  0.3105
 5964TIP3    H139307   4.638   0.718   2.173  0.2097 -2.5816 -0.8318
 5964TIP3    H239308   4.620   0.649   2.306 -0.1169  1.2568  1.1894
 5965TIP3   OH239309   4.004   3.791   6.384  0.0605  0.1483 -0.2190
 5965TIP3    H139310   3.931   3.732   6.404 -0.8691  0.8821 -1.3298
 5965TIP3    H239311   3.999   3.802   6.289 -0.5780  3.0035  0.1070
 5966TIP3   OH239312   3.186   0.238   0.510 -0.0334 -0.3464 -0.3569
 5966TIP3    H139313   3.192   0.152   0.470 -0.2079 -0.9566  0.8823
 5966TIP3    H239314   3.095   0.265   0.496 -0.5449 -1.2789  1.0341
 5967TIP3   OH239315   6.260   4.364  11.895 -0.0226  0.0918 -0.4166
 5967TIP3    H139316   6.184   4.348  11.951 -1.6777  0.3121 -2.5494
 5967TIP3    H239317   6.335   4.345  11.951 -1.5794  1.5123  2.2557
 5968TIP3   OH239318   2.562   3.176   6.105 -0.4322 -0.3868 -0.1598
 5968TIP3    H139319   2.574   3.214   6.018 -0.7596 -1.0573 -0.5067
 5968TIP3    H239320   2.550   3.251   6.163 -0.7073  0.0479 -0.7765
 5969TIP3   OH239321   3.108   5.717  14.080 -0.1586  0.0645 -0.3548
 5969TIP3    H139322   3.038   5.782  14.072 -0.4697 -0.1430  0.6235
 5969TIP3    H239323   3.067   5.634  14.057 -0.1577 -0.0140 -0.0721
 5970TIP3   OH239324   2.691   1.220  14.088  0.5547  0.0557 -0.2095
 5970TIP3    H139325   2.725   1.138  14.051 -4.2056 -1.7484 -0.9620
 5970TIP3    H239326   2.631   1.253  14.022 -1.5900  1.3312  2.2936
 5971TIP3   OH239327   2.095   4.431  10.691  0.0186  0.0473  0.0913
 5971TIP3    H139328   2.148   4.501  10.654  2.0262 -0.8730  1.1448
 5971TIP3    H239329   2.153   4.355  10.692 -1.3667 -1.0214  1.1227
 5972TIP3   OH239330   1.899   2.970   1.261 -0.0379  0.1823  0.1183
 5972TIP3    H139331   1.956   2.968   1.184 -0.2372  1.2607 -0.0698
 5972TIP3    H239332   1.842   2.894   1.251 -0.3131  0.5196 -0.9873
 5973TIP3   OH239333   4.110   3.886  11.055  0.0003 -0.5727  0.1289
 5973TIP3    H139334   4.090   3.873  10.962 -0.3519 -0.1230  0.1380
 5973TIP3    H239335   4.194   3.932  11.055 -0.0998 -0.3873  0.0238
 5974TIP3   OH239336   2.466   0.522  14.465 -0.0332  0.0980  0.0796
 5974TIP3    H139337   2.528   0.502  14.535  0.4624 -1.5612 -0.8076
 5974TIP3    H239338   2.450   0.437  14.422  0.1170  1.1642 -2.1546
 5975TIP3   OH239339   5.403   1.331   2.068 -0.1853 -0.3627 -0.6230
 5975TIP3    H139340   5.324   1.277   2.076  0.5614 -1.5416 -0.9606
 5975TIP3    H239341   5.424   1.329   1.975  0.7452 -0.8173 -0.4153
 5976TIP3   OH239342   5.574   6.000  12.435 -0.0420 -0.0097 -0.1918
 5976TIP3    H139343   5.607   6.089  12.420  0.3166 -0.0557  0.3025
 5976TIP3    H239344   5.653   5.947  12.445 -0.2579 -0.3627 -0.3621
 5977TIP3   OH239345   3.837   4.012  14.795  0.3422  0.3085 -0.1280
 5977TIP3    H139346   3.834   4.065  14.715  2.9574  0.7252  0.0270
 5977TIP3    H239347   3.928   3.982  14.801  0.0637 -0.1009  2.4442
 5978TIP3   OH239348   5.758   2.631  10.940  0.0923  0.3160 -0.0561
 5978TIP3    H139349   5.826   2.683  10.982 -0.1099  1.4619 -1.1049
 5978TIP3    H239350   5.805   2.577  10.876  0.4218 -1.5704  1.7518
 5979TIP3   OH239351   1.120   6.736  15.885  0.1693 -0.5209 -0.4517
 5979TIP3    H139352   1.051   6.803  15.880  0.4155 -0.2281  0.0391
 5979TIP3    H239353   1.150   6.727  15.795  0.4746  0.3910 -0.4492
 5980TIP3   OH239354   0.927   6.506   3.275 -0.3456 -0.0119 -0.4439
 5980TIP3    H139355   0.923   6.411   3.281 -0.7843  0.0331 -0.0177
 5980TIP3    H239356   0.882   6.527   3.193  0.4849 -0.2233 -0.9617
 5981TIP3   OH239357   5.273   3.469   0.313  0.0562  0.0808 -0.4265
 5981TIP3    H139358   5.336   3.541   0.318  0.5831 -0.4361  0.8352
 5981TIP3    H239359   5.304   3.407   0.379 -1.0011 -0.8077 -0.7621
 5982TIP3   OH239360   5.115   4.910   5.948  0.2888  0.1000  0.3478
 5982TIP3    H139361   5.183   4.893   5.882  1.1602  2.2354  0.6596
 5982TIP3    H239362   5.138   4.853   6.021  0.0841 -1.3065 -0.6717
 5983TIP3   OH239363   6.120   6.518  16.137  0.1837  0.6775 -0.1700
 5983TIP3    H139364   6.198   6.542  16.187  1.3819 -3.2148 -0.0095
 5983TIP3    H239365   6.143   6.534  16.046 -0.2620  3.1986  0.1309
 5984TIP3   OH239366   2.727   0.026  16.170 -0.7000  0.3071  0.9001
 5984TIP3    H139367   2.674   0.098  16.136 -0.0223  0.3918 -0.0086
 5984TIP3    H239368   2.784   0.001  16.096  0.6395  0.3352  1.8941
 5985TIP3   OH239369   2.659   5.506  14.283 -0.5055 -0.5955 -0.0949
 5985TIP3    H139370   2.590   5.460  14.236 -1.0176  1.0424 -0.9760
 5985TIP3    H239371   2.690   5.572  14.221  1.7286 -1.1802  0.3511
 5986TIP3   OH239372   4.951   0.668   5.238 -0.0417 -0.3022 -0.2493
 5986TIP3    H139373   4.982   0.755   5.211  0.2125 -1.1556 -2.8527
 5986TIP3    H239374   4.855   0.675   5.232  0.0176 -0.5897 -1.8418
 5987TIP3   OH239375   1.509   2.829  16.497  0.2609  0.1183  0.0556
 5987TIP3    H139376   1.570   2.898  16.472  0.6420  0.4771  1.8506
 5987TIP3    H239377   1.548   2.790  16.576  0.9828 -3.3769 -1.9381
 5988TIP3   OH239378   6.759   0.656  12.901 -0.4661  0.9685 -0.3940
 5988TIP3    H139379   6.780   0.697  12.817 -1.7415  1.2172 -0.5918
 5988TIP3    H239380   6.812   0.577  12.902 -0.1719  1.1434 -1.2749
 5989TIP3   OH239381   5.950   3.273  14.604  0.2359  0.3801 -0.4688
 5989TIP3    H139382   5.960   3.368  14.611 -0.1435  0.4042 -0.2422
 5989TIP3    H239383   5.992   3.239  14.683 -0.2772  0.4024 -0.1862
 5990TIP3   OH239384   4.275   2.841   5.924  0.2093  0.4208  0.3210
 5990TIP3    H139385   4.364   2.855   5.893 -0.0024 -0.3960 -0.6745
 5990TIP3    H239386   4.251   2.922   5.968  1.9449  0.1500  1.8149
 5991TIP3   OH239387   2.545   1.739   0.681  0.6650  0.0293 -0.6831
 5991TIP3    H139388   2.454   1.734   0.651  1.4425  2.6728 -3.6609
 5991TIP3    H239389   2.542   1.797   0.757 -0.0141  0.8759 -1.3464
 5992TIP3   OH239390   6.335   0.754   3.503 -0.1220 -0.0780  0.0129
 5992TIP3    H139391   6.409   0.699   3.478 -0.4522 -1.1521  1.3416
 5992TIP3    H239392   6.369   0.843   3.499  1.5503 -0.6111  1.5726
 5993TIP3   OH239393   5.957   5.316   2.141  0.2851 -0.5493  0.4895
 5993TIP3    H139394   5.965   5.225   2.171  2.4744 -0.6090 -0.2282
 5993TIP3    H239395   5.976   5.369   2.218 -0.5582 -0.6920  0.8007
 5994TIP3   OH239396   2.243   6.467   2.999  0.9176  0.7283  0.3107
 5994TIP3    H139397   2.240   6.411   2.922 -0.4898  0.0307  0.8402
 5994TIP3    H239398   2.179   6.428   3.059  1.5443  1.6049  1.5873
 5995TIP3   OH239399   1.762   0.659   2.698  0.0752  0.2671  0.0640
 5995TIP3    H139400   1.780   0.685   2.788  0.7419 -0.3333  0.1116
 5995TIP3    H239401   1.786   0.735   2.645 -1.2285  0.9702  0.4631
 5996TIP3   OH239402   6.574   2.174  12.899 -0.0441  0.2236  0.1302
 5996TIP3    H139403   6.529   2.259  12.899 -0.2462  0.2114 -3.6836
 5996TIP3    H239404   6.656   2.191  12.853  1.8526 -0.8017  2.9796
 5997TIP3   OH239405   5.149   0.007   5.748  0.3844  0.3999 -0.0388
 5997TIP3    H139406   5.155   0.099   5.725 -2.5592  0.2449 -1.6629
 5997TIP3    H239407   5.193  -0.039   5.676 -1.0654  0.3867 -0.9329
 5998TIP3   OH239408   6.231   4.474   5.240  0.0605 -0.3079  0.0309
 5998TIP3    H139409   6.190   4.442   5.160 -1.7939  1.0748  0.3733
 5998TIP3    H239410   6.297   4.537   5.210 -0.2391 -0.2153 -0.4369
 5999TIP3   OH239411   1.936   3.647  16.271 -0.2039 -0.0480 -0.7604
 5999TIP3    H139412   2.023   3.662  16.233 -0.6266 -0.4741 -1.9061
 5999TIP3    H239413   1.955   3.608  16.357  0.7279 -1.0002 -1.3827
 6000TIP3   OH239414   5.334   3.111  15.204 -0.0927  0.4638 -0.1318
 6000TIP3    H139415   5.324   3.168  15.281  1.1501  1.1365 -0.4638
 6000TIP3    H239416   5.428   3.108  15.189 -0.3175  0.0847 -1.4476
 6001TIP3   OH239417   4.717   6.163   6.157 -0.5168 -0.4516 -0.0167
 6001TIP3    H139418   4.773   6.087   6.172 -0.5340 -0.7020 -1.1612
 6001TIP3    H239419   4.630   6.136   6.184 -0.5402 -0.8792 -0.5123
 6002TIP3   OH239420   6.417   0.722  11.791 -0.4604  0.3752  0.3683
 6002TIP3    H139421   6.354   0.661  11.752  0.1153 -1.8892  2.8468
 6002TIP3    H239422   6.468   0.755  11.716 -0.7125 -2.2967 -1.0359
 6003TIP3   OH239423   1.573   4.152   1.536  0.0901  0.2939 -0.0404
 6003TIP3    H139424   1.625   4.166   1.615 -0.2999  0.0463  0.2580
 6003TIP3    H239425   1.489   4.192   1.555 -0.0480  0.1206 -0.2853
 6004TIP3   OH239426   2.030   6.766  11.592 -0.4544  0.0299 -0.2768
 6004TIP3    H139427   1.974   6.844  11.593  1.5574  1.5185  0.9015
 6004TIP3    H239428   2.077   6.772  11.508  2.0064  1.8704  1.1448
 6005TIP3   OH239429   4.991   4.312  14.343 -0.2813 -0.7100  0.5132
 6005TIP3    H139430   4.988   4.407  14.357 -2.3777 -0.6139 -0.3462
 6005TIP3    H239431   5.076   4.285  14.377  0.9585  1.6986 -0.5477
 6006TIP3   OH239432   6.540   0.123  17.068  0.3527  0.3683 -0.1615
 6006TIP3    H139433   6.597   0.058  17.027  0.9313  0.6205  0.2348
 6006TIP3    H239434   6.584   0.145  17.150  0.2920  1.4550 -0.4210
 6007TIP3   OH239435   3.294   2.539   5.731 -0.0433 -0.0518 -0.2664
 6007TIP3    H139436   3.285   2.602   5.660 -1.4103  3.0108  2.5235
 6007TIP3    H239437   3.386   2.512   5.728  0.8264  2.8273 -0.9576
 6008TIP3   OH239438   0.870   3.923   0.356  0.9824  0.0455 -0.0578
 6008TIP3    H139439   0.839   3.897   0.443  0.5840 -0.6166 -0.3864
 6008TIP3    H239440   0.906   3.842   0.319 -3.2504 -0.9363 -2.3802
 6009TIP3   OH239441   3.235   5.774   2.112  0.0752  0.6946 -0.1702
 6009TIP3    H139442   3.249   5.859   2.153  1.6462 -0.4793  1.8075
 6009TIP3    H239443   3.170   5.730   2.167  1.0357 -0.2799  0.2150
 6010TIP3   OH239444   0.199   1.900  17.229  0.3109 -0.4901  0.3637
 6010TIP3    H139445   0.195   1.829  17.294  0.9274 -2.9855 -2.2316
 6010TIP3    H239446   0.128   1.881  17.168 -0.4346  1.9764  0.4281
 6011TIP3   OH239447   1.872   5.830  12.111  0.6079 -0.1116  0.1228
 6011TIP3    H139448   1.787   5.808  12.150  1.2820 -0.8917  1.1518
 6011TIP3    H239449   1.873   5.926  12.111  0.4391 -0.0867  1.7031
 6012TIP3   OH239450   3.300   3.230  12.677  0.1691  0.5546  0.0064
 6012TIP3    H139451   3.325   3.224  12.769  1.2649  2.1332 -0.1620
 6012TIP3    H239452   3.352   3.163  12.633 -2.7827 -2.5012  0.9602
 6013TIP3   OH239453   0.170   6.028  12.237 -0.2193  0.2748 -0.1792
 6013TIP3    H139454   0.232   5.977  12.185 -0.6804  0.2609 -0.7171
 6013TIP3    H239455   0.091   5.975  12.239 -0.3800  0.5219  0.0904
 6014TIP3   OH239456   2.119   2.113   0.725 -0.3499 -0.4315  0.4119
 6014TIP3    H139457   2.126   2.030   0.771 -0.4390  0.5301  2.2249
 6014TIP3    H239458   2.209   2.141   0.711 -0.3156  0.0804  1.5605
 6015TIP3   OH239459   6.349   1.352  14.062  0.1225 -0.1895  0.1405
 6015TIP3    H139460   6.352   1.440  14.099 -1.4490 -0.2001  0.3416
 6015TIP3    H239461   6.302   1.362  13.979  0.1825 -0.7876  0.0311
 6016TIP3   OH239462   1.163   4.978  15.270  0.0439  0.1146  0.0742
 6016TIP3    H139463   1.189   5.034  15.197 -1.6819 -0.5120 -1.0487
 6016TIP3    H239464   1.151   5.038  15.343  1.1200  0.8304 -0.3190
 6017TIP3   OH239465   5.947   4.202   4.372 -0.1216 -0.0332  0.1353
 6017TIP3    H139466   6.000   4.282   4.368 -0.2252  0.0713  0.7730
 6017TIP3    H239467   5.903   4.207   4.457  1.2084 -1.6216  0.9428
 6018TIP3   OH239468   5.913   3.380  16.454  0.1182  0.2686 -0.6875
 6018TIP3    H139469   6.005   3.409  16.461 -0.9418  3.7845 -0.1422
 6018TIP3    H239470   5.888   3.404  16.365 -0.0562 -1.4645 -1.1163
 6019TIP3   OH239471   3.461   4.748  11.981 -0.2126  0.3589  0.0444
 6019TIP3    H139472   3.533   4.796  11.941 -0.2156 -1.0905 -1.7474
 6019TIP3    H239473   3.388   4.809  11.981  0.1444  0.7837 -1.0158
 6020TIP3   OH239474   1.588   4.721  12.001  0.4961 -0.1986  0.4994
 6020TIP3    H139475   1.664   4.663  12.005  1.1807  0.6043 -0.4814
 6020TIP3    H239476   1.513   4.664  12.017  1.3739 -0.8147  2.5409
 6021TIP3   OH239477   2.833   3.670  16.751 -0.4099  0.4193 -0.4064
 6021TIP3    H139478   2.825   3.712  16.837 -0.9454 -1.9947  0.7659
 6021TIP3    H239479   2.914   3.706  16.714  0.3761  0.7297  1.5666
 6022TIP3   OH239480   1.843   0.873  11.935  0.0766  0.1661  0.3425
 6022TIP3    H139481   1.840   0.845  11.843 -0.3401 -1.0511  0.7217
 6022TIP3    H239482   1.752   0.871  11.964  0.0137  2.0284  0.3622
 6023TIP3   OH239483   5.013   3.645   2.393 -0.4010  0.2565 -0.0951
 6023TIP3    H139484   4.999   3.579   2.324 -1.4409  1.2345 -0.8405
 6023TIP3    H239485   4.941   3.708   2.381  1.3607  2.2805 -0.2927
 6024TIP3   OH239486   2.934   2.245  16.460  0.1262  0.1622  0.4078
 6024TIP3    H139487   2.933   2.248  16.556 -0.8101  2.5009  0.3493
 6024TIP3    H239488   2.936   2.152  16.439  1.2802 -0.3580  2.7087
 6025TIP3   OH239489   4.987   2.669  11.070 -0.4379 -0.7658 -0.1014
 6025TIP3    H139490   5.007   2.598  11.130 -2.8895 -0.5191  1.0529
 6025TIP3    H239491   4.906   2.643  11.027 -1.3669  1.3002  0.3212
 6026TIP3   OH239492   1.271   4.895   3.155  0.3165  0.1854  0.2009
 6026TIP3    H139493   1.353   4.940   3.172  0.2942 -0.2359  1.4340
 6026TIP3    H239494   1.220   4.956   3.101  1.5065  0.3655 -0.7384
 6027TIP3   OH239495   2.860   2.367  11.568 -0.4821  0.4093 -0.0263
 6027TIP3    H139496   2.938   2.391  11.517 -0.0502 -0.5559  0.1754
 6027TIP3    H239497   2.799   2.439  11.552 -0.7910 -0.3998 -2.8205
 6028TIP3   OH239498   3.154   1.147   6.053  0.4120  0.1177  0.4762
 6028TIP3    H139499   3.085   1.090   6.019  1.6354 -0.5760 -0.9320
 6028TIP3    H239500   3.165   1.121   6.144  0.1656 -1.1211  0.1587
 6029TIP3   OH239501   6.601   2.199   2.635 -0.2965  0.1972  0.1619
 6029TIP3    H139502   6.510   2.214   2.661 -0.2187  0.7605  0.1160
 6029TIP3    H239503   6.642   2.160   2.712 -1.2000 -2.5166 -0.6424
 6030TIP3   OH239504   3.446   2.301  14.407  0.1329  0.4498  0.4328
 6030TIP3    H139505   3.528   2.286  14.360 -0.9036 -2.8903 -0.4545
 6030TIP3    H239506   3.435   2.396  14.406  3.3651  0.8783 -0.4588
 6031TIP3   OH239507   1.409   1.904  12.975 -0.3459  0.5912 -0.2560
 6031TIP3    H139508   1.439   1.846  12.905 -1.1930  1.2042 -1.1334
 6031TIP3    H239509   1.315   1.915  12.959 -0.3769  1.4380  0.4657
 6032TIP3   OH239510   4.601   3.763  17.185  0.7600  0.3706  0.1237
 6032TIP3    H139511   4.603   3.792  17.094  0.2680 -0.5875 -0.1971
 6032TIP3    H239512   4.693   3.747  17.207  0.8576  0.3435 -0.2894
 6033TIP3   OH239513   0.919   1.399   2.764 -0.5969  0.0525 -0.8450
 6033TIP3    H139514   0.875   1.469   2.716 -1.2572 -1.1799 -2.0696
 6033TIP3    H239515   0.891   1.318   2.721 -0.1589 -1.0051  0.7827
 6034TIP3   OH239516   5.025   6.112  10.842  0.0103  0.2887 -0.0728
 6034TIP3    H139517   5.048   6.189  10.895  2.7543 -0.8423  0.4367
 6034TIP3    H239518   4.943   6.081  10.881  0.5341  1.1031  1.7501
 6035TIP3   OH239519   4.208   2.996  14.728 -0.9683 -0.0403 -0.2609
 6035TIP3    H139520   4.158   3.077  14.732  1.2353  1.4872 -2.0885
 6035TIP3    H239521   4.261   2.998  14.808 -1.3248  0.0668 -0.0277
 6036TIP3   OH239522   2.731   6.039  14.971  0.5499  0.7749  0.1528
 6036TIP3    H139523   2.681   6.121  14.978 -1.5355 -0.5455  1.1964
 6036TIP3    H239524   2.706   6.003  14.886  0.8932  0.8688  0.0144
 6037TIP3   OH239525   1.970   3.079  12.029 -0.6948  0.5868  0.2238
 6037TIP3    H139526   1.942   3.030  12.106  0.6768 -1.4445 -0.5065
 6037TIP3    H239527   1.936   3.029  11.955  2.1421 -0.2673 -0.5861
 6038TIP3   OH239528   0.979   2.749  11.584 -0.0047  0.2701 -0.0774
 6038TIP3    H139529   0.976   2.844  11.571 -1.0428 -0.0488 -2.3834
 6038TIP3    H239530   0.938   2.713  11.505  1.7851 -2.1440  0.0518
 6039TIP3   OH239531   0.030   4.904   2.198 -0.0386 -0.0354  1.0164
 6039TIP3    H139532  -0.021   4.947   2.267 -1.1429  1.7180 -0.8093
 6039TIP3    H239533   0.099   4.967   2.177 -0.3443 -0.0967 -0.1836
 6040TIP3   OH239534   6.422   2.191   0.042 -0.2282 -0.1694  0.4431
 6040TIP3    H139535   6.437   2.101   0.071 -1.2655 -0.1064  1.2239
 6040TIP3    H239536   6.491   2.242   0.083  0.5018 -0.6331 -0.1837
 6041TIP3   OH239537   6.027   4.215  10.889 -0.9217 -0.1322 -0.2943
 6041TIP3    H139538   6.053   4.292  10.940  2.4286 -2.2397  1.3265
 6041TIP3    H239539   6.030   4.244  10.798  0.1188  1.6850  0.2996
 6042TIP3   OH239540   0.122   5.188   0.093  1.0217  0.0097  0.3480
 6042TIP3    H139541   0.120   5.263   0.152 -0.6919  0.8289 -0.7120
 6042TIP3    H239542   0.177   5.216   0.019  1.7085 -0.3747  0.7063
 6043TIP3   OH239543   4.690   4.444   3.919  0.9079  0.5043  0.2506
 6043TIP3    H139544   4.647   4.528   3.905 -0.3370 -0.1972 -0.1708
 6043TIP3    H239545   4.627   4.379   3.888  2.9305 -0.4776 -1.9243
 6044TIP3   OH239546   2.941   0.043   0.588  0.0375  0.6289  0.7238
 6044TIP3    H139547   2.936   0.127   0.541 -0.1119  0.3199  0.1891
 6044TIP3    H239548   2.981   0.066   0.672  0.6224  1.1281  0.3154
 6045TIP3   OH239549   5.238   6.291   3.166 -0.0045  0.1823 -0.0116
 6045TIP3    H139550   5.271   6.367   3.118 -3.1646  2.2768  0.9301
 6045TIP3    H239551   5.145   6.312   3.182 -0.4501 -3.0172  1.9687
 6046TIP3   OH239552   5.115   3.890  15.953 -0.1865  0.2558 -0.6293
 6046TIP3    H139553   5.044   3.841  15.996  0.6320 -1.7485 -1.4899
 6046TIP3    H239554   5.084   3.902  15.863 -0.6716  1.9541 -0.2559
 6047TIP3   OH239555   3.971   6.248   3.765 -0.1966  0.0246 -0.2778
 6047TIP3    H139556   3.894   6.248   3.709 -1.1184 -3.8361  0.8318
 6047TIP3    H239557   3.965   6.166   3.814  3.6902  0.4728  1.1309
 6048TIP3   OH239558   2.678   4.828  12.765 -0.1610 -0.4305  0.2908
 6048TIP3    H139559   2.749   4.777  12.805 -0.0234 -0.1569  0.3957
 6048TIP3    H239560   2.711   4.853  12.679 -0.1775 -0.4076  0.2915
 6049TIP3   OH239561   2.605   1.886  12.567 -0.3404 -0.1098  0.9749
 6049TIP3    H139562   2.578   1.924  12.651 -0.3142 -0.0887  0.9737
 6049TIP3    H239563   2.622   1.794  12.588 -0.5477 -0.1550  0.9467
 6050TIP3   OH239564   2.000   5.133   3.191 -0.8335 -0.2260  0.2074
 6050TIP3    H139565   2.088   5.171   3.197 -0.4624 -1.0212 -0.2525
 6050TIP3    H239566   1.969   5.158   3.105 -0.5888 -0.9596 -0.0970
 6051TIP3   OH239567   6.361   5.744   2.970  0.2661  0.6715  0.1360
 6051TIP3    H139568   6.439   5.697   2.942 -0.2719  0.9729 -1.9025
 6051TIP3    H239569   6.383   5.836   2.959 -0.2391  0.7725 -0.0441
 6052TIP3   OH239570   0.317   0.837  16.094  0.0520  0.4829 -0.0359
 6052TIP3    H139571   0.387   0.891  16.132  0.8952  0.2324 -1.2037
 6052TIP3    H239572   0.362   0.762  16.056 -0.7174  0.9500 -1.9147
 6053TIP3   OH239573   1.381   6.194  13.434  0.6964 -0.0013  0.0685
 6053TIP3    H139574   1.462   6.225  13.476  0.3350  0.6884  0.2650
 6053TIP3    H239575   1.352   6.268  13.381  0.4910 -0.4478 -0.4438
 6054TIP3   OH239576   5.529   1.273   5.128 -0.2257  0.5687  0.0714
 6054TIP3    H139577   5.525   1.369   5.128 -1.2667  0.5432 -1.2172
 6054TIP3    H239578   5.437   1.246   5.118  0.2529 -0.5422 -1.3309
 6055TIP3   OH239579   5.962   2.622   6.365 -0.5286 -0.4160  0.0577
 6055TIP3    H139580   5.899   2.684   6.402 -0.3107  0.3152 -0.7969
 6055TIP3    H239581   6.046   2.667   6.369 -0.7277  0.2594 -2.6990
 6056TIP3   OH239582   2.701   0.457   4.425  0.5753 -0.6365  0.3130
 6056TIP3    H139583   2.608   0.471   4.411  0.6966  0.9878  0.9589
 6056TIP3    H239584   2.706   0.413   4.511  0.4751  0.7625  1.0485
 6057TIP3   OH239585   2.262   4.381   1.039 -0.1625 -0.1660 -0.5328
 6057TIP3    H139586   2.314   4.381   1.119 -3.1852  0.8997  1.5472
 6057TIP3    H239587   2.299   4.451   0.986  1.8151 -0.8164 -0.0616
 6058TIP3   OH239588   2.571   1.083  11.876  0.3238  0.7089 -0.4677
 6058TIP3    H139589   2.599   1.131  11.798  0.5828  2.5441  0.7358
 6058TIP3    H239590   2.625   1.003  11.875  0.6345  0.9150 -1.9129
 6059TIP3   OH239591   2.245   2.684   4.894  0.3067 -0.0267 -0.1036
 6059TIP3    H139592   2.151   2.696   4.905  0.4010  0.2622  0.4026
 6059TIP3    H239593   2.265   2.605   4.945  0.1839 -0.6269 -0.9773
 6060TIP3   OH239594   2.678   6.510   6.726  0.0339  0.1470  0.6104
 6060TIP3    H139595   2.768   6.536   6.706  0.0476 -1.8373 -2.2411
 6060TIP3    H239596   2.681   6.481   6.817  1.7422  2.2070  1.2700
 6061TIP3   OH239597   0.972   2.109  13.070  0.1093  0.3439 -0.5313
 6061TIP3    H139598   0.922   2.136  12.994  0.4038  1.1966 -0.4290
 6061TIP3    H239599   0.910   2.110  13.142 -0.1546 -0.4029 -0.7438
 6062TIP3   OH239600   2.432   0.486  14.091  1.1648 -0.1406 -0.4718
 6062TIP3    H139601   2.359   0.534  14.053  1.7365 -0.8658 -2.5464
 6062TIP3    H239602   2.483   0.553  14.137  0.3963  0.7376 -0.8822
 6063TIP3   OH239603   3.148   0.608   4.241  0.0501  0.0790  0.4864
 6063TIP3    H139604   3.222   0.666   4.262  0.2057  0.2208 -0.4401
 6063TIP3    H239605   3.090   0.615   4.317  0.1105  1.3882  0.4298
 6064TIP3   OH239606   1.777   1.550  14.025  0.2556  0.1812  0.2303
 6064TIP3    H139607   1.792   1.622  13.965 -2.0951 -0.2965 -0.9945
 6064TIP3    H239608   1.766   1.592  14.111 -4.8666  1.7939 -0.9982
 6065TIP3   OH239609   3.936   3.745   5.245  0.3739  0.1724 -0.1423
 6065TIP3    H139610   4.021   3.754   5.202  0.0162  0.5700 -0.7823
 6065TIP3    H239611   3.873   3.755   5.174 -0.1807 -1.2848  0.1359
 6066TIP3   OH239612   2.832   5.763  15.621 -0.3642  0.5862  0.2889
 6066TIP3    H139613   2.881   5.747  15.701  2.3644  0.1185 -1.4184
 6066TIP3    H239614   2.837   5.857  15.608  0.5443  0.4896 -0.1301
 6067TIP3   OH239615   6.542   5.498   6.648 -0.4849  0.3365 -0.4699
 6067TIP3    H139616   6.493   5.568   6.605  2.0279  0.8638 -2.5588
 6067TIP3    H239617   6.479   5.427   6.658 -2.0403  1.4984 -1.8236
 6068TIP3   OH239618   5.863   3.146   4.752 -0.0877 -0.1400 -0.7105
 6068TIP3    H139619   5.848   3.205   4.678 -2.6921  0.2800  0.0937
 6068TIP3    H239620   5.775   3.117   4.777  0.8779 -1.4163  1.3052
 6069TIP3   OH239621   3.855   5.025  16.155  0.6376  0.8430  0.0248
 6069TIP3    H139622   3.827   5.045  16.244  2.2787  0.3195  0.6862
 6069TIP3    H239623   3.942   5.066  16.148  0.6670  0.5906 -1.2228
 6070TIP3   OH239624   6.220   2.435  13.550  0.1631 -0.0045  0.7400
 6070TIP3    H139625   6.193   2.360  13.604  1.0309  0.6953  2.1679
 6070TIP3    H239626   6.286   2.399  13.491  0.8567 -0.2900  1.6791
 6071TIP3   OH239627   1.506   5.438   3.202 -0.1248  0.3297 -0.1875
 6071TIP3    H139628   1.576   5.387   3.243 -0.9025  0.9638  2.0272
 6071TIP3    H239629   1.502   5.406   3.112  2.4958 -0.2438 -0.1444
 6072TIP3   OH239630   3.436   2.179   2.831 -0.5801  0.0862  0.0092
 6072TIP3    H139631   3.381   2.196   2.754 -1.3145  0.2116  0.5602
 6072TIP3    H239632   3.449   2.265   2.871 -0.6369 -0.0486  0.3228
 6073TIP3   OH239633   4.011   0.893   2.835 -0.5810 -0.3196  0.7667
 6073TIP3    H139634   4.028   0.809   2.792  0.6142  0.4690 -0.3249
 6073TIP3    H239635   4.098   0.927   2.857 -1.0017  1.2014  0.1074
 6074TIP3   OH239636   1.696   5.782   4.988 -0.2797 -0.5033 -0.3865
 6074TIP3    H139637   1.698   5.707   4.928  0.1490 -1.4292  0.7680
 6074TIP3    H239638   1.604   5.787   5.016 -0.3119 -0.5781 -0.4758
 6075TIP3   OH239639   2.914   4.827   1.284  0.3512  0.1487 -0.1144
 6075TIP3    H139640   2.846   4.782   1.335 -0.4472  2.1090  0.5891
 6075TIP3    H239641   2.872   4.906   1.252  1.8320  0.5611 -1.1134
 6076TIP3   OH239642   5.081   6.139   6.293  0.6893 -0.0481  0.4151
 6076TIP3    H139643   5.021   6.112   6.363 -2.3318 -1.0682 -2.4475
 6076TIP3    H239644   5.147   6.070   6.290 -0.7552 -1.4535  0.4560
 6077TIP3   OH239645   6.095   3.569  13.189 -0.4775 -0.0825 -0.0415
 6077TIP3    H139646   6.178   3.596  13.149 -0.5290  0.3587  0.1422
 6077TIP3    H239647   6.118   3.548  13.280 -0.8501  1.6562  0.4792
 6078TIP3   OH239648   1.915   3.915  13.227  0.1894  0.1616 -0.7978
 6078TIP3    H139649   1.936   4.001  13.262 -0.7073  0.2548 -0.4761
 6078TIP3    H239650   1.999   3.881  13.195  0.6530  0.8968 -0.3798
 6079TIP3   OH239651   1.755   3.429  15.909  0.4453  0.1835  0.1184
 6079TIP3    H139652   1.792   3.517  15.896 -1.5744  1.0780  0.2178
 6079TIP3    H239653   1.790   3.377  15.837 -0.1423  1.6646 -1.2608
 6080TIP3   OH239654   1.789   3.737  12.258 -0.0475 -0.0060  0.2758
 6080TIP3    H139655   1.792   3.816  12.204  1.1563 -0.8918 -0.9520
 6080TIP3    H239656   1.872   3.737  12.305  0.2199 -0.8618 -0.1865
 6081TIP3   OH239657   3.369   0.021   0.105 -0.1876 -0.1494 -0.4657
 6081TIP3    H139658   3.463   0.003   0.113 -0.3814 -0.7042  0.6610
 6081TIP3    H239659   3.365   0.114   0.082  0.6488 -0.1718 -0.7307
 6082TIP3   OH239660   5.970   6.453  14.032 -0.4130  0.2989 -0.7934
 6082TIP3    H139661   5.895   6.420  13.983 -0.0707  0.3589 -1.3601
 6082TIP3    H239662   6.020   6.504  13.968  0.4009 -0.2020 -0.5611
 6083TIP3   OH239663   1.578   6.625   2.477  0.1752  0.1854  0.5600
 6083TIP3    H139664   1.518   6.676   2.532 -0.1515 -0.7072  1.0425
 6083TIP3    H239665   1.521   6.582   2.413  0.3572 -0.2932  0.7228
 6084TIP3   OH239666   1.710   5.806  10.631  0.0988  0.1663 -0.4242
 6084TIP3    H139667   1.759   5.886  10.612  1.2708  0.1113  2.1729
 6084TIP3    H239668   1.655   5.793  10.554  1.5209  2.2348 -1.8481
 6085TIP3   OH239669   0.301   2.034   4.228 -0.1191 -0.7597 -0.1615
 6085TIP3    H139670   0.385   2.065   4.260 -1.7593  1.8211  1.8313
 6085TIP3    H239671   0.279   1.960   4.285  0.3247 -0.7971 -0.0357
 6086TIP3   OH239672   5.581   6.260   2.427  0.2146  0.0135 -0.9598
 6086TIP3    H139673   5.586   6.260   2.522  1.1164  1.5242 -0.9953
 6086TIP3    H239674   5.492   6.231   2.407 -0.1281  0.1632  0.3499
 6087TIP3   OH239675   1.040   1.838   1.997  0.0992  0.2866  0.4084
 6087TIP3    H139676   1.047   1.932   1.979  1.2342  0.4338  1.5421
 6087TIP3    H239677   0.960   1.829   2.048  0.3556  0.7347  0.8916
 6088TIP3   OH239678   0.074   5.755   6.441  0.2060  0.7833 -0.3643
 6088TIP3    H139679   0.123   5.758   6.523 -0.8104 -0.6565  0.3158
 6088TIP3    H239680   0.006   5.821   6.451  1.1196  1.8228 -0.7689
 6089TIP3   OH239681   6.140   2.093   2.840 -0.0386  0.4449  0.4964
 6089TIP3    H139682   6.152   2.110   2.934 -0.3562 -0.2836  0.6744
 6089TIP3    H239683   6.224   2.055   2.812  1.1332  3.4081 -0.1811
 6090TIP3   OH239684   4.382   1.813  14.706 -0.2606  0.0841  0.0075
 6090TIP3    H139685   4.392   1.859  14.623 -1.6186 -1.6295 -1.1499
 6090TIP3    H239686   4.298   1.844  14.741  0.5468  1.1747  0.9934
 6091TIP3   OH239687   1.201   0.801   2.025  0.0373 -0.3850 -0.7151
 6091TIP3    H139688   1.217   0.872   2.087  0.0182 -0.5839 -0.4822
 6091TIP3    H239689   1.289   0.775   1.996  0.1344 -1.3287  0.3973
 6092TIP3   OH239690   0.615   5.809  16.196 -0.8204  0.1382 -0.3040
 6092TIP3    H139691   0.533   5.858  16.193 -0.2511  1.0776 -0.7030
 6092TIP3    H239692   0.612   5.753  16.118 -1.3106 -0.2129 -0.0397
 6093TIP3   OH239693   5.855   3.683   6.442  0.6990  0.3459  0.4999
 6093TIP3    H139694   5.812   3.671   6.527 -1.4339  1.5904 -0.3470
 6093TIP3    H239695   5.838   3.601   6.395  0.1435  0.4199  0.5630
 6094TIP3   OH239696   5.061   4.205  11.278  0.1572 -0.3669  0.4123
 6094TIP3    H139697   5.097   4.157  11.203  0.0606  1.8127 -1.0642
 6094TIP3    H239698   5.134   4.257  11.310 -0.3859  0.3990  0.4224
 6095TIP3   OH239699   2.311   5.425   0.036  0.1553 -0.4613 -0.2495
 6095TIP3    H139700   2.338   5.391  -0.048  2.3768 -1.6169  0.9002
 6095TIP3    H239701   2.231   5.475   0.017  1.4319  0.5652 -3.2601
 6096TIP3   OH239702   1.210   2.268  14.716 -0.0953  0.5585 -0.3401
 6096TIP3    H139703   1.136   2.212  14.741  0.4190 -0.5468 -1.2415
 6096TIP3    H239704   1.231   2.317  14.795  0.8616 -2.1391  1.1586
 6097TIP3   OH239705   0.846   3.403   2.520 -0.2449  0.1286  0.5538
 6097TIP3    H139706   0.855   3.498   2.519 -1.1767  0.2175 -0.3508
 6097TIP3    H239707   0.773   3.386   2.580  0.2776 -0.0515  1.1418
 6098TIP3   OH239708   4.905   0.748  10.676  0.3555  0.3827 -0.3093
 6098TIP3    H139709   4.946   0.672  10.717  1.6229  2.2635  1.9967
 6098TIP3    H239710   4.814   0.746  10.709  0.9860  1.0905  1.5436
 6099TIP3   OH239711   4.215   0.173  12.318  0.6774  0.2970 -0.6622
 6099TIP3    H139712   4.246   0.165  12.228  0.6721  0.0654 -0.6432
 6099TIP3    H239713   4.129   0.130  12.318  1.5463 -1.4926 -0.0875
 6100TIP3   OH239714   3.009   0.992  15.460  0.4722 -0.3613 -0.0100
 6100TIP3    H139715   3.044   0.963  15.544  1.7667  0.1063 -0.3785
 6100TIP3    H239716   3.085   1.023  15.411 -0.6055  1.9629 -0.2938
 6101TIP3   OH239717   2.219   1.139  17.221  0.1645 -0.0892  0.6810
 6101TIP3    H139718   2.245   1.047  17.227 -0.7652 -0.3751  0.4095
 6101TIP3    H239719   2.128   1.141  17.251  0.0782  0.6911  0.3979
 6102TIP3   OH239720   3.886   2.168   6.304  0.7743  0.0583  0.0549
 6102TIP3    H139721   3.929   2.181   6.389 -1.8596  2.5752  1.0878
 6102TIP3    H239722   3.937   2.221   6.243  0.7065  0.9386  0.7542
 6103TIP3   OH239723   5.091   3.268   0.806 -0.6131 -0.1008 -0.0761
 6103TIP3    H139724   5.058   3.310   0.885  0.2073 -0.6795  0.5751
 6103TIP3    H239725   5.061   3.325   0.734  1.2169  2.0783  0.8309
 6104TIP3   OH239726   2.807   2.282   0.025  0.0877  0.6435 -0.1400
 6104TIP3    H139727   2.893   2.266  -0.015  0.8137  2.1841  0.7576
 6104TIP3    H239728   2.796   2.209   0.086  0.3174 -0.0972 -0.9774
 6105TIP3   OH239729   6.406   1.774   0.833  0.1886 -0.3855 -0.6714
 6105TIP3    H139730   6.322   1.729   0.829  0.2156 -0.5151  0.0630
 6105TIP3    H239731   6.444   1.746   0.916  1.3732 -1.0724 -1.4327
 6106TIP3   OH239732   4.731   0.394  16.557  0.0581 -0.0839 -0.1968
 6106TIP3    H139733   4.751   0.441  16.638 -0.4411  0.8197 -0.5848
 6106TIP3    H239734   4.815   0.387  16.512 -0.2722  2.8274 -1.3771
 6107TIP3   OH239735   5.484   1.306   1.811  0.7328 -0.5768  0.1333
 6107TIP3    H139736   5.473   1.338   1.722 -1.6230 -0.7448  0.3126
 6107TIP3    H239737   5.564   1.347   1.843 -0.0659  1.9499 -1.0033
 6108TIP3   OH239738   1.733   4.746  16.475 -0.4693  0.0659 -0.4930
 6108TIP3    H139739   1.777   4.719  16.555 -2.0166  0.6329  0.5606
 6108TIP3    H239740   1.801   4.741  16.408  0.8658 -0.3050  0.8595
 6109TIP3   OH239741   4.360   6.771  11.171  0.6851  0.2105 -0.2730
 6109TIP3    H139742   4.379   6.734  11.085 -0.5555 -1.5709  0.1769
 6109TIP3    H239743   4.340   6.863  11.155  0.0785 -0.2016 -1.9258
 6110TIP3   OH239744   6.466   6.454   5.467  0.4255  0.3929  0.3283
 6110TIP3    H139745   6.494   6.448   5.375 -0.0341  0.6193  0.1714
 6110TIP3    H239746   6.449   6.547   5.481  1.2900  0.4660  0.8834
 6111TIP3   OH239747   5.966   4.670   1.931 -0.1385  0.3679  0.5566
 6111TIP3    H139748   5.982   4.579   1.907  1.4467  0.7216  0.2288
 6111TIP3    H239749   5.874   4.685   1.910 -0.1535 -0.8767 -0.2723
 6112TIP3   OH239750   1.546   0.893  11.493 -0.1711  0.0207  0.2069
 6112TIP3    H139751   1.525   0.812  11.539 -0.2292 -0.5967 -0.8771
 6112TIP3    H239752   1.574   0.865  11.406  0.7748  1.1090  0.1385
 6113TIP3   OH239753   5.539   5.871  11.058  0.1929  0.1610  0.1643
 6113TIP3    H139754   5.580   5.838  11.137 -0.9537 -0.1325  0.6446
 6113TIP3    H239755   5.463   5.920  11.089 -0.2364  0.0792 -0.7474
 6114TIP3   OH239756   2.153   0.165  11.798  0.1013 -0.1308 -0.4530
 6114TIP3    H139757   2.212   0.195  11.730 -1.7155  0.8013 -1.6657
 6114TIP3    H239758   2.128   0.076  11.770 -1.0454  0.4441 -1.3118
 6115TIP3   OH239759   0.424   5.160  15.859  0.0599 -0.1828  0.5260
 6115TIP3    H139760   0.338   5.124  15.882 -0.9880  2.0295  0.2892
 6115TIP3    H239761   0.427   5.244  15.905  1.6153  0.2786 -0.3992
 6116TIP3   OH239762   2.011   5.422   5.562  0.2874  0.1052 -0.2001
 6116TIP3    H139763   2.062   5.498   5.591 -3.8404  2.6248  0.7260
 6116TIP3    H239764   1.953   5.403   5.635 -2.8287 -0.2057 -2.6585
 6117TIP3   OH239765   4.641   2.913  10.921 -0.0750  0.2501 -0.3408
 6117TIP3    H139766   4.671   2.928  11.011  0.2670  2.4445 -0.7816
 6117TIP3    H239767   4.692   2.838  10.891 -0.7781 -1.0339  1.5498
 6118TIP3   OH239768   2.287   2.654   3.325  0.1140  0.1583 -0.0729
 6118TIP3    H139769   2.265   2.626   3.414  0.4950  0.0515 -0.0135
 6118TIP3    H239770   2.207   2.697   3.293  0.0120  0.2919  0.3578
 6119TIP3   OH239771   6.231   3.369  11.252 -0.3776  0.5361  0.0247
 6119TIP3    H139772   6.302   3.430  11.234 -0.8249  1.1482  0.3256
 6119TIP3    H239773   6.163   3.393  11.189 -0.3573  0.0076 -0.2059
 6120TIP3   OH239774   1.626   6.547   0.280  0.3232 -0.5991 -0.6032
 6120TIP3    H139775   1.599   6.593   0.200  0.6906 -0.6630 -0.7643
 6120TIP3    H239776   1.577   6.590   0.350 -1.1202 -1.4931 -1.0356
 6121TIP3   OH239777   4.041   1.165   3.401  0.2586  0.0734 -1.0793
 6121TIP3    H139778   4.043   1.130   3.313  0.8380  0.5124 -1.2425
 6121TIP3    H239779   3.972   1.231   3.399 -0.1114 -0.3117 -1.0521
 6122TIP3   OH239780   1.399   0.672  13.186 -0.3663  0.0740 -0.5342
 6122TIP3    H139781   1.458   0.601  13.162 -1.5299 -1.8092  1.9622
 6122TIP3    H239782   1.455   0.750  13.189  1.7198 -1.4200  0.4417
 6123TIP3   OH239783   5.131   3.535  11.325 -0.4704 -0.0077  0.6833
 6123TIP3    H139784   5.074   3.490  11.262  1.4102 -0.3926 -0.7976
 6123TIP3    H239785   5.135   3.625  11.293 -0.7499  0.1767  1.1605
 6124TIP3   OH239786   6.606   1.215  16.779 -0.0563  0.6888  0.3607
 6124TIP3    H139787   6.575   1.136  16.735  1.3547  1.6586 -2.5609
 6124TIP3    H239788   6.576   1.207  16.869  0.8941 -3.6100  0.3771
 6125TIP3   OH239789   4.572   6.427  13.787 -0.4725  0.2668 -0.4311
 6125TIP3    H139790   4.517   6.500  13.759 -1.2969  0.2767  1.1111
 6125TIP3    H239791   4.546   6.412  13.878 -0.1888 -1.8174 -0.6633
 6126TIP3   OH239792   5.789   6.035  14.275 -0.9488  0.4478  0.0978
 6126TIP3    H139793   5.780   5.941  14.292  1.3363 -0.1009 -1.4766
 6126TIP3    H239794   5.783   6.042  14.180 -0.8086  1.8745  0.1870
 6127TIP3   OH239795   5.752   0.769  15.295  0.0859 -0.3968 -0.2388
 6127TIP3    H139796   5.839   0.764  15.334  0.7197  1.1028 -1.3874
 6127TIP3    H239797   5.764   0.739  15.205 -0.3479  0.8579 -0.7270
 6128TIP3   OH239798   1.376   2.566  16.598  0.2875  0.1683 -0.4870
 6128TIP3    H139799   1.466   2.544  16.571  1.0828  1.3975  1.0599
 6128TIP3    H239800   1.321   2.532  16.528  2.1812  2.3469 -3.1027
 6129TIP3   OH239801   1.232   4.651  14.610  0.2398 -0.5040 -0.2205
 6129TIP3    H139802   1.294   4.591  14.653  0.3058  0.6675  1.3929
 6129TIP3    H239803   1.271   4.669  14.525  1.9600 -0.0563  0.6463
 6130TIP3   OH239804   1.383   4.987  14.050 -0.0752 -0.1966 -1.0732
 6130TIP3    H139805   1.320   4.939  14.104 -0.3149 -0.2035 -1.3645
 6130TIP3    H239806   1.466   4.941  14.065  0.1581  0.6533  0.4030
 6131TIP3   OH239807   6.185   4.628   5.889  0.6338 -0.3913  0.0373
 6131TIP3    H139808   6.136   4.655   5.811  1.2954  0.4078 -0.1128
 6131TIP3    H239809   6.160   4.537   5.903  1.5092 -0.9500 -1.8794
 6132TIP3   OH239810   1.527   1.134   4.488 -0.3899 -0.6877 -0.6942
 6132TIP3    H139811   1.589   1.066   4.515  0.0238 -0.0514 -0.0275
 6132TIP3    H239812   1.495   1.104   4.403  2.5954  0.1583 -2.1790
 6133TIP3   OH239813   6.400   5.458   3.842 -0.7162 -0.0652 -0.2217
 6133TIP3    H139814   6.471   5.450   3.779 -0.1348 -0.4003  0.4617
 6133TIP3    H239815   6.427   5.530   3.899 -1.7680  0.9673 -1.0353
 6134TIP3   OH239816   3.053   2.396   1.218 -0.1313  0.7516 -0.8769
 6134TIP3    H139817   3.068   2.466   1.154 -0.3184  0.0696 -1.6866
 6134TIP3    H239818   2.982   2.343   1.179 -1.1493  1.0666  0.5121
 6135TIP3   OH239819   0.336   4.752  11.432  0.2244 -0.2055 -0.1930
 6135TIP3    H139820   0.420   4.707  11.437  1.3088  1.6616 -0.9941
 6135TIP3    H239821   0.287   4.719  11.507  1.5659 -1.5371  0.1226
 6136TIP3   OH239822   5.993   0.484   3.339  0.1904  0.6385 -0.4412
 6136TIP3    H139823   6.020   0.547   3.406  0.6025  0.0811 -0.0798
 6136TIP3    H239824   6.030   0.519   3.257  1.1187  0.4343 -0.1145
 6137TIP3   OH239825   6.611   2.651  17.131 -0.5142 -0.2774 -0.0598
 6137TIP3    H139826   6.659   2.679  17.053  0.3672 -0.1769  0.5104
 6137TIP3    H239827   6.556   2.579  17.101  0.5412 -0.8884 -0.5755
 6138TIP3   OH239828   6.655   1.741   1.860  1.0783 -0.2303 -0.1464
 6138TIP3    H139829   6.750   1.754   1.865  0.7544  1.6662  2.8096
 6138TIP3    H239830   6.621   1.787   1.937 -2.0054 -3.1317  0.3575
 6139TIP3   OH239831   3.021   5.607   2.973  0.0603 -0.1659 -0.5966
 6139TIP3    H139832   3.086   5.545   3.004  1.9296  1.2862 -1.5298
 6139TIP3    H239833   2.998   5.659   3.050  1.4784  0.6066 -0.6857
 6140TIP3   OH239834   0.585   2.497   5.629  0.4003 -0.4566 -0.0829
 6140TIP3    H139835   0.528   2.529   5.560  0.5375  1.6989  0.7646
 6140TIP3    H239836   0.564   2.551   5.705  2.5008 -0.6168  0.6529
 6141TIP3   OH239837   2.764   2.047  16.182 -0.3537  0.3697  0.0873
 6141TIP3    H139838   2.819   2.089  16.116 -0.8897  0.8561 -0.0600
 6141TIP3    H239839   2.811   1.968  16.206 -0.3757 -0.0525 -1.2245
 6142TIP3   OH239840   1.128   6.265   0.561  0.8342  0.2348  0.3771
 6142TIP3    H139841   1.056   6.306   0.609  0.0061 -0.2614 -0.4130
 6142TIP3    H239842   1.136   6.178   0.601  0.6822  0.1237  0.1712
 6143TIP3   OH239843   3.649   1.271  10.605 -0.9959 -0.0430 -0.4483
 6143TIP3    H139844   3.564   1.237  10.632  0.3443 -1.9878  1.4202
 6143TIP3    H239845   3.692   1.296  10.686  0.1202  1.2333 -1.4106
 6144TIP3   OH239846   4.290   3.845   4.406  0.7679  0.2161  0.3815
 6144TIP3    H139847   4.293   3.926   4.354  0.3750 -0.7999 -1.2410
 6144TIP3    H239848   4.366   3.852   4.465  0.1048  2.2673  1.0238
 6145TIP3   OH239849   0.132   1.791  15.907  0.4397  0.0299  0.9954
 6145TIP3    H139850   0.136   1.722  15.840  0.7973  0.8994  0.1072
 6145TIP3    H239851   0.154   1.746  15.989 -0.9366 -1.2471  0.6979
 6146TIP3   OH239852   4.566   4.040   6.067  0.0840 -0.2869 -0.5822
 6146TIP3    H139853   4.521   4.104   6.121 -0.6810 -2.4894  1.4698
 6146TIP3    H239854   4.504   4.019   5.997 -0.8675 -0.9720  0.4478
 6147TIP3   OH239855   1.416   1.369  16.562 -0.1304  0.1477  0.2817
 6147TIP3    H139856   1.373   1.455  16.561 -1.5783 -0.5724 -0.6401
 6147TIP3    H239857   1.345   1.307  16.577  1.2623 -0.7193  3.5464
 6148TIP3   OH239858   1.040   1.446   3.172  0.2035  0.0319 -0.4583
 6148TIP3    H139859   0.972   1.509   3.194 -0.4952 -0.7645 -0.2776
 6148TIP3    H239860   1.017   1.368   3.224  1.8977  0.1360  0.4752
 6149TIP3   OH239861   0.884   0.878   0.509  0.1232  0.3262  0.0859
 6149TIP3    H139862   0.835   0.796   0.497  1.3692 -0.0435 -2.8336
 6149TIP3    H239863   0.818   0.940   0.540 -1.0529 -1.5036  1.4099
 6150TIP3   OH239864   0.258   5.014   3.442  0.0231  0.6661 -0.2055
 6150TIP3    H139865   0.162   5.013   3.431 -0.2193  0.0494  1.7678
 6150TIP3    H239866   0.288   5.083   3.382 -1.7204  1.2543 -0.4387
 6151TIP3   OH239867   1.844   4.184  14.379  0.6733 -0.5383  0.5528
 6151TIP3    H139868   1.842   4.088  14.382 -0.1046 -0.6734 -2.5497
 6151TIP3    H239869   1.754   4.211  14.397  0.8698 -0.4038  1.3222
 6152TIP3   OH239870   4.087   6.011  12.172  0.9919 -0.1156  0.2380
 6152TIP3    H139871   4.167   5.975  12.134  0.7622 -1.2151  0.7626
 6152TIP3    H239872   4.080   5.970  12.258 -1.3567 -1.8966 -0.7290
 6153TIP3   OH239873   1.658   5.112   2.849 -0.1848  0.4323  0.5626
 6153TIP3    H139874   1.592   5.043   2.848  1.5618 -1.3146  1.5426
 6153TIP3    H239875   1.707   5.099   2.768 -0.5727  1.2765  0.1840
 6154TIP3   OH239876   1.065   0.628   2.166  0.3331 -0.1081  0.0335
 6154TIP3    H139877   1.100   0.637   2.255  0.2209  0.2505  0.0447
 6154TIP3    H239878   1.124   0.681   2.112  1.4095 -1.6900 -0.3772
 6155TIP3   OH239879   5.536   2.369   5.595 -0.0340  0.1759  0.3044
 6155TIP3    H139880   5.506   2.278   5.597 -0.4879  0.3385  1.2674
 6155TIP3    H239881   5.455   2.420   5.595  0.2144  0.5636 -1.1666
 6156TIP3   OH239882   2.709   1.558   0.027  0.1415  0.3917 -0.4975
 6156TIP3    H139883   2.621   1.594   0.018  0.6838  1.8452 -0.1265
 6156TIP3    H239884   2.750   1.571  -0.058  0.4911  1.0555 -0.2256
 6157TIP3   OH239885   3.136   4.157   3.836  0.4090  0.3575  0.3782
 6157TIP3    H139886   3.060   4.155   3.894  0.9758  0.4077  1.1217
 6157TIP3    H239887   3.106   4.207   3.760 -0.3892  0.1362  0.5428
 6158TIP3   OH239888   0.805   6.623   2.573  0.0035 -0.0066  0.3229
 6158TIP3    H139889   0.766   6.541   2.602 -1.4086  1.0595  1.4649
 6158TIP3    H239890   0.741   6.660   2.513  1.7577 -0.9320 -2.2075
 6159TIP3   OH239891   5.995   2.189   4.946  0.4371  0.3031  0.6452
 6159TIP3    H139892   6.016   2.261   4.886 -0.3803 -0.3368 -0.4319
 6159TIP3    H239893   5.941   2.230   5.014 -0.7834  0.5513 -0.4480
 6160TIP3   OH239894   5.391   5.386   5.296 -0.5692 -1.0839 -0.6852
 6160TIP3    H139895   5.451   5.421   5.362  0.5300 -0.5814 -1.9419
 6160TIP3    H239896   5.312   5.440   5.306 -0.9544 -1.9476  1.1729
 6161TIP3   OH239897   1.827   4.622   6.426  0.0614  0.1250  0.1540
 6161TIP3    H139898   1.743   4.656   6.396  0.3402 -0.3942 -1.2574
 6161TIP3    H239899   1.889   4.647   6.358  1.1032  0.6832  1.2835
 6162TIP3   OH239900   5.615   3.279   3.506  0.0168  0.0316  0.0756
 6162TIP3    H139901   5.619   3.247   3.595  1.3883 -0.4535 -0.1574
 6162TIP3    H239902   5.541   3.232   3.467 -0.0757 -0.3512  0.7107
 6163TIP3   OH239903   5.075   4.578   6.031 -0.3421  0.3681  0.0300
 6163TIP3    H139904   5.009   4.632   5.988 -0.1123  0.6608  0.0458
 6163TIP3    H239905   5.053   4.582   6.124  0.1640  1.1150  0.1272
 6164TIP3   OH239906   4.442   0.476  15.533 -0.2433 -0.2207  0.1577
 6164TIP3    H139907   4.526   0.519  15.544  0.4399 -0.9342 -2.0175
 6164TIP3    H239908   4.447   0.399  15.590  0.3300  0.0764  0.5134
 6165TIP3   OH239909   1.520   0.638   3.714 -0.3120 -0.2323  0.6919
 6165TIP3    H139910   1.584   0.660   3.647 -0.2795  0.9835  1.1008
 6165TIP3    H239911   1.568   0.581   3.775  0.3403  0.5500  0.9178
 6166TIP3   OH239912   3.120   5.960  15.835  0.3997 -0.3344  0.0759
 6166TIP3    H139913   3.055   6.005  15.889 -0.4003 -1.8781  0.4288
 6166TIP3    H239914   3.184   6.028  15.813 -2.9332  2.0362 -2.8877
 6167TIP3   OH239915   0.132   2.876   2.159  0.1927  0.1746 -0.0064
 6167TIP3    H139916   0.069   2.947   2.175  0.4637  0.2347  0.8576
 6167TIP3    H239917   0.081   2.808   2.114 -0.5380  0.1532  0.8361
 6168TIP3   OH239918   5.838   2.669  13.039 -0.4343 -0.4690  0.2863
 6168TIP3    H139919   5.817   2.593  13.094  0.7499 -2.1349 -1.4887
 6168TIP3    H239920   5.758   2.684  12.988 -1.0685  0.2189  1.4739
 6169TIP3   OH239921   5.628   6.497   1.060  0.1236  0.2377  0.0195
 6169TIP3    H139922   5.556   6.483   0.997  1.0334  0.1602 -1.0242
 6169TIP3    H239923   5.591   6.471   1.144 -1.0684  0.1617 -0.5102
 6170TIP3   OH239924   5.631   5.775   0.535  0.2643  0.2250 -0.2373
 6170TIP3    H139925   5.590   5.697   0.572 -1.6604  0.5340 -1.6274
 6170TIP3    H239926   5.677   5.815   0.608 -1.0866 -0.7051  1.1572
 6171TIP3   OH239927   2.866   2.957   1.654  0.0337 -0.1354 -0.3508
 6171TIP3    H139928   2.805   3.003   1.596 -0.7677 -0.7909 -0.0376
 6171TIP3    H239929   2.931   2.919   1.595  0.0203  0.3834 -0.7043
 6172TIP3   OH239930   3.625   1.567  12.331 -0.5329  0.1064  0.2967
 6172TIP3    H139931   3.575   1.528  12.403  0.9223 -0.1873  1.1618
 6172TIP3    H239932   3.678   1.635  12.372  0.9670 -0.6426 -0.3291
 6173TIP3   OH239933   5.648   3.503   4.636  0.2708  0.1779  0.1554
 6173TIP3    H139934   5.660   3.565   4.707  0.2117  0.8020 -0.3721
 6173TIP3    H239935   5.553   3.493   4.628  0.2638  0.3912 -0.0662
 6174TIP3   OH239936   2.925   0.960  11.786 -0.1051  0.5195 -0.2268
 6174TIP3    H139937   2.850   0.902  11.801  0.0158  0.9613  2.2794
 6174TIP3    H239938   2.904   1.005  11.704 -1.7974 -0.5611 -0.4220
 6175TIP3   OH239939   4.075   1.185  16.715  0.0565  0.1886  0.2461
 6175TIP3    H139940   4.003   1.239  16.747 -1.2448 -1.8761  0.9009
 6175TIP3    H239941   4.092   1.122  16.785  0.2604 -1.4735 -1.2484
 6176TIP3   OH239942   3.048   0.852  16.991  0.1419  0.0422 -0.0022
 6176TIP3    H139943   3.056   0.848  16.896  2.5259  1.3017  0.1075
 6176TIP3    H239944   3.133   0.822  17.024  0.1972  1.8926  1.6468
 6177TIP3   OH239945   5.170   0.639   1.733 -0.4631  0.1220 -0.5199
 6177TIP3    H139946   5.241   0.644   1.668 -0.8586  0.9333 -0.8925
 6177TIP3    H239947   5.097   0.599   1.685 -0.7759  0.7786 -0.5962
 6178TIP3   OH239948   4.134   4.300  13.285  0.5076  0.2254 -0.1571
 6178TIP3    H139949   4.075   4.339  13.221 -1.2081 -0.4380  0.9729
 6178TIP3    H239950   4.206   4.264  13.233 -0.5280  0.2680 -1.6572
 6179TIP3   OH239951   3.910   3.831   3.900 -0.5021 -0.2826 -0.3536
 6179TIP3    H139952   3.920   3.809   3.992  0.3746 -0.2507 -0.4376
 6179TIP3    H239953   3.923   3.925   3.896 -0.9904 -0.2190 -0.4476
 6180TIP3   OH239954   4.761   0.801   0.221  0.2473  0.2982  0.8033
 6180TIP3    H139955   4.839   0.845   0.187  0.0477  0.1260  0.0955
 6180TIP3    H239956   4.688   0.859   0.198 -0.0107 -0.3438 -0.0748
 6181TIP3   OH239957   1.977   6.707  16.391 -0.3066  0.3355  0.2647
 6181TIP3    H139958   2.054   6.701  16.448 -0.2601 -0.2108  0.1424
 6181TIP3    H239959   1.927   6.628  16.409  0.1891 -0.3243 -1.1432
 6182TIP3   OH239960   0.534   4.454   5.672 -0.3150  0.3977 -0.0390
 6182TIP3    H139961   0.545   4.461   5.767  0.8038  1.7041 -0.2432
 6182TIP3    H239962   0.561   4.539   5.638  1.8423 -0.8730 -1.7314
 6183TIP3   OH239963   0.502   2.920   4.974 -0.3760 -0.0261 -0.0789
 6183TIP3    H139964   0.430   2.965   4.930 -0.2586  1.2381  0.9632
 6183TIP3    H239965   0.578   2.976   4.957  0.0533 -0.5658  0.0726
 6184TIP3   OH239966   1.833   3.290  11.851  0.5458  0.2631 -0.2817
 6184TIP3    H139967   1.818   3.221  11.914 -1.2885  1.0827  0.2006
 6184TIP3    H239968   1.905   3.342  11.889  0.5888 -0.2252  0.3026
 6185TIP3   OH239969   4.861   3.336   3.100 -0.1484 -0.0965  0.5601
 6185TIP3    H139970   4.826   3.247   3.109  1.0133 -0.7853 -1.4775
 6185TIP3    H239971   4.947   3.332   3.143  1.1674 -0.7670 -2.0670
 6186TIP3   OH239972   0.122   1.210   0.945  0.3620  0.4640 -0.4802
 6186TIP3    H139973   0.156   1.120   0.948 -0.4822 -0.0286 -3.5499
 6186TIP3    H239974   0.199   1.265   0.957  1.2285 -0.6832 -0.6809
 6187TIP3   OH239975   2.949   1.997  15.619  0.1988  0.4516 -0.0326
 6187TIP3    H139976   2.943   1.953  15.704  0.8937  2.2393  0.9716
 6187TIP3    H239977   3.011   1.945  15.569 -0.1653 -0.5810  0.5870
 6188TIP3   OH239978   5.376   6.592   1.240  0.1508  0.1401  0.2036
 6188TIP3    H139979   5.458   6.574   1.287  0.3116  0.5967  0.0973
 6188TIP3    H239980   5.329   6.652   1.297 -1.1878 -1.9891  1.4132
 6189TIP3   OH239981   0.351   0.113  12.195 -0.4760  0.2506  0.5463
 6189TIP3    H139982   0.256   0.122  12.201 -0.4844 -0.8906  2.4997
 6189TIP3    H239983   0.381   0.109  12.286  1.1033 -2.4891 -0.0438
 6190TIP3   OH239984   2.152   0.772  12.097 -0.3061  0.7520 -0.3541
 6190TIP3    H139985   2.133   0.694  12.046  1.3468  0.8373 -1.1386
 6190TIP3    H239986   2.237   0.754  12.138 -0.7430  1.4301  0.8795
 6191TIP3   OH239987   4.106   4.100   4.519 -0.0603 -0.5702 -1.0812
 6191TIP3    H139988   4.189   4.093   4.473  0.5578 -1.1933  0.1217
 6191TIP3    H239989   4.057   4.166   4.470  1.6420  0.7528 -1.0499
 6192TIP3   OH239990   4.332   5.167  15.745  0.1310  0.1157  0.3719
 6192TIP3    H139991   4.266   5.167  15.676  1.1717 -1.7931 -0.6657
 6192TIP3    H239992   4.327   5.255  15.782  0.3876  1.6293 -2.9740
 6193TIP3   OH239993   6.516   4.284  14.956 -0.5275  0.0023 -0.0278
 6193TIP3    H139994   6.499   4.367  15.000 -1.7576 -0.3547  0.1740
 6193TIP3    H239995   6.494   4.301  14.864  0.2059  0.1832 -0.1818
 6194TIP3   OH239996   5.643   2.523  14.391 -0.3006 -0.0623 -0.3137
 6194TIP3    H139997   5.712   2.553  14.450 -0.3909 -0.0551 -0.2113
 6194TIP3    H239998   5.565   2.515  14.447 -0.5549  0.6054 -0.5733
 6195TIP3   OH239999   4.830   3.143  17.041  0.2878 -0.2226 -0.0229
 6195TIP3    H140000   4.804   3.058  17.078  0.3751 -0.8848 -1.4662
 6195TIP3    H240001   4.910   3.165  17.088  0.0065 -0.7062  0.7036
 6196TIP3   OH240002   0.316   0.159  10.946 -0.4837 -0.7528 -1.2384
 6196TIP3    H140003   0.250   0.097  10.912  0.2752 -1.9893 -0.4878
 6196TIP3    H240004   0.365   0.186  10.869  0.6737 -2.8826 -1.2813
 6197TIP3   OH240005   0.803   4.469   2.875 -0.2086 -0.2726 -0.4617
 6197TIP3    H140006   0.737   4.537   2.890 -0.3682 -1.0465  2.6783
 6197TIP3    H240007   0.885   4.510   2.901 -0.1296 -0.8677  0.2312
 6198TIP3   OH240008   4.377   4.484   0.860 -0.0216  0.3652  0.2847
 6198TIP3    H140009   4.337   4.406   0.820  0.7661  0.3971 -0.5868
 6198TIP3    H240010   4.302   4.540   0.882 -0.6817 -1.1669  2.0970
 6199TIP3   OH240011   5.503   0.052   2.363 -0.3394 -0.2886  0.1010
 6199TIP3    H140012   5.504   0.013   2.275  1.3042 -0.0265 -0.0203
 6199TIP3    H240013   5.413   0.040   2.394 -1.0795  0.1326 -1.8437
 6200TIP3   OH240014   5.958   1.338   4.304  0.1417  0.8856  0.7374
 6200TIP3    H140015   5.994   1.420   4.338  2.7663  0.2069 -0.3198
 6200TIP3    H240016   5.973   1.343   4.209 -1.7405  0.1627  0.3876
 6201TIP3   OH240017   5.494   0.715   0.627  0.0292  0.5804 -0.4968
 6201TIP3    H140018   5.559   0.783   0.645  0.2270  0.6636 -1.5003
 6201TIP3    H240019   5.546   0.636   0.613 -0.0622  0.6701 -1.4125
 6202TIP3   OH240020   0.496   5.406   4.307  0.0454 -0.0151 -0.0431
 6202TIP3    H140021   0.415   5.370   4.342  0.3107  0.7645  1.3952
 6202TIP3    H240022   0.470   5.489   4.265  0.2667  0.8302  1.4649
 6203TIP3   OH240023   3.146   2.648  16.931 -0.0990  0.3502 -0.6060
 6203TIP3    H140024   3.170   2.559  16.906 -0.7182  0.4997 -1.7847
 6203TIP3    H240025   3.054   2.642  16.955  0.3779  0.2924  1.3278
 6204TIP3   OH240026   3.661   4.440   1.761  0.5820  0.5638 -0.2070
 6204TIP3    H140027   3.587   4.445   1.820  0.6252 -1.8581  0.1346
 6204TIP3    H240028   3.639   4.497   1.688 -1.1789  0.6135  0.3547
 6205TIP3   OH240029   6.281   2.953   2.327  0.4658 -0.6520  0.4696
 6205TIP3    H140030   6.205   2.994   2.286  1.1043  1.0542  0.9510
 6205TIP3    H240031   6.329   3.025   2.367  2.8420 -1.5706 -0.6260
 6206TIP3   OH240032   4.149   5.055   4.428 -0.6765  0.5035  0.1213
 6206TIP3    H140033   4.203   5.058   4.508 -0.3559  1.7055 -0.1326
 6206TIP3    H240034   4.212   5.044   4.357 -1.0841 -2.3572  0.1530
 6207TIP3   OH240035   4.206   2.384   2.009  0.7158 -0.2475 -0.3752
 6207TIP3    H140036   4.144   2.434   2.061  1.0595  0.7983 -0.9521
 6207TIP3    H240037   4.166   2.298   2.000 -1.0781  0.6813 -1.4903
 6208TIP3   OH240038   6.559   5.410  14.202  0.7786 -0.5011 -1.3601
 6208TIP3    H140039   6.621   5.403  14.129  1.8145 -0.8178 -0.4617
 6208TIP3    H240040   6.608   5.379  14.278  0.0159  0.7309 -0.3536
 6209TIP3   OH240041   5.136   1.610   3.728  0.8794 -0.3567  0.3520
 6209TIP3    H140042   5.173   1.586   3.813 -0.7201 -0.3721  1.0599
 6209TIP3    H240043   5.154   1.534   3.672  1.6778 -0.4698  0.7437
 6210TIP3   OH240044   0.303   0.678  13.083  0.0340  0.1215 -0.4499
 6210TIP3    H140045   0.301   0.738  13.158 -0.5945  1.4347 -1.4977
 6210TIP3    H240046   0.224   0.626  13.092  0.6497 -0.6742  0.5395
 6211TIP3   OH240047   6.307   6.347  16.958  0.0806 -0.3154 -0.0566
 6211TIP3    H140048   6.278   6.418  17.015  1.1337 -2.2565  3.0457
 6211TIP3    H240049   6.402   6.361  16.950 -0.0106 -0.2641 -1.0129
 6212TIP3   OH240050   1.127   3.152  16.543 -0.2331 -0.1425  0.3767
 6212TIP3    H140051   1.095   3.072  16.585  2.5538 -2.4626 -1.6919
 6212TIP3    H240052   1.094   3.147  16.453  2.0717 -0.2470 -0.4730
 6213TIP3   OH240053   3.142   1.362  10.558  0.3872 -0.3826  0.2342
 6213TIP3    H140054   3.064   1.417  10.571 -1.2418 -2.6559  0.4401
 6213TIP3    H240055   3.173   1.385  10.471 -1.4747 -0.5253 -0.5084
 6214TIP3   OH240056   0.666   6.074   4.020 -0.1363  0.4536 -0.2773
 6214TIP3    H140057   0.658   6.052   4.113 -0.1710  1.2773 -0.0822
 6214TIP3    H240058   0.588   6.037   3.979  1.3707 -2.6245 -0.5089
 6215TIP3   OH240059   3.607   0.944   0.008 -0.0197  0.4093  0.9029
 6215TIP3    H140060   3.679   1.005   0.028  0.5406  0.0009  0.1916
 6215TIP3    H240061   3.616   0.928  -0.086 -1.4631  0.8719  0.6818
 6216TIP3   OH240062   0.430   1.084  16.202  0.3891 -0.4709 -0.0072
 6216TIP3    H140063   0.462   1.067  16.291 -0.4652  1.5126  0.7226
 6216TIP3    H240064   0.498   1.050  16.145  2.0797  0.3737  1.4587
 6217TIP3   OH240065   6.104   0.141  17.087 -0.2265  0.1114  0.1330
 6217TIP3    H140066   6.046   0.071  17.116 -1.7351  1.0799 -0.4592
 6217TIP3    H240067   6.153   0.102  17.014 -0.8397 -0.4312 -0.0031
 6218TIP3   OH240068   2.883   1.268   0.519 -0.5084  0.5651  0.4487
 6218TIP3    H140069   2.820   1.303   0.456  0.1086  1.2468  0.1969
 6218TIP3    H240070   2.831   1.212   0.577 -1.0995  0.0420 -0.5783
 6219TIP3   OH240071   1.910   1.174  14.842  0.8236  0.0995 -0.1679
 6219TIP3    H140072   1.938   1.175  14.750  0.0369  0.3684 -0.4115
 6219TIP3    H240073   1.922   1.084  14.870 -1.7649 -0.7126 -1.4429
 6220TIP3   OH240074   3.820   0.004  11.621 -0.1090  0.2409  0.0007
 6220TIP3    H140075   3.805  -0.051  11.544 -0.7441  0.7326 -0.2326
 6220TIP3    H240076   3.741   0.058  11.627 -0.4131 -0.3459  1.4627
 6221TIP3   OH240077   6.459   4.550  10.910  0.1014  0.0094 -0.0963
 6221TIP3    H140078   6.374   4.587  10.887  0.4146 -0.0969 -1.4911
 6221TIP3    H240079   6.522   4.620  10.891  0.3229  0.0805  0.9071
 6222TIP3   OH240080   4.331   2.677  15.085  0.9862 -0.1237  0.1439
 6222TIP3    H140081   4.397   2.686  15.154 -1.0469  1.6304  1.9570
 6222TIP3    H240082   4.268   2.615  15.120  0.0765  0.5676 -0.2260
 6223TIP3   OH240083   6.489   2.379  11.341 -0.6080 -0.6555  0.3963
 6223TIP3    H140084   6.414   2.426  11.307  0.2611  1.0757  0.8046
 6223TIP3    H240085   6.496   2.301  11.286 -0.4768  1.0184 -2.0277
 6224TIP3   OH240086   0.802   5.340   5.749  0.1924  0.2536 -0.0837
 6224TIP3    H140087   0.716   5.326   5.709  1.6325  0.9558 -3.6675
 6224TIP3    H240088   0.788   5.409   5.813 -1.3471  2.7168 -2.9282
 6225TIP3   OH240089   0.138   5.150   1.058 -0.3965 -0.6640  0.1511
 6225TIP3    H140090   0.140   5.245   1.070  0.3297 -0.5043 -1.1139
 6225TIP3    H240091   0.098   5.116   1.138  0.2434  0.6401  1.0333
 6226TIP3   OH240092   5.815   2.054   0.903 -0.3229 -0.1855  0.3477
 6226TIP3    H140093   5.737   2.108   0.888 -2.9542 -3.4839  1.6659
 6226TIP3    H240094   5.867   2.067   0.824 -1.7288  2.8092 -0.1868
 6227TIP3   OH240095   6.064   5.781   1.213  0.2862  0.1716 -0.4524
 6227TIP3    H140096   6.114   5.862   1.203 -0.3625  0.8777  1.5985
 6227TIP3    H240097   5.974   5.810   1.226 -0.4851 -1.0392 -2.8404
 6228TIP3   OH240098   2.482   0.069  15.482 -0.0932 -0.4779  0.0319
 6228TIP3    H140099   2.485   0.147  15.427  0.5552 -0.0197  0.6990
 6228TIP3    H240100   2.452  -0.001  15.424 -0.4353  0.2155 -0.6324
 6229TIP3   OH240101   2.099   0.062  16.157  0.0523 -0.8492  0.1091
 6229TIP3    H140102   2.164   0.127  16.184 -1.0098  0.7218 -1.0221
 6229TIP3    H240103   2.149  -0.019  16.148  1.5654 -0.0176  0.7180
 6230TIP3   OH240104   4.641   3.581  11.118 -0.3309 -0.1471 -0.0400
 6230TIP3    H140105   4.603   3.506  11.073  0.9133 -0.9593  0.2313
 6230TIP3    H240106   4.632   3.654  11.056 -0.0227 -0.9077 -0.9855
 6231TIP3   OH240107   0.344   4.758  14.179 -0.0823 -0.4218  0.1686
 6231TIP3    H140108   0.422   4.757  14.235  0.1715  0.4530 -0.1611
 6231TIP3    H240109   0.281   4.703  14.225 -0.2169  1.0578  1.8255
 6232TIP3   OH240110   6.028   4.311   2.149 -0.1692  0.2735 -0.4037
 6232TIP3    H140111   6.099   4.352   2.198 -0.7817 -0.1287  0.8407
 6232TIP3    H240112   5.961   4.379   2.141 -0.4824  0.0398  0.1935
 6233TIP3   OH240113   6.351   3.331  10.925 -0.9852 -0.0848  0.3402
 6233TIP3    H140114   6.329   3.420  10.895 -0.4091  0.1967  0.7362
 6233TIP3    H240115   6.312   3.273  10.860 -0.1379  0.5069 -0.7008
 6234TIP3   OH240116   5.115   4.801  12.575  0.5874 -0.5593  0.2563
 6234TIP3    H140117   5.176   4.757  12.636  1.0397  0.0579  0.2525
 6234TIP3    H240118   5.031   4.799  12.621  0.5767 -1.5246  0.2158
 6235TIP3   OH240119   0.264   4.881  15.149 -0.1668  0.5831  0.0433
 6235TIP3    H140120   0.198   4.939  15.186 -1.3075 -0.3572 -0.4693
 6235TIP3    H240121   0.214   4.808  15.113  1.0691  0.4715 -1.4977
 6236TIP3   OH240122   1.354   3.687   0.778  0.2679 -0.4257  0.4718
 6236TIP3    H140123   1.353   3.643   0.692  2.0426 -0.2740  0.3437
 6236TIP3    H240124   1.441   3.666   0.814  0.3814  1.3334  1.2714
 6237TIP3   OH240125   2.832   2.592   2.126  0.1201  0.0019 -0.9535
 6237TIP3    H140126   2.741   2.614   2.108  0.3357 -0.0039 -2.0860
 6237TIP3    H240127   2.873   2.589   2.040  1.4471  1.1338 -0.3721
 6238TIP3   OH240128   4.899   1.105   1.922  0.2559  0.0388 -0.1331
 6238TIP3    H140129   4.837   1.158   1.973 -0.0649 -1.2648  0.8720
 6238TIP3    H240130   4.848   1.073   1.848 -0.6112 -1.9541  1.2950
 6239TIP3   OH240131   6.618   2.765   1.182 -0.4792  0.2374  0.5435
 6239TIP3    H140132   6.667   2.792   1.105 -0.5162  0.6601  0.6695
 6239TIP3    H240133   6.543   2.717   1.147  0.8981 -1.9033  0.3853
 6240TIP3   OH240134   5.424   4.874   4.525  0.1417  0.3807  0.5072
 6240TIP3    H140135   5.416   4.968   4.541  0.1320  0.5188 -0.2710
 6240TIP3    H240136   5.396   4.863   4.434  0.2850 -0.3550  0.5485
 6241TIP3   OH240137   1.882   5.483   3.732  0.6507  0.0510 -0.0002
 6241TIP3    H140138   1.800   5.531   3.726  0.7791  0.1869 -0.6777
 6241TIP3    H240139   1.856   5.391   3.733  0.5476  0.0501 -1.4705
 6242TIP3   OH240140   3.877   0.364   1.105 -0.6813 -0.0556  0.3968
 6242TIP3    H140141   3.861   0.398   1.017 -1.2859  2.0885  1.3302
 6242TIP3    H240142   3.947   0.419   1.140 -1.5982  0.1776  1.8881
 6243TIP3   OH240143   1.867   6.336  12.265 -0.3283  0.7287 -0.6184
 6243TIP3    H140144   1.958   6.359  12.282  0.4923 -1.2843 -2.0248
 6243TIP3    H240145   1.847   6.378  12.181 -0.0625 -0.3871 -1.2556
 6244TIP3   OH240146   5.997   1.787  11.145 -0.4086 -0.3316 -0.3191
 6244TIP3    H140147   5.960   1.838  11.073  1.4539 -0.9502 -1.7844
 6244TIP3    H240148   6.038   1.712  11.101  2.5331  0.3372  1.1925
 6245TIP3   OH240149   4.299   5.939   3.221  0.2085 -0.2342  0.0648
 6245TIP3    H140150   4.389   5.913   3.204 -0.1450 -0.7310 -1.1187
 6245TIP3    H240151   4.304   5.995   3.299  1.6980  0.9023 -0.8311
 6246TIP3   OH240152   0.581   1.795   1.644 -0.0927 -0.1402 -0.4898
 6246TIP3    H140153   0.611   1.775   1.556  0.3559  1.3044 -0.6682
 6246TIP3    H240154   0.494   1.834   1.632  0.0185  0.1637 -0.2891
 6247TIP3   OH240155   3.040   4.878   4.089  0.0985 -0.3319  0.2390
 6247TIP3    H140156   3.123   4.888   4.042  0.7685 -0.6639  1.3316
 6247TIP3    H240157   2.974   4.874   4.020  1.4195 -4.7753 -0.9715
 6248TIP3   OH240158   3.623   3.685   1.688  0.0199 -0.1369  0.3035
 6248TIP3    H140159   3.556   3.641   1.741  1.6706  0.3885  2.8748
 6248TIP3    H240160   3.679   3.728   1.751  1.8228  0.8624 -1.9253
 6249TIP3   OH240161   4.398   0.313   0.684 -0.1132 -0.4063 -0.5628
 6249TIP3    H140162   4.451   0.371   0.738 -1.0418  1.8307 -1.9910
 6249TIP3    H240163   4.307   0.338   0.704 -0.5627 -1.8738 -0.6699
 6250TIP3   OH240164   0.051   6.525   1.992  0.4892  0.4224  0.1134
 6250TIP3    H140165   0.126   6.477   1.955 -0.3906  0.1102 -1.3185
 6250TIP3    H240166  -0.001   6.550   1.916 -1.9886 -1.2340  1.1991
 6251TIP3   OH240167   6.409   6.141  13.372 -0.2081 -0.2051  0.5371
 6251TIP3    H140168   6.342   6.146  13.304  0.7137  3.3482 -0.2366
 6251TIP3    H240169   6.481   6.093  13.332 -0.3923  0.2499 -0.3446
 6252TIP3   OH240170   5.948   0.651   4.639  0.4419  0.5161 -0.7285
 6252TIP3    H140171   6.031   0.645   4.686  0.4432 -0.6293 -0.8675
 6252TIP3    H240172   5.892   0.706   4.694  0.9648  0.4722 -0.1572
 6253TIP3   OH240173   2.825   3.056  15.984  0.4076 -0.3814 -0.7924
 6253TIP3    H140174   2.819   3.133  16.041 -0.5073 -1.0801  0.0501
 6253TIP3    H240175   2.849   3.092  15.898  0.4986  0.7950 -0.2810
 6254TIP3   OH240176   3.825   1.583   0.853 -0.2355 -0.4884  0.4743
 6254TIP3    H140177   3.920   1.578   0.865 -0.4051  0.0352  2.0816
 6254TIP3    H240178   3.814   1.582   0.758  1.4013 -0.1412  0.2525
 6255TIP3   OH240179   3.467   1.809  15.106  0.0102 -0.7656 -0.2200
 6255TIP3    H140180   3.386   1.832  15.060 -1.0502 -0.2274  1.8590
 6255TIP3    H240181   3.492   1.725  15.068 -1.5693 -0.9966 -0.8286
 6256TIP3   OH240182   5.159   4.956   0.711 -0.4488 -0.0161  0.3963
 6256TIP3    H140183   5.193   5.041   0.738  0.5959 -0.1221 -0.5243
 6256TIP3    H240184   5.233   4.896   0.723 -0.6224 -0.4556 -0.6195
 6257TIP3   OH240185   4.536   5.997   2.390 -0.1828 -0.0261  0.1983
 6257TIP3    H140186   4.504   5.909   2.412 -0.8203  0.0922 -0.2164
 6257TIP3    H240187   4.497   6.015   2.304  0.4269  0.4243  0.0131
 6258TIP3   OH240188   4.155   3.880   3.239  0.1482  0.7525 -0.1625
 6258TIP3    H140189   4.097   3.885   3.162  0.5678  1.8948 -0.4100
 6258TIP3    H240190   4.102   3.836   3.306 -0.9163  1.5647 -0.4640
 6259TIP3   OH240191   5.137   2.992  16.940 -0.0273  0.2770 -0.4596
 6259TIP3    H140192   5.111   3.075  16.980  0.3204 -0.8799  2.2943
 6259TIP3    H240193   5.212   2.962  16.992 -1.5071 -2.8272  0.0134
 6260TIP3   OH240194   4.277   4.615  12.499  0.4923  0.1965 -0.5120
 6260TIP3    H140195   4.260   4.637  12.591 -1.3961  1.7259 -1.1975
 6260TIP3    H240196   4.235   4.530  12.487 -0.4751  0.6424 -0.3162
 6261TIP3   OH240197   3.423   0.406   0.559 -0.1512  0.3265  0.2668
 6261TIP3    H140198   3.346   0.350   0.549 -0.6405  1.1050 -0.4242
 6261TIP3    H240199   3.417   0.439   0.649 -1.2474  1.2644 -0.1369
 6262TIP3   OH240200   0.875   6.201   5.646  0.9482  0.0475 -0.6971
 6262TIP3    H140201   0.967   6.182   5.665  1.0156  0.3457 -0.7198
 6262TIP3    H240202   0.826   6.140   5.702  1.1651 -0.8721 -1.4872
 6263TIP3   OH240203   1.712   0.355   1.735  0.0449 -0.0204 -0.4454
 6263TIP3    H140204   1.625   0.328   1.706 -0.4164  0.4717  0.4889
 6263TIP3    H240205   1.772   0.305   1.679 -0.8113 -1.7543  0.1476
 6264TIP3   OH240206   0.402   1.958  15.449  0.3380 -0.4185 -0.2598
 6264TIP3    H140207   0.317   1.955  15.492  0.6551 -1.4393  0.2963
 6264TIP3    H240208   0.384   2.000  15.364 -0.9996 -2.0282 -0.8023
 6265TIP3   OH240209   3.116   0.614  13.548  0.5841 -0.7176  0.6565
 6265TIP3    H140210   3.160   0.664  13.479  2.4774 -0.9126  1.6906
 6265TIP3    H240211   3.037   0.665  13.568  1.0496  0.3833 -0.2446
 6266TIP3   OH240212   3.718   4.738  13.827  0.3541  0.2291  0.3330
 6266TIP3    H140213   3.744   4.657  13.783 -1.3342  0.1891 -0.6327
 6266TIP3    H240214   3.630   4.756  13.794  0.3266  1.9373  1.2836
 6267TIP3   OH240215   5.005   0.232   2.748 -0.3442  0.3942 -0.4743
 6267TIP3    H140216   4.917   0.197   2.737 -0.5697  0.6506  0.4197
 6267TIP3    H240217   5.039   0.188   2.827 -0.1296  1.1782 -0.1234
 6268TIP3   OH240218   3.674   0.420   2.538  0.4421 -0.1348 -0.0170
 6268TIP3    H140219   3.635   0.332   2.539 -0.2473  0.1279 -1.9947
 6268TIP3    H240220   3.607   0.476   2.577  1.3593 -0.6515  2.3677
 6269TIP3   OH240221   5.682   5.517  11.137  0.7295 -0.0841 -0.1833
 6269TIP3    H140222   5.617   5.545  11.201  2.4020  1.4211  0.9119
 6269TIP3    H240223   5.736   5.595  11.122  1.3846 -0.8944 -2.1649
 6270TIP3   OH240224   5.150   4.271   5.275 -0.1447 -0.1179 -0.2209
 6270TIP3    H140225   5.073   4.241   5.226  0.0011  0.9328 -1.1003
 6270TIP3    H240226   5.118   4.344   5.328 -0.0437 -0.5317  0.4228
 6271TIP3   OH240227   2.335   2.960   5.539  0.1389 -0.3116  0.6932
 6271TIP3    H140228   2.414   2.946   5.486 -0.3836 -0.7377  0.0165
 6271TIP3    H240229   2.365   2.950   5.629  1.0447  0.4183  0.4879
 6272TIP3   OH240230   3.380   5.994   4.425  0.4038 -0.5117  0.0377
 6272TIP3    H140231   3.317   5.944   4.477  0.1155  0.2346  0.4118
 6272TIP3    H240232   3.390   5.943   4.345 -1.1458 -0.3328 -0.2908
 6273TIP3   OH240233   2.505   0.553   5.636  0.4788 -0.1154 -0.1041
 6273TIP3    H140234   2.522   0.623   5.573  1.0111  1.8734  2.1720
 6273TIP3    H240235   2.415   0.570   5.666  0.7379 -0.1504  0.7206
 6274TIP3   OH240236   0.657   2.052  13.154 -0.7137 -0.1318  0.2929
 6274TIP3    H140237   0.613   2.063  13.070  0.0744 -0.6073 -0.1904
 6274TIP3    H240238   0.588   2.062  13.219 -1.0719  1.7258 -0.3481
 6275TIP3   OH240239   6.052   2.281  13.707 -0.0212 -0.2215  0.3551
 6275TIP3    H140240   6.051   2.376  13.692 -0.0098 -0.3805 -0.7075
 6275TIP3    H240241   5.969   2.263  13.750 -0.6233  0.0897 -0.6516
 6276TIP3   OH240242   6.234   0.259  14.496 -0.1566  0.0927  0.0198
 6276TIP3    H140243   6.139   0.252  14.494 -0.1031 -0.4702 -0.7652
 6276TIP3    H240244   6.264   0.172  14.522  0.2322 -0.5152 -2.3629
 6277TIP3   OH240245   5.012   3.250  15.796  0.4026 -0.4818 -0.1484
 6277TIP3    H140246   4.966   3.327  15.830  2.7877  0.2006  1.6652
 6277TIP3    H240247   4.988   3.247  15.704 -0.1751  2.1344 -0.1393
 6278TIP3   OH240248   1.246   4.021  16.194 -0.0964  0.0353 -0.2760
 6278TIP3    H140249   1.238   3.991  16.285 -5.1271 -0.3687 -0.7186
 6278TIP3    H240250   1.293   4.104  16.201 -1.3911  0.5807  2.8769
 6279TIP3   OH240251   6.642   1.970  15.961  0.6045  0.2866 -0.3671
 6279TIP3    H140252   6.619   2.052  15.918  1.0500 -0.2807 -1.7280
 6279TIP3    H240253   6.684   1.996  16.042  1.2184  1.4184 -1.0281
 6280TIP3   OH240254   3.663   5.236   3.821  0.3554  0.6853  0.2374
 6280TIP3    H140255   3.753   5.201   3.818 -0.3428 -1.2114  0.5941
 6280TIP3    H240256   3.627   5.201   3.903 -1.2591  0.0493 -0.7340
 6281TIP3   OH240257   2.675   4.868   5.862  0.2078 -0.2819  0.3100
 6281TIP3    H140258   2.755   4.901   5.821  0.0446  2.9115  2.4168
 6281TIP3    H240259   2.604   4.902   5.808  0.1704 -0.9962 -0.0989
 6282TIP3   OH240260   0.639   0.544  14.289 -0.3606 -0.6196 -1.0537
 6282TIP3    H140261   0.617   0.598  14.365 -1.2783 -0.8823 -1.1292
 6282TIP3    H240262   0.678   0.606  14.227  0.1613 -0.3574 -0.4751
 6283TIP3   OH240263   6.712   2.634  14.941 -0.2891  0.0637 -0.4667
 6283TIP3    H140264   6.760   2.619  15.023 -1.1377 -2.5929 -0.4067
 6283TIP3    H240265   6.663   2.715  14.957  0.2136  0.0504  1.3384
 6284TIP3   OH240266   2.901   4.850  11.266  0.3916 -0.8879 -0.2116
 6284TIP3    H140267   2.849   4.770  11.260 -0.3942 -0.3443 -0.6871
 6284TIP3    H240268   2.886   4.895  11.183  0.4758 -0.0318  0.2391
 6285TIP3   OH240269   5.613   2.795  17.150 -0.2251 -0.6161  0.0921
 6285TIP3    H140270   5.636   2.749  17.069  3.1670 -1.9885  1.7307
 6285TIP3    H240271   5.604   2.726  17.216  0.7087  0.7394  1.6868
 6286TIP3   OH240272   3.799   5.136  16.971 -0.4797  1.0852 -0.4418
 6286TIP3    H140273   3.806   5.229  16.990 -2.7532  0.9403  1.4177
 6286TIP3    H240274   3.755   5.132  16.886 -0.2461  1.7129 -0.5919
 6287TIP3   OH240275   0.671   0.537   5.702 -0.1398  0.1595 -0.0109
 6287TIP3    H140276   0.609   0.509   5.770  1.4585  0.8978  1.7817
 6287TIP3    H240277   0.634   0.618   5.667 -0.7715 -0.0189  0.2426
 6288TIP3   OH240278   5.517   3.680  12.250 -0.3111 -0.0815 -0.3180
 6288TIP3    H140279   5.540   3.742  12.181  1.3584 -0.7181 -0.3416
 6288TIP3    H240280   5.566   3.709  12.327 -2.6894  1.0333  0.8472
 6289TIP3   OH240281   3.436   5.887  15.830  0.4214 -0.2475  0.1507
 6289TIP3    H140282   3.341   5.878  15.824  0.5885 -0.7027 -2.3702
 6289TIP3    H240283   3.455   5.969  15.784  1.3035 -0.3912  0.2568
 6290TIP3   OH240284   6.046   3.346   1.118  0.3019  0.6126 -0.5748
 6290TIP3    H140285   6.099   3.270   1.142 -0.1314  0.6694  0.5676
 6290TIP3    H240286   6.110   3.414   1.097  0.7128  1.0736  2.0167
 6291TIP3   OH240287   4.820   6.653  16.098  0.0154  0.1081  0.0349
 6291TIP3    H140288   4.836   6.567  16.060  3.2701  0.1312  1.1494
 6291TIP3    H240289   4.898   6.705  16.075 -0.0452  1.4976  2.7274
 6292TIP3   OH240290   5.682   6.047  16.097  0.3105 -0.4367 -0.1702
 6292TIP3    H140291   5.721   5.990  16.030 -0.2303 -0.2081 -0.6868
 6292TIP3    H240292   5.604   6.083  16.055 -0.2181 -0.5513  0.7019
 6293TIP3   OH240293   5.678   4.950   3.334  0.0477  0.0592  0.3854
 6293TIP3    H140294   5.614   4.987   3.274  0.9241  0.8155 -0.1082
 6293TIP3    H240295   5.664   4.996   3.416  0.3232  0.6322  0.1172
 6294TIP3   OH240296   4.973   1.174  11.337 -0.2673  0.3730  0.3293
 6294TIP3    H140297   4.959   1.165  11.243  1.5214  1.3925 -0.0569
 6294TIP3    H240298   4.914   1.245  11.363  0.7592  1.5460 -0.4419
 6295TIP3   OH240299   2.517   0.502   0.664 -0.2449  0.6344 -0.8364
 6295TIP3    H140300   2.568   0.583   0.657 -0.1507  0.8271  1.7085
 6295TIP3    H240301   2.427   0.529   0.647 -0.2688  1.3795  0.3534
 6296TIP3   OH240302   3.256   1.156  12.138  0.4860  0.1513 -0.1682
 6296TIP3    H140303   3.166   1.131  12.117  0.2349 -0.1814  1.2456
 6296TIP3    H240304   3.247   1.218  12.211  1.3984 -0.0089  0.0868
 6297TIP3   OH240305   6.582   4.793  12.712  0.0733  0.7221 -0.4069
 6297TIP3    H140306   6.528   4.720  12.742 -2.0431  1.1400 -3.0148
 6297TIP3    H240307   6.572   4.859  12.780  1.0946 -0.9692  1.4156
 6298TIP3   OH240308   3.273   3.806  14.510  0.3230 -0.1716 -0.2032
 6298TIP3    H140309   3.233   3.748  14.445 -2.2288 -0.5992  1.6872
 6298TIP3    H240310   3.199   3.851  14.552  2.1288  2.8930 -0.1431
 6299TIP3   OH240311   5.582   6.065   0.784 -0.0872  0.0380  0.2596
 6299TIP3    H140312   5.655   6.004   0.772 -0.2797  0.0833 -1.2907
 6299TIP3    H240313   5.611   6.145   0.741 -1.4023 -0.2425 -1.1922
 6300TIP3   OH240314   1.058   1.727  15.555 -0.4993  0.2630  0.3177
 6300TIP3    H140315   1.032   1.819  15.558  0.7236  0.5833  3.3378
 6300TIP3    H240316   1.140   1.727  15.504 -1.1761  0.6413 -0.7818
 6301TIP3   OH240317   3.403   0.619   3.340 -0.4985  0.1360 -0.1002
 6301TIP3    H140318   3.429   0.550   3.401 -1.0279 -0.4481 -0.5244
 6301TIP3    H240319   3.324   0.584   3.297 -0.8843  1.0854 -0.1736
 6302TIP3   OH240320   0.345   2.405  13.398  0.2069  0.5377  0.0922
 6302TIP3    H140321   0.264   2.432  13.441 -0.9440  0.1428 -1.7696
 6302TIP3    H240322   0.364   2.319  13.436 -1.7547 -0.6067 -1.3908
 6303TIP3   OH240323   0.767   3.185  12.009  0.0824 -0.7776  0.1364
 6303TIP3    H140324   0.782   3.280  12.004 -0.8782 -0.6324 -0.1360
 6303TIP3    H240325   0.747   3.160  11.919 -2.8022 -0.6856  0.6963
 6304TIP3   OH240326   3.670   5.822  11.722 -0.6617 -0.7150 -0.6311
 6304TIP3    H140327   3.592   5.823  11.778  1.0550 -1.0532  1.8587
 6304TIP3    H240328   3.692   5.729  11.714 -0.5382 -0.6221 -1.3590
 6305TIP3   OH240329   1.015   5.859  13.812 -0.2794 -0.1788 -0.3584
 6305TIP3    H140330   0.949   5.900  13.869  2.2610  1.5595  1.4659
 6305TIP3    H240331   1.015   5.913  13.733  0.5042  1.1786  0.5536
 6306TIP3   OH240332   2.234   0.694   1.391  0.1245  0.1078  0.0739
 6306TIP3    H140333   2.290   0.624   1.424 -0.0076 -0.5012 -0.9596
 6306TIP3    H240334   2.288   0.773   1.398  0.2775 -0.0864  1.2430
 6307TIP3   OH240335   5.989   5.229   0.052  0.2443 -0.0827 -0.0209
 6307TIP3    H140336   5.945   5.238   0.136  1.7802 -0.8866  0.8793
 6307TIP3    H240337   5.919   5.244  -0.013 -1.2174 -0.6722  1.3715
 6308TIP3   OH240338   1.782   0.151  13.796 -0.8055  0.0547 -0.2755
 6308TIP3    H140339   1.719   0.205  13.845 -1.1768 -0.6216  0.0038
 6308TIP3    H240340   1.857   0.143  13.854 -0.5681  0.6506 -0.5029
 6309TIP3   OH240341   1.393   3.294   0.150 -0.2547  0.7024  0.6054
 6309TIP3    H140342   1.436   3.260   0.072 -0.2256  2.6543 -0.2409
 6309TIP3    H240343   1.346   3.219   0.186 -0.2020 -0.2356 -1.2314
 6310TIP3   OH240344   2.062   4.332  13.888 -0.0264 -0.0605  0.1119
 6310TIP3    H140345   2.081   4.425  13.895  0.6496 -0.1489 -0.5094
 6310TIP3    H240346   1.987   4.318  13.945 -0.3351  0.9240 -0.0577
 6311TIP3   OH240347   4.524   2.364  12.754  0.1929  0.4146 -0.1256
 6311TIP3    H140348   4.521   2.426  12.681  1.3194 -0.4999 -0.9669
 6311TIP3    H240349   4.445   2.312  12.744  0.1650  0.5242 -0.4995
 6312TIP3   OH240350   2.109   2.896  15.215  0.3143 -0.3195  0.3715
 6312TIP3    H140351   2.055   2.920  15.290  1.4637  2.1389  0.4729
 6312TIP3    H240352   2.188   2.856  15.253  1.5927  2.3295  0.6109
 6313TIP3   OH240353   4.552   5.379  13.763  0.0660 -0.1450 -0.0741
 6313TIP3    H140354   4.572   5.455  13.818  2.0016 -0.1558 -0.7302
 6313TIP3    H240355   4.487   5.411  13.700  1.3000  1.1265 -0.7188
 6314TIP3   OH240356   3.763   2.622  17.173  0.1100  0.1756 -0.2366
 6314TIP3    H140357   3.816   2.599  17.097  1.4236 -0.3687  0.8362
 6314TIP3    H240358   3.826   2.640  17.242 -1.1011 -0.5546  1.0880
 6315TIP3   OH240359   4.163   4.949  13.052 -0.1708 -0.5306  0.0251
 6315TIP3    H140360   4.129   4.935  13.140  1.3958 -0.5692  0.6215
 6315TIP3    H240361   4.242   4.896  13.048 -0.7045 -1.2389 -1.7079
 6316TIP3   OH240362   2.082   1.100  12.868  0.4004  0.4628  0.0920
 6316TIP3    H140363   2.040   1.016  12.848  0.0048  0.9393 -1.0912
 6316TIP3    H240364   2.019   1.144  12.925 -0.5290  0.9945 -1.3283
 6317TIP3   OH240365   2.887   3.627   3.828 -0.1589 -0.0776  0.5199
 6317TIP3    H140366   2.840   3.700   3.868  0.6310  0.3774  0.6157
 6317TIP3    H240367   2.872   3.637   3.734 -0.5511 -0.1436  0.5730
 6318TIP3   OH240368   1.688   5.143  12.919  0.1869  0.2381  0.0525
 6318TIP3    H140369   1.710   5.202  12.991 -0.7590  0.6025  0.0451
 6318TIP3    H240370   1.595   5.123  12.932  0.1558 -0.1531 -0.7464
 6319TIP3   OH240371   3.522   1.060  13.131  0.7290  0.5887 -0.5456
 6319TIP3    H140372   3.557   1.006  13.201  0.4352 -0.6738 -1.3630
 6319TIP3    H240373   3.503   0.999  13.059 -1.0256  1.5425 -0.9361
 6320TIP3   OH240374   1.373   0.616   5.059  0.2821  0.7924  0.4672
 6320TIP3    H140375   1.284   0.625   5.025 -0.6629 -0.0571  2.6099
 6320TIP3    H240376   1.412   0.546   5.007 -1.2494 -0.7240  1.2889
 6321TIP3   OH240377   1.738   0.424  16.595  0.3978  0.4822  0.5128
 6321TIP3    H140378   1.780   0.509  16.585  0.9854  0.0819 -0.5391
 6321TIP3    H240379   1.782   0.384  16.670  0.2864  1.0129  0.8596
 6322TIP3   OH240380   4.674   4.454  10.707  0.0746  0.4079 -0.2546
 6322TIP3    H140381   4.663   4.538  10.663 -2.8634  0.5567  0.5976
 6322TIP3    H240382   4.755   4.462  10.757 -0.0133  2.6047 -0.4529
 6323TIP3   OH240383   6.624   6.095   6.091  0.3252  0.4994  0.7939
 6323TIP3    H140384   6.540   6.076   6.134  0.2606  1.8451  1.2674
 6323TIP3    H240385   6.605   6.168   6.032  0.7697 -0.3431 -0.4022
 6324TIP3   OH240386   4.689   2.442   4.898  0.4734  0.2298  0.1191
 6324TIP3    H140387   4.731   2.365   4.934  0.3196 -0.0610 -0.3251
 6324TIP3    H240388   4.704   2.511   4.964  1.8484  0.1976 -0.1674
 6325TIP3   OH240389   0.334   4.932   2.393  0.0327 -0.0678  0.0692
 6325TIP3    H140390   0.265   4.915   2.458 -0.5254 -1.4342 -0.8596
 6325TIP3    H240391   0.287   4.954   2.313  0.6369 -1.8729 -0.8006
 6326TIP3   OH240392   3.826   0.941  16.057 -0.3182  0.3075 -0.2374
 6326TIP3    H140393   3.913   0.911  16.082  0.4730  2.5712 -0.1176
 6326TIP3    H240394   3.768   0.907  16.125  0.7160  0.1151  0.5598
 6327TIP3   OH240395   3.111   4.062   1.736  0.2880  0.5548 -0.6866
 6327TIP3    H140396   3.197   4.028   1.711  1.4101  2.8057  0.0437
 6327TIP3    H240397   3.093   4.131   1.672 -1.1669 -0.1658 -1.0696
 6328TIP3   OH240398   0.177   1.518   3.230  0.0310  0.5176  0.1793
 6328TIP3    H140399   0.140   1.582   3.169  0.3653 -0.1154 -0.6952
 6328TIP3    H240400   0.267   1.547   3.245  0.5298 -0.3365 -1.0689
 6329TIP3   OH240401   0.109   1.769  11.396  0.2976  0.1371 -0.0165
 6329TIP3    H140402   0.101   1.691  11.341  0.4953  0.0253  0.1158
 6329TIP3    H240403   0.100   1.843  11.334  0.8264  0.0141 -0.2426
 6330TIP3   OH240404   0.069   5.705  12.089 -0.4937  0.7482  0.0474
 6330TIP3    H140405   0.049   5.641  12.021  2.7923 -1.9736  1.5061
 6330TIP3    H240406   0.134   5.763  12.049  1.3603 -0.7885  0.8020
 6331TIP3   OH240407   5.504   2.212   1.768  0.3758 -0.6739 -0.1222
 6331TIP3    H140408   5.451   2.144   1.726 -0.3900 -0.8285  1.0843
 6331TIP3    H240409   5.451   2.291   1.759 -0.0547 -0.8184  1.0397
 6332TIP3   OH240410   6.626   4.236   4.584  0.1203 -0.9581  0.2927
 6332TIP3    H140411   6.549   4.179   4.585 -0.8378  0.2257 -1.4588
 6332TIP3    H240412   6.636   4.259   4.491  2.9336 -1.5424  0.4324
 6333TIP3   OH240413   6.616   4.820  14.228  0.1754  0.1498 -0.6882
 6333TIP3    H140414   6.537   4.854  14.184 -0.0329  0.8290  0.1956
 6333TIP3    H240415   6.586   4.742  14.274 -0.3372  1.2109  0.8461
 6334TIP3   OH240416   4.912   6.388  16.025 -0.3149 -0.3065  0.3839
 6334TIP3    H140417   4.883   6.357  16.111 -1.9313  1.0963  0.3941
 6334TIP3    H240418   4.995   6.344  16.010 -1.1197 -2.3400  1.6409
 6335TIP3   OH240419   4.669   1.266  16.126 -0.6617 -0.1057 -0.3511
 6335TIP3    H140420   4.718   1.348  16.133  2.5946 -1.9573 -0.4971
 6335TIP3    H240421   4.723   1.212  16.068 -2.4091 -2.6085  0.3127
 6336TIP3   OH240422   4.826   4.583   4.348 -0.5144  0.1777 -0.6687
 6336TIP3    H140423   4.848   4.652   4.411  0.5616  0.3889 -1.2681
 6336TIP3    H240424   4.911   4.544   4.325 -0.8846  0.1792 -2.0777
 6337TIP3   OH240425   4.940   5.814   2.862 -0.6262  0.2019  0.0573
 6337TIP3    H140426   4.915   5.814   2.954 -1.5801 -0.3158 -0.1930
 6337TIP3    H240427   4.949   5.721   2.840 -0.2338  0.3322 -0.3222
 6338TIP3   OH240428   4.858   0.278  11.798  0.2515  0.3651  0.9501
 6338TIP3    H140429   4.909   0.291  11.718 -1.3110 -0.8961 -0.2769
 6338TIP3    H240430   4.812   0.195  11.784 -1.9169  1.3311  2.1573
 6339TIP3   OH240431   6.596   5.609   4.856  0.4521  0.1962  0.5095
 6339TIP3    H140432   6.516   5.646   4.892  0.6230  1.2670 -0.1895
 6339TIP3    H240433   6.590   5.516   4.874  0.0828  0.5789  2.4432
 6340TIP3   OH240434   2.456   2.148   2.565  0.2812 -0.4814 -0.0455
 6340TIP3    H140435   2.362   2.128   2.570  0.4361 -1.3137 -0.4830
 6340TIP3    H240436   2.478   2.138   2.473  0.5884  0.6973 -0.1029
 6341TIP3   OH240437   5.388   6.506  15.496  0.1246 -0.0767 -0.5957
 6341TIP3    H140438   5.476   6.542  15.483 -0.7111  1.7611 -1.2506
 6341TIP3    H240439   5.393   6.417  15.461  0.8870  1.0554 -3.4582
 6342TIP3   OH240440   2.993   6.202   0.623 -0.0110  0.0032  0.6170
 6342TIP3    H140441   2.955   6.284   0.654  1.6291  0.6641  0.9113
 6342TIP3    H240442   3.002   6.148   0.701  0.3019  0.1051  0.6503
 6343TIP3   OH240443   4.142   3.060   5.133 -0.0829 -0.2020  0.7605
 6343TIP3    H140444   4.049   3.059   5.114 -0.2028  0.3173  1.3006
 6343TIP3    H240445   4.182   3.009   5.063 -0.4994  1.7568 -0.9331
 6344TIP3   OH240446   2.352   3.128   1.607  0.4011 -0.1207 -0.5865
 6344TIP3    H140447   2.365   3.145   1.513  0.7372  1.0342 -0.3377
 6344TIP3    H240448   2.274   3.180   1.629 -0.2486 -1.1438 -0.4260
 6345TIP3   OH240449   1.658   5.025   1.246  0.1369  0.3854  0.0910
 6345TIP3    H140450   1.632   5.106   1.201  0.3810  1.1099  1.2514
 6345TIP3    H240451   1.586   4.964   1.229  0.6533  0.3210 -2.0935
 6346TIP3   OH240452   1.689   0.018  11.283 -0.5559 -0.0100  0.2604
 6346TIP3    H140453   1.783   0.038  11.273 -0.4763 -0.3070  0.4208
 6346TIP3    H240454   1.647   0.068  11.213 -0.2582 -0.0316  0.0632
 6347TIP3   OH240455   1.055   4.857  16.375  0.0012 -0.3462  0.0253
 6347TIP3    H140456   1.019   4.904  16.300 -1.2040 -0.5774  0.4437
 6347TIP3    H240457   1.095   4.779  16.338 -1.4417 -0.9456 -0.2936
 6348TIP3   OH240458   5.241   0.389  11.463  0.2181  0.0773  0.0173
 6348TIP3    H140459   5.283   0.426  11.386  2.4180  1.2090  1.7249
 6348TIP3    H240460   5.211   0.302  11.434 -2.4408  1.9055 -3.1802
 6349TIP3   OH240461   5.083   3.110   5.372  0.0681  0.2273  0.4457
 6349TIP3    H140462   5.026   3.111   5.295 -0.5680  0.1727  0.9088
 6349TIP3    H240463   5.170   3.092   5.338 -0.5357 -1.8930 -0.0671
 6350TIP3   OH240464   1.912   2.767  16.411 -0.0738 -0.2607  0.0340
 6350TIP3    H140465   1.863   2.761  16.492  0.0397  0.2591  0.1417
 6350TIP3    H240466   2.002   2.788  16.439  0.2117 -1.1826 -0.1594
 6351TIP3   OH240467   4.285   6.585  14.179  0.8610 -0.0626  0.4205
 6351TIP3    H140468   4.246   6.602  14.093  0.3138 -1.4115  0.4006
 6351TIP3    H240469   4.211   6.567  14.236  1.3121 -0.5693  0.8531
 6352TIP3   OH240470   3.702   2.791  12.019  0.4627 -0.2370  0.0477
 6352TIP3    H140471   3.655   2.792  12.103 -1.3008  0.7015 -0.9185
 6352TIP3    H240472   3.772   2.727  12.032  0.5836  0.3121  2.4225
 6353TIP3   OH240473   6.288   5.235  11.522  0.3332 -1.0990 -0.6423
 6353TIP3    H140474   6.310   5.158  11.575 -1.5867 -2.2658 -1.5203
 6353TIP3    H240475   6.255   5.299  11.585 -0.6874 -2.0044 -0.2450
 6354TIP3   OH240476   1.056   3.162   6.574  0.1808 -0.1450 -0.2742
 6354TIP3    H140477   0.987   3.134   6.514 -0.3089 -0.8112  0.5837
 6354TIP3    H240478   1.138   3.140   6.529 -0.1905 -1.5040 -0.3080
 6355TIP3   OH240479   1.351   6.569   6.026  0.1118 -0.2925  0.3186
 6355TIP3    H140480   1.413   6.513   6.072 -0.8434  0.7951  3.0363
 6355TIP3    H240481   1.300   6.611   6.095  0.9388  4.1716 -1.5447
 6356TIP3   OH240482   0.568   1.218   0.947 -0.3626 -0.0891  0.8628
 6356TIP3    H140483   0.590   1.191   0.858  2.6286  1.6271  0.9932
 6356TIP3    H240484   0.487   1.268   0.937  1.2304  2.2096 -1.3190
 6357TIP3   OH240485   5.675   2.102  12.605 -0.1826 -0.0818  0.2558
 6357TIP3    H140486   5.749   2.049  12.575  0.7446  0.3238  1.7954
 6357TIP3    H240487   5.624   2.043  12.661 -0.5025 -0.0826 -0.0356
 6358TIP3   OH240488   6.145   5.606  16.401  0.2208 -0.1643  0.1980
 6358TIP3    H140489   6.196   5.538  16.358  2.5386  0.5957  1.6684
 6358TIP3    H240490   6.132   5.672  16.334  2.6181  0.3818  0.2263
 6359TIP3   OH240491   0.217   4.050   3.505 -0.0909 -0.0222 -0.1406
 6359TIP3    H140492   0.245   4.038   3.595 -0.1771 -0.0783 -0.1217
 6359TIP3    H240493   0.183   4.140   3.502  1.0640  0.4206 -0.4137
 6360TIP3   OH240494   2.717   1.996   2.531 -0.3964  0.0850  0.1430
 6360TIP3    H140495   2.744   1.939   2.459  0.3135  0.4886  0.0789
 6360TIP3    H240496   2.623   1.983   2.539 -0.9722  2.1882 -2.7426
 6361TIP3   OH240497   3.095   4.403   1.239 -0.6786 -0.6803 -0.3274
 6361TIP3    H140498   3.155   4.441   1.173 -0.4327 -1.1883 -0.4002
 6361TIP3    H240499   3.139   4.323   1.267 -1.0143 -0.7090  0.1120
 6362TIP3   OH240500   6.324   0.143   4.465  0.0892  0.2827  0.1992
 6362TIP3    H140501   6.322   0.217   4.403 -0.6382  0.3568  0.3042
 6362TIP3    H240502   6.369   0.073   4.417 -0.7694  0.2252 -0.5509
 6363TIP3   OH240503   4.292   0.054  14.570  0.4012  0.4628 -0.6977
 6363TIP3    H140504   4.368   0.041  14.513  1.6839 -3.4368  1.7170
 6363TIP3    H240505   4.326   0.100  14.646  0.0587 -0.0681 -0.2207
 6364TIP3   OH240506   4.350   6.785  15.652  0.3014 -0.0155  0.0418
 6364TIP3    H140507   4.290   6.748  15.587 -0.3502  1.0329  0.0383
 6364TIP3    H240508   4.434   6.744  15.632  0.0136 -0.0547 -1.1732
 6365TIP3   OH240509   6.169   3.271   5.100  0.3816  0.0166  0.0812
 6365TIP3    H140510   6.083   3.286   5.061  0.7533 -1.2677 -1.2551
 6365TIP3    H240511   6.170   3.177   5.119  0.9302  0.2908  1.4688
 6366TIP3   OH240512   6.721   1.480  13.130 -0.3036 -0.1138 -0.5946
 6366TIP3    H140513   6.807   1.442  13.146 -0.0206  0.2373 -1.2889
 6366TIP3    H240514   6.666   1.404  13.109 -0.4548 -0.4769  0.9959
 6367TIP3   OH240515   2.150   1.943  11.311  0.5468 -0.5159 -0.3089
 6367TIP3    H140516   2.076   1.982  11.359 -0.5520  0.1078 -2.4433
 6367TIP3    H240517   2.186   1.878  11.372 -0.3172  0.7850  1.6433
 6368TIP3   OH240518   4.380   1.513   4.560  0.2011  0.2058 -0.2837
 6368TIP3    H140519   4.363   1.423   4.532  0.9620 -0.1111  0.2496
 6368TIP3    H240520   4.389   1.507   4.655 -0.7318  1.0105 -0.1359
 6369TIP3   OH240521   0.855   4.476   5.525  0.2229  0.1498 -0.4295
 6369TIP3    H140522   0.832   4.480   5.618 -0.2101 -1.0591 -0.4686
 6369TIP3    H240523   0.947   4.451   5.524  0.5143  1.2216 -0.3129
 6370TIP3   OH240524   0.536   0.091   0.820 -0.3979 -0.0813  0.1266
 6370TIP3    H140525   0.557   0.081   0.913 -1.0484 -1.0935  0.1757
 6370TIP3    H240526   0.442   0.071   0.815 -0.1835 -0.8497 -0.8685
 6371TIP3   OH240527   4.361   3.233  16.412 -0.3077  0.4599 -0.4545
 6371TIP3    H140528   4.446   3.193  16.395 -0.2654  1.0165 -1.5882
 6371TIP3    H240529   4.381   3.326  16.426 -0.7651  0.6507 -1.0665
 6372TIP3   OH240530   0.096   1.339  15.957  0.7347  0.4792  0.4441
 6372TIP3    H140531   0.110   1.277  15.885 -1.9295  0.2958  0.0596
 6372TIP3    H240532   0.102   1.286  16.036  0.6748  0.1336  0.2175
 6373TIP3   OH240533   3.377   4.334  14.783 -0.6842 -1.1853 -0.2704
 6373TIP3    H140534   3.302   4.275  14.785 -0.7439 -1.1821 -1.6502
 6373TIP3    H240535   3.436   4.295  14.718 -0.6778  0.2091 -1.1272
 6374TIP3   OH240536   0.062   0.282   6.175 -0.7906  0.2524 -0.0238
 6374TIP3    H140537  -0.011   0.301   6.117 -0.2474  0.0084 -0.7906
 6374TIP3    H240538   0.028   0.215   6.235  0.1976 -3.4152 -3.3559
 6375TIP3   OH240539   4.141   0.242   2.696 -0.2509 -0.4852 -0.6173
 6375TIP3    H140540   4.119   0.163   2.746 -0.1469 -0.0911  0.0618
 6375TIP3    H240541   4.059   0.289   2.687  0.2504  1.0211  1.9798
 6376TIP3   OH240542   2.125   6.165   2.431  0.4432  0.3846 -0.2542
 6376TIP3    H140543   2.149   6.075   2.455 -0.8710  0.6485  2.1851
 6376TIP3    H240544   2.165   6.178   2.345  0.5232 -2.5895 -0.7296
 6377TIP3   OH240545   0.017   1.533  13.414 -0.2042 -0.6640 -0.1310
 6377TIP3    H140546   0.074   1.522  13.338 -0.9871 -0.2928 -0.7798
 6377TIP3    H240547  -0.067   1.494  13.388 -0.6635  0.0100  0.3046
 6378TIP3   OH240548   1.259   5.296  16.410  0.1378 -0.8591  0.3895
 6378TIP3    H140549   1.314   5.339  16.344 -0.4366 -0.7564 -0.0183
 6378TIP3    H240550   1.319   5.235  16.454  0.5572 -0.8278 -0.1315
 6379TIP3   OH240551   1.694   6.089  13.651 -0.0487 -0.2762 -0.0343
 6379TIP3    H140552   1.667   6.162  13.595 -0.0262  0.1887  0.5631
 6379TIP3    H240553   1.710   6.018  13.589  0.1503  0.2848 -0.6437
 6380TIP3   OH240554   1.077   1.190   0.855 -0.2688  0.3675 -0.0813
 6380TIP3    H140555   1.168   1.160   0.852 -0.4454 -0.1233 -1.1888
 6380TIP3    H240556   1.075   1.265   0.795 -1.0471 -1.0059 -1.8345
 6381TIP3   OH240557   1.412   6.465  13.645  0.0360 -0.1225 -0.3017
 6381TIP3    H140558   1.338   6.509  13.688  0.5759 -0.4093  0.9414
 6381TIP3    H240559   1.430   6.519  13.568 -1.1316  0.2433 -0.3378
 6382TIP3   OH240560   2.880   0.987   0.635 -0.8489 -0.3921  0.1962
 6382TIP3    H140561   2.903   0.903   0.675 -1.2959 -0.6802 -0.1426
 6382TIP3    H240562   2.959   1.014   0.588 -0.4564 -0.2515  0.9360
 6383TIP3   OH240563   4.487   6.261   5.552 -0.2228  0.4786  0.2361
 6383TIP3    H140564   4.551   6.192   5.534  0.7090  1.3653  0.1173
 6383TIP3    H240565   4.528   6.314   5.621 -1.1035  0.6893  0.6113
 6384TIP3   OH240566   6.209   5.455  15.319  0.5058  0.2084  0.1825
 6384TIP3    H140567   6.271   5.518  15.355  1.7532 -0.5763 -0.5502
 6384TIP3    H240568   6.176   5.497  15.240 -0.5384  0.9777  1.0114
 6385TIP3   OH240569   4.710   0.467   0.509 -0.4438 -0.3746  0.0440
 6385TIP3    H140570   4.694   0.430   0.422  1.9637  0.4161 -0.7671
 6385TIP3    H240571   4.765   0.544   0.492 -3.0501  1.9985  1.9250
 6386TIP3   OH240572   2.262   0.531  15.484 -0.1651  0.5146 -0.3582
 6386TIP3    H140573   2.202   0.458  15.490  0.5628 -0.0942 -0.3995
 6386TIP3    H240574   2.280   0.555  15.575 -0.2513  0.5174 -0.3417
 6387TIP3   OH240575   3.164   0.631  11.287  0.1400 -0.0263  0.2510
 6387TIP3    H140576   3.175   0.559  11.349 -0.5771 -0.1906  0.1884
 6387TIP3    H240577   3.090   0.605  11.232 -1.1909  1.4780  1.2816
 6388TIP3   OH240578   6.066   2.377  14.306  0.2728  0.1868  0.3323
 6388TIP3    H140579   6.131   2.343  14.369  0.4826 -0.7077 -0.3593
 6388TIP3    H240580   6.119   2.414  14.235  0.0287 -1.5674 -0.7759
 6389TIP3   OH240581   0.373   6.370  12.691  0.1899 -0.1778 -0.4930
 6389TIP3    H140582   0.370   6.353  12.596  1.7347  0.2203 -0.6330
 6389TIP3    H240583   0.318   6.447  12.703 -1.3713 -1.2121 -0.8194
 6390TIP3   OH240584   0.739   5.904   5.958 -0.5981 -0.1450 -0.6072
 6390TIP3    H140585   0.690   5.922   6.038 -0.2465 -0.0430 -0.4166
 6390TIP3    H240586   0.675   5.863   5.900 -1.3372  1.4642 -0.9585
 6391TIP3   OH240587   1.803   6.553  13.272  0.3230  0.2276 -0.3427
 6391TIP3    H140588   1.789   6.618  13.341  0.0239  0.7412 -0.8875
 6391TIP3    H240589   1.855   6.598  13.206 -0.5912  0.1779 -1.1029
 6392TIP3   OH240590   6.296   4.548  14.569 -0.3697 -0.1036  0.0289
 6392TIP3    H140591   6.305   4.491  14.492  0.1781 -3.1296  2.2420
 6392TIP3    H240592   6.205   4.577  14.567 -0.3817 -0.1951 -1.7149
 6393TIP3   OH240593   6.020   3.230   2.323  0.0471  0.6294 -0.0130
 6393TIP3    H140594   6.067   3.310   2.342 -0.3054  1.1440 -1.2965
 6393TIP3    H240595   6.050   3.203   2.237 -2.4046  1.2923 -1.1292
 6394TIP3   OH240596   4.268   2.337  13.557 -0.0533 -0.0549 -0.1275
 6394TIP3    H140597   4.245   2.323  13.465 -0.3269 -1.1332  0.1002
 6394TIP3    H240598   4.212   2.277  13.606  0.1993  0.3980  0.7402
 6395TIP3   OH240599   1.271   4.362   3.438  0.7812 -0.3060  0.1372
 6395TIP3    H140600   1.290   4.318   3.355  0.0015  0.3912 -0.4130
 6395TIP3    H240601   1.330   4.438   3.439 -1.6536  1.6606 -1.4088
 6396TIP3   OH240602   4.663   1.427  16.872  0.2097 -0.2194  0.5935
 6396TIP3    H140603   4.732   1.483  16.837  0.5098 -1.2093 -0.4397
 6396TIP3    H240604   4.703   1.340  16.875 -0.7494 -0.6611  0.6861
 6397TIP3   OH240605   4.017   1.158   2.008 -0.2112 -0.3438 -0.5347
 6397TIP3    H140606   3.926   1.182   1.995 -0.2131 -0.0725 -0.0341
 6397TIP3    H240607   4.032   1.171   2.102  1.5138  3.6658 -1.2860
 6398TIP3   OH240608   3.722   0.708  14.652 -0.0508 -0.0883 -0.0041
 6398TIP3    H140609   3.760   0.681  14.735  1.8220 -0.4712 -0.9662
 6398TIP3    H240610   3.795   0.708  14.590 -1.9449 -2.8963 -2.3884
 6399TIP3   OH240611   6.418   1.214  11.367  0.0501 -0.5732  0.0382
 6399TIP3    H140612   6.494   1.228  11.424 -0.2577  2.3497 -0.1660
 6399TIP3    H240613   6.414   1.119  11.355  2.4974 -0.9361  1.6366
 6400TIP3   OH240614   3.834   4.939  14.193 -0.1796  0.4488  0.5247
 6400TIP3    H140615   3.885   4.927  14.113  0.1696 -0.4503  0.8771
 6400TIP3    H240616   3.891   4.904  14.262 -2.0624 -2.4663  0.6895
 6401TIP3   OH240617   5.607   4.121   5.522 -0.0557 -0.1494 -0.6514
 6401TIP3    H140618   5.608   4.147   5.430 -1.2248 -0.1355 -0.6586
 6401TIP3    H240619   5.652   4.036   5.523 -3.9456 -2.3665 -1.9249
 6402TIP3   OH240620   5.700   0.436   4.092  0.3886  0.1889 -0.2099
 6402TIP3    H140621   5.724   0.364   4.151 -2.3200 -0.3829  0.2494
 6402TIP3    H240622   5.738   0.514   4.133 -1.9980 -0.1004  2.6745
 6403TIP3   OH240623   5.162   2.156   2.603 -0.5469 -0.0965  0.0137
 6403TIP3    H140624   5.110   2.163   2.683 -0.1087 -0.7488  0.3609
 6403TIP3    H240625   5.252   2.174   2.632 -0.6062  1.2771 -0.6281
 6404TIP3   OH240626   6.228   0.469  16.286  0.1800 -0.0949 -0.0310
 6404TIP3    H140627   6.258   0.552  16.323  2.9666 -0.2828 -1.7753
 6404TIP3    H240628   6.271   0.402  16.339 -2.6800 -0.5190  1.8821
 6405TIP3   OH240629   3.885   0.318   0.266  0.3495 -0.0721  0.1455
 6405TIP3    H140630   3.872   0.336   0.359 -1.4274 -0.4552 -0.0120
 6405TIP3    H240631   3.974   0.348   0.248  1.6987 -2.3938  2.5641
 6406TIP3   OH240632   5.827   2.060  13.884  0.3229  0.2852 -0.3627
 6406TIP3    H140633   5.847   2.111  13.962  1.8955  1.3618 -1.4425
 6406TIP3    H240634   5.761   2.112  13.838 -2.3653 -1.4748  1.3575
 6407TIP3   OH240635   1.186   3.209  17.122 -0.8763 -0.1977  0.1966
 6407TIP3    H140636   1.257   3.257  17.164 -0.9250 -0.7545  0.9157
 6407TIP3    H240637   1.231   3.143  17.069 -0.7794  1.1365 -1.4376
 6408TIP3   OH240638   4.417   3.528  14.735 -0.0276  0.4435 -0.8367
 6408TIP3    H140639   4.322   3.524  14.747  0.1090 -1.3599 -0.2095
 6408TIP3    H240640   4.447   3.587  14.804 -0.3401 -1.8709  1.3821
 6409TIP3   OH240641   6.081   2.522   3.928 -0.0993  0.4997 -0.5777
 6409TIP3    H140642   5.989   2.504   3.948 -0.1008  0.5037 -0.5806
 6409TIP3    H240643   6.127   2.503   4.010 -0.2876  1.9159 -0.1402
 6410TIP3   OH240644   1.408   2.319   5.153  0.2092 -0.1808 -0.1889
 6410TIP3    H140645   1.402   2.382   5.225  0.3414  0.7879 -1.0171
 6410TIP3    H240646   1.418   2.373   5.075  2.0020 -1.2839 -0.7360
 6411TIP3   OH240647   2.242   2.763  16.849 -0.3576 -0.0699 -0.2188
 6411TIP3    H140648   2.300   2.772  16.773 -1.9347 -0.9665 -1.5716
 6411TIP3    H240649   2.187   2.841  16.847 -2.7225 -1.7037 -2.0812
 6412TIP3   OH240650   5.531   2.769  15.444 -0.2586  0.1960  0.5069
 6412TIP3    H140651   5.499   2.831  15.510 -1.8902 -0.1315  0.0620
 6412TIP3    H240652   5.501   2.806  15.361 -0.4463 -0.7008  0.1679
 6413TIP3   OH240653   0.877   2.485   3.687 -0.0110  0.6038 -0.9510
 6413TIP3    H140654   0.968   2.487   3.715 -0.0659  1.5180 -0.8092
 6413TIP3    H240655   0.853   2.392   3.687  0.4139  0.4729  0.6651
 6414TIP3   OH240656   0.413   1.838  14.752  0.5788  0.0160  0.1095
 6414TIP3    H140657   0.418   1.874  14.663 -0.4586  0.0750  0.0752
 6414TIP3    H240658   0.504   1.832  14.780  0.8106  1.9775 -0.1619
 6415TIP3   OH240659   4.053   1.258  14.849 -0.2547  0.7743  0.4930
 6415TIP3    H140660   4.101   1.176  14.854 -0.8362  0.2968 -1.4111
 6415TIP3    H240661   4.062   1.286  14.758 -1.6957  1.8238  0.6497
 6416TIP3   OH240662   1.847   5.635  13.942  0.4793  0.6674  0.1357
 6416TIP3    H140663   1.763   5.591  13.948  0.2791  0.7374 -1.8380
 6416TIP3    H240664   1.870   5.656  14.033 -0.5235 -1.3888  0.8797
 6417TIP3   OH240665   1.201   6.702  11.053  0.1246 -0.8224  0.5089
 6417TIP3    H140666   1.239   6.614  11.043 -0.0657 -1.3035  3.4930
 6417TIP3    H240667   1.108   6.686  11.066 -0.3442  0.0351 -1.6249
 6418TIP3   OH240668   5.012   0.383  16.466 -0.1036 -0.1262  0.2217
 6418TIP3    H140669   5.072   0.309  16.453  0.2096  0.5593 -2.6420
 6418TIP3    H240670   5.061   0.445  16.519  0.8404 -0.5952 -0.0851
 6419TIP3   OH240671   6.068   2.762  16.528 -0.1380 -1.0089 -0.0135
 6419TIP3    H140672   6.157   2.793  16.547 -0.6443  0.6713 -0.2879
 6419TIP3    H240673   6.019   2.842  16.508 -1.1865 -2.1086 -2.0409
 6420TIP3   OH240674   3.393   6.404  11.849 -0.3676 -0.0278  0.6914
 6420TIP3    H140675   3.394   6.423  11.943  2.4109 -0.6477  0.8592
 6420TIP3    H240676   3.438   6.478  11.809  1.4757 -1.3434  0.2557
 6421TIP3   OH240677   4.473   2.341  15.170  0.2589  0.0269 -0.1423
 6421TIP3    H140678   4.439   2.415  15.120 -1.5741 -0.5334  0.2328
 6421TIP3    H240679   4.469   2.267  15.110  0.0253 -0.2084  0.1566
 6422TIP3   OH240680   4.542   0.120   6.318  0.2139  0.6928 -0.0664
 6422TIP3    H140681   4.625   0.087   6.352  0.1101  0.0012 -0.4764
 6422TIP3    H240682   4.510   0.179   6.387  1.5470  1.7888 -0.3731
 6423TIP3   OH240683   5.409   6.280   5.578  1.1555  0.0805  0.0180
 6423TIP3    H140684   5.436   6.251   5.665  2.4542  0.1413 -0.3606
 6423TIP3    H240685   5.488   6.317   5.539  0.7001 -0.3808 -1.3797
 6424TIP3   OH240686   0.764   5.987   1.568  0.8525  0.1937 -0.2612
 6424TIP3    H140687   0.828   5.938   1.516 -1.7494 -2.0400 -1.4699
 6424TIP3    H240688   0.742   5.929   1.640 -1.8033 -0.2316 -1.3641
 6425TIP3   OH240689   1.613   4.638  13.351  0.1265  0.0396 -0.4821
 6425TIP3    H140690   1.529   4.684  13.342 -0.5214 -0.8755  0.7634
 6425TIP3    H240691   1.610   4.571  13.283 -0.0178  0.2184 -0.6534
 6426TIP3   OH240692   4.995   5.690  16.611  0.2616 -0.4338 -0.1215
 6426TIP3    H140693   4.911   5.716  16.574  0.1370 -1.2274 -0.4209
 6426TIP3    H240694   4.996   5.727  16.699 -1.7851 -3.0722  1.1070
 6427TIP3   OH240695   2.102   3.061  11.083 -0.2185  0.1857 -0.8106
 6427TIP3    H140696   2.096   2.979  11.132 -1.9818 -0.1935 -1.6288
 6427TIP3    H240697   2.115   3.034  10.992 -0.3344  0.8315 -1.0234
 6428TIP3   OH240698   3.191   0.862  12.785 -0.6826  0.7913  0.4356
 6428TIP3    H140699   3.150   0.845  12.700 -1.7866 -0.7970  1.2615
 6428TIP3    H240700   3.206   0.775  12.822  1.6532  1.4009  1.0079
 6429TIP3   OH240701   0.707   2.763  10.681 -0.1470  0.6238 -0.1646
 6429TIP3    H140702   0.768   2.835  10.666  0.7015  0.5723  2.7105
 6429TIP3    H240703   0.763   2.688  10.702 -1.1284  0.1397  0.7661
 6430TIP3   OH240704   6.609   5.744  11.791  0.3793  0.0249 -0.3654
 6430TIP3    H140705   6.579   5.700  11.870 -3.3476 -0.3865 -1.8801
 6430TIP3    H240706   6.659   5.676  11.744 -1.0753 -1.0864 -0.3519
 6431TIP3   OH240707   3.115   5.140   4.273 -0.5852 -0.1607  0.0411
 6431TIP3    H140708   3.041   5.200   4.271 -0.9093 -0.5567  0.1880
 6431TIP3    H240709   3.078   5.055   4.249 -0.4629 -0.6696  1.6331
 6432TIP3   OH240710   4.629   5.574  15.441  0.3536 -0.0413 -0.1812
 6432TIP3    H140711   4.587   5.658  15.456  1.4391  0.4502  0.1551
 6432TIP3    H240712   4.701   5.593  15.381 -0.5343 -1.0557 -1.6213
 6433TIP3   OH240713   3.435   1.246   4.732 -0.3009 -0.3388 -0.7222
 6433TIP3    H140714   3.506   1.193   4.696  0.4290 -1.0166  1.5963
 6433TIP3    H240715   3.369   1.183   4.759 -0.9061  0.1578 -1.0476
 6434TIP3   OH240716   0.758   2.845  16.654  0.8237  0.4330 -0.0329
 6434TIP3    H140717   0.749   2.885  16.740  1.1113 -0.1911  0.2870
 6434TIP3    H240718   0.841   2.798  16.657  1.2697  1.1321 -0.9537
 6435TIP3   OH240719   4.280   5.978  15.359 -0.2934  0.0405  0.5984
 6435TIP3    H140720   4.355   5.929  15.392  0.0197 -0.0864 -0.2871
 6435TIP3    H240721   4.317   6.062  15.332 -0.4881  0.0177  0.2609
 6436TIP3   OH240722   3.555   6.483  17.075  0.0301  0.2318 -0.1885
 6436TIP3    H140723   3.480   6.425  17.082 -0.1673  0.5669  0.4673
 6436TIP3    H240724   3.612   6.457  17.148 -0.0749  0.8786  0.1266
 6437TIP3   OH240725   0.266   5.478   2.346  0.3613  0.2150  0.0891
 6437TIP3    H140726   0.337   5.509   2.403  0.2152  0.3492  0.1979
 6437TIP3    H240727   0.236   5.397   2.387  0.4369  0.1684  0.0538
 6438TIP3   OH240728   5.292   0.908  13.219  0.3186  0.1174 -0.2563
 6438TIP3    H140729   5.280   0.899  13.124 -0.6992 -0.0083 -0.1255
 6438TIP3    H240730   5.312   0.819  13.249  1.5501  0.3147 -0.4687
 6439TIP3   OH240731   0.045   1.685   3.019 -0.7077 -0.1065 -0.0567
 6439TIP3    H140732  -0.034   1.728   2.986  0.7768  0.3659 -3.2444
 6439TIP3    H240733   0.107   1.691   2.946  2.5658  0.2504  2.6553
 6440TIP3   OH240734   1.527   6.573   1.722  0.0604  0.4267  0.0559
 6440TIP3    H140735   1.455   6.515   1.748  0.5360 -0.3381 -0.3454
 6440TIP3    H240736   1.504   6.657   1.761 -0.5273 -0.0783  0.8185
 6441TIP3   OH240737   3.975   0.501  12.579 -0.1294 -0.3408 -0.1011
 6441TIP3    H140738   3.927   0.501  12.497  0.3337  0.8310 -0.3935
 6441TIP3    H240739   4.052   0.446  12.563 -0.0295 -0.0961 -0.4607
 6442TIP3   OH240740   5.162   1.718  15.739  0.3613  0.0595  0.3265
 6442TIP3    H140741   5.246   1.692  15.775 -0.1650 -0.2350  1.3516
 6442TIP3    H240742   5.107   1.736  15.815 -0.9726 -1.2246 -0.2901
 6443TIP3   OH240743   0.288   4.936   6.158 -0.2442  0.4188  0.2189
 6443TIP3    H140744   0.323   4.891   6.234 -0.5286  0.9033  0.6394
 6443TIP3    H240745   0.193   4.921   6.163 -0.3898  1.4712  0.6279
 6444TIP3   OH240746   0.226   0.742  16.837 -0.2707  0.6239  0.2352
 6444TIP3    H140747   0.307   0.695  16.856  0.3638  1.4247 -0.3956
 6444TIP3    H240748   0.232   0.822  16.890 -1.2685  0.0634  1.1927
 6445TIP3   OH240749   2.668   2.648  17.164  0.0528 -0.5056 -0.2570
 6445TIP3    H140750   2.594   2.619  17.218 -0.2237 -0.4552 -0.6094
 6445TIP3    H240751   2.658   2.743  17.158 -0.9178 -0.6873 -1.8467
 6446TIP3   OH240752   2.788   2.297   1.118 -0.8303  0.5695 -0.2825
 6446TIP3    H140753   2.733   2.296   1.196 -0.6851  0.9481 -0.1733
 6446TIP3    H240754   2.773   2.212   1.076 -0.9626  0.3971  0.1192
 6447TIP3   OH240755   5.582   6.123   1.813  0.3346  0.1137  0.3946
 6447TIP3    H140756   5.617   6.104   1.900  1.8230 -2.4591 -0.7015
 6447TIP3    H240757   5.657   6.154   1.763 -0.0766 -0.3362 -0.5175
 6448TIP3   OH240758   2.071   1.668   3.462 -0.4017 -0.7401  0.0109
 6448TIP3    H140759   2.065   1.727   3.537  1.0149 -1.7649  0.9609
 6448TIP3    H240760   2.091   1.583   3.501  2.2153 -0.9191 -1.6289
 6449TIP3   OH240761   5.932   3.639  12.153 -0.2584 -0.3207 -0.1357
 6449TIP3    H140762   5.887   3.668  12.074 -0.3938 -1.3808 -0.4534
 6449TIP3    H240763   6.025   3.649  12.134 -0.2319 -2.1454 -1.0566
 6450TIP3   OH240764   0.681   3.565   5.412  0.3342  0.1713  0.4609
 6450TIP3    H140765   0.684   3.650   5.368  1.7953  0.2010  0.5739
 6450TIP3    H240766   0.639   3.582   5.496  2.5163  1.2443  1.3937
 6451TIP3   OH240767   6.497   2.837  14.925  0.6592 -0.2237 -0.5049
 6451TIP3    H140768   6.558   2.869  14.858  0.3112  1.9648  0.1916
 6451TIP3    H240769   6.496   2.906  14.991 -3.2536  0.1777 -0.9109
 6452TIP3   OH240770   0.510   1.547  13.260  0.5504 -0.2841 -0.0665
 6452TIP3    H140771   0.521   1.502  13.344  0.7593 -0.9342 -0.4459
 6452TIP3    H240772   0.596   1.545  13.220  0.7262  1.0597  0.2080
 6453TIP3   OH240773   2.202   2.288  12.840 -0.4066  0.3234 -0.2589
 6453TIP3    H140774   2.217   2.297  12.746  0.8634 -0.5647 -0.1516
 6453TIP3    H240775   2.156   2.204  12.848 -0.1640  0.2109 -0.0551
 6454TIP3   OH240776   2.104   5.259  16.573 -0.4807  0.1586 -0.2532
 6454TIP3    H140777   2.169   5.232  16.509 -0.0238  0.0809  0.2415
 6454TIP3    H240778   2.134   5.221  16.656 -0.2578  1.4990  0.3044
 6455TIP3   OH240779   4.475   0.595   0.345 -0.5295  0.2234 -0.3642
 6455TIP3    H140780   4.479   0.648   0.266 -0.5212 -0.5833 -0.9090
 6455TIP3    H240781   4.537   0.523   0.330  0.3851  0.7301  0.8742
 6456TIP3   OH240782   5.797   2.805   1.254  0.1187  0.4764 -0.0393
 6456TIP3    H140783   5.761   2.887   1.287 -0.6452  0.7743 -1.5484
 6456TIP3    H240784   5.811   2.821   1.160  1.5983 -0.5425 -0.0169
 6457TIP3   OH240785   1.463   3.058  14.752 -0.8913  0.2836  0.8970
 6457TIP3    H140786   1.475   3.000  14.676  0.4080  1.7039 -0.0129
 6457TIP3    H240787   1.474   3.146  14.717 -1.1460  1.0123  2.5927
 6458TIP3   OH240788   5.779   0.573   1.508 -0.3269 -0.3343  0.8012
 6458TIP3    H140789   5.773   0.516   1.431  1.6082 -0.9337  1.0824
 6458TIP3    H240790   5.856   0.627   1.493 -1.1911  1.0707  1.3238
 6459TIP3   OH240791   2.621   1.959   3.347 -0.2278  0.3277 -0.4450
 6459TIP3    H140792   2.625   1.967   3.442 -1.4625 -2.4978 -0.0818
 6459TIP3    H240793   2.694   1.901   3.325 -1.1394 -0.6396 -0.9594
 6460TIP3   OH240794   0.221   4.060  15.308  0.2264  0.7048  0.2007
 6460TIP3    H140795   0.132   4.093  15.325  0.6958  2.7285 -1.1338
 6460TIP3    H240796   0.215   4.019  15.222 -0.0773 -1.7587  1.3656
 6461TIP3   OH240797   5.886   4.853  14.280  0.2229 -0.5582 -0.5322
 6461TIP3    H140798   5.939   4.929  14.305 -0.0861 -0.0559 -1.3966
 6461TIP3    H240799   5.815   4.890  14.227 -0.5498 -1.3187 -0.0427
 6462TIP3   OH240800   4.664   2.821   2.782 -0.3838 -0.4714  0.6498
 6462TIP3    H140801   4.728   2.784   2.720 -0.2740 -0.9315  1.0344
 6462TIP3    H240802   4.684   2.779   2.865  1.2548  2.1972  1.6563
 6463TIP3   OH240803   1.805   2.914  12.748 -0.3096 -0.2436  0.1639
 6463TIP3    H140804   1.837   2.859  12.820 -0.4071 -0.0543  0.3528
 6463TIP3    H240805   1.821   3.004  12.779 -2.0916 -0.1149  0.7457
 6464TIP3   OH240806   6.754   4.895   4.522  0.2441  0.4884 -0.1556
 6464TIP3    H140807   6.714   4.871   4.438 -0.0750 -0.1939  0.1798
 6464TIP3    H240808   6.680   4.909   4.581  0.4726  0.6011  0.1079
 6465TIP3   OH240809   3.574   6.701  14.342  0.1445 -0.3010  0.6403
 6465TIP3    H140810   3.480   6.715  14.337  0.5060  1.3083 -1.9659
 6465TIP3    H240811   3.602   6.750  14.420 -0.9008  0.6302  0.4262
 6466TIP3   OH240812   2.897   4.117   2.899 -0.0252  0.1513 -0.2520
 6466TIP3    H140813   2.933   4.176   2.965 -3.9658  1.7481  0.6189
 6466TIP3    H240814   2.846   4.053   2.949  2.6694 -2.9923 -1.3237
 6467TIP3   OH240815   4.336   0.219  13.847 -0.2586 -0.0551 -0.1552
 6467TIP3    H140816   4.362   0.140  13.895 -3.7815 -1.6876 -0.7744
 6467TIP3    H240817   4.269   0.259  13.903  0.7508  1.9374 -0.3625
 6468TIP3   OH240818   3.818   3.726  15.085  0.1685 -0.2818 -0.3685
 6468TIP3    H140819   3.815   3.646  15.139  0.9695 -0.4390 -0.5535
 6468TIP3    H240820   3.911   3.740  15.068 -0.1236 -0.6905 -2.3874
 6469TIP3   OH240821   0.443   4.435  15.626  0.0390  0.4116 -0.4413
 6469TIP3    H140822   0.489   4.351  15.617 -0.7271 -0.2872  1.9423
 6469TIP3    H240823   0.505   4.492  15.670 -0.4867  0.1911  0.6022
 6470TIP3   OH240824   5.420   2.006   1.194 -0.0172  0.0495  0.3081
 6470TIP3    H140825   5.384   2.059   1.123  1.1331  2.1403  1.2325
 6470TIP3    H240826   5.515   2.020   1.188  0.3623 -2.2897  0.3070
 6471TIP3   OH240827   5.592   4.923  15.291 -0.3605  0.1821 -0.6459
 6471TIP3    H140828   5.514   4.901  15.342 -0.3566 -0.6574 -1.0011
 6471TIP3    H240829   5.608   5.016  15.310 -0.8002  0.0661  0.2854
 6472TIP3   OH240830   4.458   1.808  10.355 -0.3731 -0.0415  0.5630
 6472TIP3    H140831   4.516   1.831  10.283 -0.5796 -0.3676  0.2928
 6472TIP3    H240832   4.466   1.882  10.416 -1.1347  0.8343 -0.3722
 6473TIP3   OH240833   6.075   4.833  13.895 -0.0698 -0.0195  0.4982
 6473TIP3    H140834   6.073   4.914  13.945 -0.9592 -0.2034  0.7673
 6473TIP3    H240835   5.989   4.794  13.909 -0.0277 -0.4850 -0.4894
 6474TIP3   OH240836   6.312   5.149  15.425 -0.0626 -0.2720  0.4301
 6474TIP3    H140837   6.249   5.157  15.352 -0.9892 -0.3126  1.2106
 6474TIP3    H240838   6.324   5.055  15.436 -0.1963 -0.2738  0.5590
 6475TIP3   OH240839   6.480   2.900   4.954 -0.3386 -0.3737 -0.0382
 6475TIP3    H140840   6.488   2.807   4.931 -0.8219 -0.3677 -0.2570
 6475TIP3    H240841   6.485   2.902   5.049  1.7992 -0.3925 -0.1422
 6476TIP3   OH240842   6.572   0.905   1.538 -0.1557  0.1888  0.4447
 6476TIP3    H140843   6.482   0.910   1.506  0.0182 -2.5531 -0.6273
 6476TIP3    H240844   6.566   0.850   1.616  0.4792  0.5953  0.7748
 6477TIP3   OH240845   3.910   1.556   6.179 -0.1726 -0.0099  0.0437
 6477TIP3    H140846   3.959   1.618   6.234 -0.4197  1.2458 -1.1179
 6477TIP3    H240847   3.975   1.495   6.147  0.4155  0.8443 -0.3988
 6478TIP3   OH240848   3.683   2.843  13.642  0.3576  0.1914 -0.6689
 6478TIP3    H140849   3.703   2.843  13.548 -0.0640  1.4708 -0.7747
 6478TIP3    H240850   3.620   2.914  13.652  1.0132  0.5860  0.7143
 6479TIP3   OH240851   5.795   0.938   1.493  0.2020 -0.3573  0.4951
 6479TIP3    H140852   5.837   0.998   1.555  0.6912  0.9024 -1.0157
 6479TIP3    H240853   5.705   0.970   1.487  0.5225  0.3671 -0.4809
 6480TIP3   OH240854   5.514   1.530  13.966 -0.3850 -0.0976 -0.2562
 6480TIP3    H140855   5.483   1.613  13.930 -1.2260  0.8287  2.4800
 6480TIP3    H240856   5.436   1.489  14.002  0.4298 -0.9101  0.6071
 6481TIP3   OH240857   0.201   0.311   2.258  0.5752 -0.3912  0.5988
 6481TIP3    H140858   0.209   0.226   2.215 -1.0825 -1.6930  2.7320
 6481TIP3    H240859   0.146   0.293   2.335  0.3867  2.5746  1.1937
 6482TIP3   OH240860   1.835   5.880  14.977 -0.2704  0.2682  0.2121
 6482TIP3    H140861   1.929   5.900  14.979 -0.4013  1.0496 -0.7275
 6482TIP3    H240862   1.796   5.943  15.037 -0.0684 -0.8379  1.5179
 6483TIP3   OH240863   4.195   0.164   5.057 -0.2152 -0.6246 -0.0379
 6483TIP3    H140864   4.202   0.221   5.133 -3.3954  0.2842 -0.3561
 6483TIP3    H240865   4.208   0.076   5.092  1.1695 -0.0246  1.0335
 6484TIP3   OH240866   3.852   0.198   2.941 -0.0383 -0.1150  0.4493
 6484TIP3    H140867   3.818   0.132   3.002 -0.1366 -1.1810 -0.7204
 6484TIP3    H240868   3.777   0.255   2.924 -0.0711  0.0567  1.1595
 6485TIP3   OH240869   5.874   3.723  11.443 -0.1667 -0.1312  0.6487
 6485TIP3    H140870   5.915   3.810  11.444  0.3980 -0.3335  4.8739
 6485TIP3    H240871   5.947   3.663  11.429 -0.3491 -0.0129 -0.8403
 6486TIP3   OH240872   4.784   0.542  12.524 -0.3401  0.4603 -0.0373
 6486TIP3    H140873   4.754   0.630  12.501  0.0899  0.6742  0.2142
 6486TIP3    H240874   4.843   0.556  12.598 -0.1141 -0.0206 -0.1278
 6487TIP3   OH240875   0.752   6.554   4.552  0.2354 -0.3433  0.5731
 6487TIP3    H140876   0.837   6.597   4.541  0.2833 -0.1234  1.7705
 6487TIP3    H240877   0.741   6.503   4.472  0.4968  1.3281 -0.5698
 6488TIP3   OH240878   3.550   3.662   2.009  1.0193 -0.5446 -0.3006
 6488TIP3    H140879   3.587   3.581   1.974  0.6914  0.3021 -2.6608
 6488TIP3    H240880   3.459   3.662   1.980  0.9179  0.4977 -0.0174
 6489TIP3   OH240881   2.500   6.296   0.813  0.2195  0.0047  0.7768
 6489TIP3    H140882   2.574   6.261   0.862 -0.1875 -0.6197  0.9469
 6489TIP3    H240883   2.423   6.250   0.848 -0.4122  1.5492  1.4920
 6490TIP3   OH240884   1.018   6.496   0.404  0.3478  0.8175  0.8261
 6490TIP3    H140885   1.014   6.554   0.480 -0.4077  0.4297  1.0838
 6490TIP3    H240886   1.075   6.424   0.431 -1.0311 -0.0321  1.5205
 6491TIP3   OH240887   3.787   5.885   6.125 -0.0031  0.6567  0.2732
 6491TIP3    H140888   3.756   5.961   6.174 -0.5708  1.8809 -1.9333
 6491TIP3    H240889   3.868   5.914   6.084  0.5507 -0.4122  0.5915
 6492TIP3   OH240890   0.878   1.042  15.900  0.1275  0.3887 -0.1104
 6492TIP3    H140891   0.930   1.048  15.820  1.4250 -1.2234  0.5955
 6492TIP3    H240892   0.942   1.034  15.970 -1.0263  0.5034  0.9758
 6493TIP3   OH240893   5.595   3.072  11.034 -0.1695 -0.4912 -0.0718
 6493TIP3    H140894   5.541   3.096  10.958  0.8115  0.3122 -0.5324
 6493TIP3    H240895   5.562   2.986  11.061 -1.1357 -0.3761 -0.8394
 6494TIP3   OH240896   2.816   4.245  15.844  0.0110 -0.2341 -0.4181
 6494TIP3    H140897   2.870   4.298  15.904 -0.2140  0.1668 -0.5666
 6494TIP3    H240898   2.730   4.244  15.885  0.1323 -0.8898 -0.1738
 6495TIP3   OH240899   4.806   6.106  16.921 -0.0598 -0.1917  0.0463
 6495TIP3    H140900   4.776   6.166  16.989 -0.9576  1.1304 -1.4538
 6495TIP3    H240901   4.894   6.135  16.900  0.5163 -1.1010  1.1874
 6496TIP3   OH240902   1.826   6.425   2.078 -0.1150 -0.2298 -0.2476
 6496TIP3    H140903   1.833   6.520   2.090 -0.9796 -0.2037  0.1200
 6496TIP3    H240904   1.879   6.388   2.148 -0.4316 -0.0209  0.1087
 6497TIP3   OH240905   1.334   5.519  13.195 -0.2142  0.1354 -0.0416
 6497TIP3    H140906   1.271   5.454  13.226 -1.0228  0.9082 -0.0338
 6497TIP3    H240907   1.360   5.567  13.274 -1.6037  1.5212 -0.3971
 6498TIP3   OH240908   5.540   0.371   0.531  0.7046 -0.4961  0.5840
 6498TIP3    H140909   5.481   0.388   0.605  1.0190 -1.3450  1.0330
 6498TIP3    H240910   5.485   0.381   0.454 -1.0029 -5.0568  1.1006
 6499TIP3   OH240911   5.145   0.070  16.290  0.0880 -0.0977 -0.0521
 6499TIP3    H140912   5.106   0.129  16.225 -0.1763 -1.8202 -1.5183
 6499TIP3    H240913   5.240   0.079  16.277  0.0669  0.4523  0.1578
 6500TIP3   OH240914   2.856   2.649   4.965  0.3218  0.6704 -0.8221
 6500TIP3    H140915   2.911   2.699   4.905 -1.0057  0.7622 -1.9805
 6500TIP3    H240916   2.803   2.715   5.010  1.6764  0.6515  0.8693
 6501TIP3   OH240917   0.714   3.224   4.517  0.4025 -0.3961 -0.4538
 6501TIP3    H140918   0.685   3.285   4.450 -0.1175  1.1172  1.1001
 6501TIP3    H240919   0.634   3.186   4.553  0.6619 -1.0081 -0.5077
 6502TIP3   OH240920   1.758   4.848   5.019 -0.2272  0.1613 -0.2631
 6502TIP3    H140921   1.822   4.805   5.076  0.4489  1.0289 -0.3560
 6502TIP3    H240922   1.722   4.918   5.073 -0.1574  0.4856 -0.6374
 6503TIP3   OH240923   6.295   6.555   2.250 -0.7419 -0.4849  0.0938
 6503TIP3    H140924   6.310   6.554   2.155 -1.0143 -0.0081  0.0454
 6503TIP3    H240925   6.201   6.570   2.259 -0.5589  0.4302  0.4544
 6504TIP3   OH240926   1.791   1.152  13.157 -0.3208  0.0933 -0.3981
 6504TIP3    H140927   1.740   1.215  13.208 -0.8844  1.2560 -2.3425
 6504TIP3    H240928   1.818   1.200  13.079 -0.9550 -2.1260 -2.0443
 6505TIP3   OH240929   0.247   1.560  15.007  0.1390  0.4636  0.5328
 6505TIP3    H140930   0.245   1.479  15.058  0.3018  0.4143  0.4602
 6505TIP3    H240931   0.164   1.560  14.959  0.0325  0.4593  0.7192
 6506TIP3   OH240932   1.506   0.675   3.409  0.2938  0.1442  0.2846
 6506TIP3    H140933   1.597   0.702   3.398  0.2817  0.3566  0.7167
 6506TIP3    H240934   1.456   0.736   3.355  0.1956  1.4623  1.8489
 6507TIP3   OH240935   0.202   0.039  17.117  0.1358  0.1697 -0.0055
 6507TIP3    H140936   0.282   0.089  17.103  0.1366 -0.0580 -0.8269
 6507TIP3    H240937   0.233  -0.046  17.148  0.2619 -0.2541 -1.2812
 6508TIP3   OH240938   4.658   1.242   3.873  0.0417 -0.7193  0.6004
 6508TIP3    H140939   4.627   1.200   3.792 -0.3943  1.8224 -0.5836
 6508TIP3    H240940   4.727   1.302   3.844 -0.3438  0.4692  2.0766
 6509TIP3   OH240941   4.587   0.908  15.595 -0.2425 -0.3410  0.1190
 6509TIP3    H140942   4.525   0.950  15.654  0.3335  0.3578  0.2331
 6509TIP3    H240943   4.533   0.872  15.524 -0.7968 -0.0109  0.3738
 6510TIP3   OH240944   3.730   1.292   0.205  0.2873  0.1349  0.1276
 6510TIP3    H140945   3.770   1.233   0.269  0.7605  0.0275 -0.2640
 6510TIP3    H240946   3.703   1.368   0.256 -0.2612 -0.3870  0.6235
 6511TIP3   OH240947   4.537   5.698   2.414  0.1627  0.4441  0.4753
 6511TIP3    H140948   4.555   5.619   2.363 -0.8209  2.2139 -2.8227
 6511TIP3    H240949   4.623   5.731   2.438  0.5661 -1.8294  2.3004
 6512TIP3   OH240950   3.811   0.596   5.517  0.7519  0.5170  0.6024
 6512TIP3    H140951   3.817   0.668   5.455  0.2191 -0.0183 -0.0708
 6512TIP3    H240952   3.717   0.588   5.536  1.0072  1.3759  2.2916
 6513TIP3   OH240953   1.110   3.867   3.940  0.1617  0.3443  0.1643
 6513TIP3    H140954   1.075   3.944   3.893  0.6003  1.1695  1.1911
 6513TIP3    H240955   1.177   3.902   3.997 -0.8992 -0.5527  1.9978
 6514TIP3   OH240956   3.271   1.225   0.261 -0.1935  0.2789  0.2555
 6514TIP3    H140957   3.351   1.249   0.213 -1.2813 -2.1467 -2.9843
 6514TIP3    H240958   3.237   1.150   0.213 -4.0462  0.8006  2.0270
 6515TIP3   OH240959   4.172   3.267  16.958 -0.2189  0.4235 -0.3877
 6515TIP3    H140960   4.243   3.306  16.907 -0.7818  2.2275  0.1669
 6515TIP3    H240961   4.092   3.308  16.924 -0.8297 -0.1628  0.3079
 6516TIP3   OH240962   1.821   6.514  11.052 -0.5707 -0.1015  0.4987
 6516TIP3    H140963   1.726   6.502  11.052 -0.2711 -2.7948  0.8490
 6516TIP3    H240964   1.845   6.520  11.144 -0.4379  1.1078  0.3961
 6517TIP3   OH240965   4.877   3.180  10.710 -0.5985  0.0485 -0.3138
 6517TIP3    H140966   4.841   3.252  10.659 -0.9075  0.3123  0.2646
 6517TIP3    H240967   4.972   3.189  10.701 -0.6443  0.2941 -0.5595
 6518TIP3   OH240968   3.464   2.128   4.211  0.4582 -0.4751  0.4501
 6518TIP3    H140969   3.554   2.158   4.204  0.1087  0.9184  1.7581
 6518TIP3    H240970   3.461   2.080   4.294  0.4259 -2.1274 -0.4734
 6519TIP3   OH240971   1.016   3.857   1.113  0.5309 -0.2054 -0.2353
 6519TIP3    H140972   1.111   3.860   1.109  0.5571 -1.8748 -1.1739
 6519TIP3    H240973   0.987   3.893   1.029  0.3207  0.0096 -0.0758
 6520TIP3   OH240974   1.454   3.826   4.285  0.7805  0.1785  0.4754
 6520TIP3    H140975   1.415   3.829   4.373 -0.2450 -1.0408  0.0862
 6520TIP3    H240976   1.544   3.797   4.299 -0.0700 -2.4150  0.9641
 6521TIP3   OH240977   0.744   2.993  11.204 -0.1968  0.0522 -0.1553
 6521TIP3    H140978   0.758   2.931  11.276  0.8457  0.9714  0.4595
 6521TIP3    H240979   0.698   3.066  11.245  1.0187  0.8879 -0.2584
 6522TIP3   OH240980   5.773   5.661  15.066 -0.0100 -0.1382  0.4890
 6522TIP3    H140981   5.834   5.588  15.062  1.3882  0.9602  1.4014
 6522TIP3    H240982   5.693   5.628  15.026  1.1008 -1.6740 -0.4988
 6523TIP3   OH240983   4.039   4.585   2.680 -0.5095  0.0431  0.0209
 6523TIP3    H140984   3.990   4.596   2.761 -0.9449 -0.2068 -0.2092
 6523TIP3    H240985   4.128   4.563   2.709 -0.0456  2.3127  0.4769
 6524TIP3   OH240986   6.091   3.569  12.402 -0.0422  0.6378 -0.2064
 6524TIP3    H140987   6.158   3.501  12.396  1.2192  1.9335 -1.4460
 6524TIP3    H240988   6.015   3.533  12.356 -0.2548 -0.8877  1.2943
 6525TIP3   OH240989   3.662   4.831  12.708  0.1391  0.4998 -0.4447
 6525TIP3    H140990   3.730   4.788  12.759 -3.2211 -2.9790  1.3531
 6525TIP3    H240991   3.683   4.811  12.617  0.9174 -1.4805  0.1554
 6526TIP3   OH240992   0.781   3.003   0.890  0.0652  0.4630 -0.3714
 6526TIP3    H140993   0.715   3.069   0.913  2.2475  2.1906  1.1769
 6526TIP3    H240994   0.840   3.048   0.830  1.1245 -0.3364  0.0531
 6527TIP3   OH240995   1.779   4.599   4.220 -0.5084  0.1687  0.1008
 6527TIP3    H140996   1.754   4.577   4.310  2.9965 -0.0120  1.1028
 6527TIP3    H240997   1.761   4.692   4.212 -0.5344  0.2540  1.1013
 6528TIP3   OH240998   6.298   6.430   5.860 -0.3734  0.6593 -0.3228
 6528TIP3    H140999   6.293   6.372   5.785 -1.5182 -0.8974  0.9300
 6528TIP3    H241000   6.389   6.460   5.862 -0.6767  1.8922 -3.1623
 6529TIP3   OH241001   2.362   6.682   5.924  0.3417 -0.0139 -0.6759
 6529TIP3    H141002   2.275   6.660   5.956 -0.1322 -0.6216 -2.3269
 6529TIP3    H241003   2.382   6.766   5.965 -1.0017  0.1080 -0.2449
 6530TIP3   OH241004   0.173   2.873  17.113  0.0610  0.1557  0.2438
 6530TIP3    H141005   0.127   2.958  17.115  0.0044  0.1887 -1.3791
 6530TIP3    H241006   0.191   2.853  17.205 -0.3131  1.7239  0.6791
 6531TIP3   OH241007   4.230   6.067  11.883 -0.0842 -0.3664 -0.1604
 6531TIP3    H141008   4.248   6.110  11.799  0.0843 -0.4652 -0.1750
 6531TIP3    H241009   4.303   6.007  11.896  1.2086  1.4533  1.2698
 6532TIP3   OH241010   6.557   6.381   2.686 -0.1204 -0.1288  0.2220
 6532TIP3    H141011   6.561   6.358   2.594 -1.8159  0.7909 -0.1054
 6532TIP3    H241012   6.490   6.324   2.723 -0.5944  0.6236  0.5327
 6533TIP3   OH241013   0.836   5.340  15.630  0.0323 -0.1809  0.0845
 6533TIP3    H141014   0.776   5.414  15.638  0.4104  0.1184  0.1971
 6533TIP3    H241015   0.909   5.375  15.578  0.1480 -0.5153  0.0239
 6534TIP3   OH241016   6.229   4.094   2.985  1.0197 -0.2064  0.4007
 6534TIP3    H141017   6.177   4.027   3.030  0.2544  1.3838  1.9594
 6534TIP3    H241018   6.232   4.065   2.894  0.1337 -2.0081  0.9270
 6535TIP3   OH241019   1.458   0.063  13.969 -0.0141  0.1091 -0.8146
 6535TIP3    H141020   1.375   0.054  14.015  0.7594 -1.6078  0.2995
 6535TIP3    H241021   1.518   0.098  14.035  0.7300 -0.9118 -0.9456
 6536TIP3   OH241022   6.263   1.293  15.130 -0.2084  0.9147 -0.7469
 6536TIP3    H141023   6.202   1.346  15.181 -1.6734  0.0380 -1.5443
 6536TIP3    H241024   6.208   1.226  15.089  1.6518 -1.5640  0.6586
 6537TIP3   OH241025   1.040   5.439  13.027 -0.4790  0.5371 -0.2148
 6537TIP3    H141026   1.034   5.374  13.098 -0.3154 -0.3041 -0.9633
 6537TIP3    H241027   1.122   5.419  12.983  1.4857  3.6536  1.8258
 6538TIP3   OH241028   4.633   6.276   0.588 -0.2551 -0.4168  0.3486
 6538TIP3    H141029   4.709   6.224   0.612 -0.9289 -0.4860  2.3700
 6538TIP3    H241030   4.654   6.365   0.617  0.8068  0.4551 -2.8978
 6539TIP3   OH241031   1.485   0.694   4.428  0.0479 -0.2075 -0.5044
 6539TIP3    H141032   1.504   0.764   4.491 -1.1706 -1.7840  1.6786
 6539TIP3    H241033   1.555   0.630   4.441  0.2751 -0.1446 -1.3798
 6540TIP3   OH241034   5.827   4.939   5.223  0.3142 -0.1436  0.1408
 6540TIP3    H141035   5.808   4.895   5.140  0.0173  0.1307  0.0613
 6540TIP3    H241036   5.903   4.994   5.205  0.6257 -0.5450  0.2152
 6541TIP3   OH241037   1.543   0.768  15.174  0.8814  0.1672 -0.4779
 6541TIP3    H141038   1.466   0.739  15.124 -0.9968 -0.2044  2.5331
 6541TIP3    H241039   1.542   0.714  15.253  5.1865 -0.9414 -1.0668
 6542TIP3   OH241040   4.133   3.691  15.058 -0.4115  0.0264 -0.1550
 6542TIP3    H141041   4.185   3.702  14.978 -0.9960  2.3835 -0.2333
 6542TIP3    H241042   4.189   3.725  15.128  0.4303 -2.7773  0.6228
 6543TIP3   OH241043   2.122   4.020  13.541  0.2974 -0.1807  0.5339
 6543TIP3    H141044   2.202   3.986  13.500  0.6238 -0.1593  1.1508
 6543TIP3    H241045   2.141   4.020  13.635 -0.2051  0.4079  0.6358
 6544TIP3   OH241046   1.235   4.478   2.499  0.1345 -0.3336 -0.3441
 6544TIP3    H141047   1.283   4.472   2.417 -0.0632 -0.5406 -0.4452
 6544TIP3    H241048   1.149   4.439   2.480 -0.4926  1.0588 -0.4964
 6545TIP3   OH241049   2.539   6.628   3.706 -0.1524  0.0164  0.6342
 6545TIP3    H141050   2.596   6.584   3.642 -0.0920  2.9632 -1.4687
 6545TIP3    H241051   2.451   6.620   3.670 -0.0910  1.9062 -0.0382
 6546TIP3   OH241052   2.815   2.397  16.788  0.2147 -0.6542 -0.6850
 6546TIP3    H141053   2.826   2.324  16.849 -0.1487  1.0924  1.5440
 6546TIP3    H241054   2.721   2.405  16.777  0.2515 -0.4998 -0.8866
 6547TIP3   OH241055   5.529   5.737  14.339 -0.5418  0.1817 -0.1869
 6547TIP3    H141056   5.488   5.823  14.337  1.3597  1.1018 -1.5287
 6547TIP3    H241057   5.516   5.703  14.250  2.2586  0.8517 -0.8961
 6548TIP3   OH241058   3.969   4.339  14.385 -0.2658 -0.1426  0.6904
 6548TIP3    H141059   4.037   4.395  14.348  1.0435 -0.3830  2.6583
 6548TIP3    H241060   3.916   4.399  14.437 -2.6612  0.3705 -2.1924
 6549TIP3   OH241061   3.207   4.062  10.962 -0.1143  0.0273 -1.0920
 6549TIP3    H141062   3.161   3.992  10.917  1.0675 -2.0861  0.8740
 6549TIP3    H241063   3.158   4.076  11.043 -0.9108  2.1889 -1.9101
 6550TIP3   OH241064   2.868   4.272  11.400 -1.1264 -0.8003 -0.1905
 6550TIP3    H141065   2.898   4.362  11.412  0.6433 -1.4341  0.3992
 6550TIP3    H241066   2.796   4.262  11.462 -0.1831 -0.2972  1.0216
 6551TIP3   OH241067   3.231   2.821  14.086 -0.0032 -0.2866 -0.0621
 6551TIP3    H141068   3.190   2.769  14.155  0.4953 -0.4077  0.1520
 6551TIP3    H241069   3.297   2.873  14.133  0.3688 -0.4027 -0.4522
 6552TIP3   OH241070   6.238   5.267   5.139  0.7996  0.5905  0.5108
 6552TIP3    H141071   6.247   5.275   5.044 -1.2046  1.4809  0.3649
 6552TIP3    H241072   6.205   5.178   5.153  2.8324 -0.1687  0.5155
 6553TIP3   OH241073   3.103   2.418   0.114 -0.4486 -0.2239  0.5910
 6553TIP3    H141074   3.086   2.362   0.039 -0.9139 -1.7748  1.8062
 6553TIP3    H241075   3.198   2.433   0.113 -0.7018  1.3664 -1.3704
 6554TIP3   OH241076   1.672   4.108   4.096  0.3344 -0.0240 -0.3212
 6554TIP3    H141077   1.747   4.139   4.044  0.2435  1.5178  0.4460
 6554TIP3    H241078   1.711   4.078   4.178  0.2857 -0.7559 -0.5685
 6555TIP3   OH241079   0.313   0.347  15.688  0.0894  0.1245  0.1896
 6555TIP3    H141080   0.223   0.380  15.684  0.2728  0.5974 -0.0714
 6555TIP3    H241081   0.359   0.394  15.619  0.1220 -1.4216 -0.8571
 6556TIP3   OH241082   5.125   2.225  15.966 -0.3527 -0.1134  0.8951
 6556TIP3    H141083   5.033   2.232  15.992 -0.4999  0.7607  0.1626
 6556TIP3    H241084   5.124   2.168  15.890 -0.2964 -0.0987  0.8828
 6557TIP3   OH241085   3.954   2.265  14.173 -0.2996  0.2633  0.6050
 6557TIP3    H141086   4.036   2.255  14.221  0.3797  0.0117 -0.6112
 6557TIP3    H241087   3.974   2.324  14.101 -1.5962  1.5071  1.2434
 6558TIP3   OH241088   3.836   2.676   0.349 -0.3194  0.5161 -0.1049
 6558TIP3    H141089   3.897   2.636   0.411 -2.0067  0.5148  1.6302
 6558TIP3    H241090   3.875   2.662   0.263  2.7634  1.6849  1.0302
 6559TIP3   OH241091   3.562   0.573   6.900 -0.6590 -0.0182 -0.3809
 6559TIP3    H141092   3.569   0.502   6.837  2.4180 -0.4658  0.3528
 6559TIP3    H241093   3.649   0.613   6.900 -1.0724  1.0192  2.3465
 6560TIP3   OH241094   0.144   5.701  13.401  0.6384  0.2771  0.1988
 6560TIP3    H141095   0.058   5.677  13.437  0.3821  2.1280  0.8877
 6560TIP3    H241096   0.150   5.651  13.320 -0.2848 -1.3091  1.0633
 6561TIP3   OH241097   6.054   3.106  15.862  0.0515  0.2822 -0.1357
 6561TIP3    H141098   6.097   3.060  15.933 -0.8943  0.9459  0.8828
 6561TIP3    H241099   6.084   3.197  15.870  1.0060  0.0990 -1.4258
 6562TIP3   OH241100   1.624   3.975   0.800  0.2316 -0.1800  0.3924
 6562TIP3    H141101   1.640   3.883   0.783 -0.4775 -0.2393  0.0397
 6562TIP3    H241102   1.614   4.014   0.713  0.8671  0.2906  0.5263
 6563TIP3   OH241103   2.965   2.957  14.242 -0.1353 -0.0332  0.7384
 6563TIP3    H141104   2.920   3.013  14.305 -0.5539 -0.0495  0.4539
 6563TIP3    H241105   2.971   3.010  14.162 -1.8641 -0.9106 -0.0095
 6564TIP3   OH241106   2.851   2.044   0.243  0.1792 -0.0617 -0.1037
 6564TIP3    H141107   2.765   2.082   0.261  0.1554 -0.5868  0.8980
 6564TIP3    H241108   2.842   1.952   0.265  1.0529 -0.0860  0.1577
 6565TIP3   OH241109   4.232   1.314   2.734  0.5290 -0.1605 -0.7378
 6565TIP3    H141110   4.166   1.340   2.798  0.6664 -1.5537 -0.0055
 6565TIP3    H241111   4.311   1.300   2.786  0.6847 -1.1435 -1.2260
 6566TIP3   OH241112   2.307   1.650   3.094 -1.1397  0.0490  0.8993
 6566TIP3    H141113   2.218   1.644   3.127 -1.4577  0.2041  0.0739
 6566TIP3    H241114   2.300   1.706   3.017 -0.3939 -0.2841  0.5872
 6567TIP3   OH241115   0.305   3.313   2.679  0.4634  0.2617 -0.0751
 6567TIP3    H141116   0.238   3.301   2.612  1.5250 -2.2225 -0.7743
 6567TIP3    H241117   0.362   3.236   2.669  1.4089  0.5365  2.7870
 6568TIP3   OH241118   5.680   6.014   2.070 -0.6820 -0.1682  0.3056
 6568TIP3    H141119   5.758   6.027   2.016 -0.8539 -3.0632 -0.7059
 6568TIP3    H241120   5.705   6.047   2.156  0.8330  1.1242 -0.6062
 6569TIP3   OH241121   3.831   5.711   5.772  0.0579  0.3533  0.8563
 6569TIP3    H141122   3.924   5.693   5.758  0.0569  0.5819  0.5574
 6569TIP3    H241123   3.793   5.625   5.787  0.1347  0.1444 -0.1191
 6570TIP3   OH241124   0.835   3.078  14.374 -0.0866  0.0615 -0.0594
 6570TIP3    H141125   0.890   3.156  14.366  1.0580 -0.9064 -1.9018
 6570TIP3    H241126   0.787   3.073  14.292 -1.4814 -0.2095  0.7505
 6571TIP3   OH241127   5.172   1.175   2.017  0.0331  0.5258 -0.4515
 6571TIP3    H141128   5.133   1.133   1.941  0.9054  1.5025 -1.4453
 6571TIP3    H241129   5.103   1.233   2.050 -0.0687  0.6997 -0.9704
 6572TIP3   OH241130   3.515   0.983  12.539 -0.5693  0.4015 -0.3682
 6572TIP3    H141131   3.500   0.997  12.445 -2.6329  0.9827  0.0343
 6572TIP3    H241132   3.581   1.049  12.562 -1.4222  1.5114 -1.0213
 6573TIP3   OH241133   1.760   2.545  15.095 -0.1110  0.1407  0.0938
 6573TIP3    H141134   1.779   2.639  15.092 -0.4268  0.2912  2.1932
 6573TIP3    H241135   1.816   2.508  15.027  0.6661  1.7486 -0.1864
 6574TIP3   OH241136   3.517   3.177   3.081 -0.4832  0.5209  0.6326
 6574TIP3    H141137   3.465   3.257   3.073  0.4717  1.0282 -0.6264
 6574TIP3    H241138   3.453   3.108   3.101 -1.4543  1.3877  0.5212
 6575TIP3   OH241139   2.524   5.009   0.371  0.0039  0.7817  0.6881
 6575TIP3    H141140   2.490   4.920   0.368  1.4035  0.2312  0.4734
 6575TIP3    H241141   2.507   5.040   0.460 -0.2580  0.2111  0.8336
 6576TIP3   OH241142   2.164   0.661  12.520  0.2323  0.2089  0.5281
 6576TIP3    H141143   2.132   0.719  12.450 -0.4912 -1.2279 -0.3498
 6576TIP3    H241144   2.145   0.573  12.488  2.3961 -0.5701  1.3404
 6577TIP3   OH241145   1.943   5.071  15.265 -0.0484  0.0053 -0.1283
 6577TIP3    H141146   2.030   5.070  15.305 -0.1740  1.5682  0.2053
 6577TIP3    H241147   1.890   5.123  15.324 -0.0077  3.1715 -2.7481
 6578TIP3   OH241148   6.064   0.664   1.376 -0.0363  0.8865  0.0383
 6578TIP3    H141149   5.998   0.700   1.318  1.3358  2.0104 -0.8428
 6578TIP3    H241150   6.106   0.740   1.416  1.0588  0.2118  0.2063
 6579TIP3   OH241151   6.200   5.813  11.712 -0.3081 -0.8126  0.5499
 6579TIP3    H141152   6.192   5.903  11.741 -1.5477 -0.1334 -1.7792
 6579TIP3    H241153   6.280   5.812  11.660  0.6560 -1.4829  2.0211
 6580TIP3   OH241154   1.649   1.626  11.519 -0.5726  0.3063 -0.0395
 6580TIP3    H141155   1.557   1.649  11.527 -0.4578  0.8152 -0.1758
 6580TIP3    H241156   1.649   1.545  11.468 -0.9488  0.2442  0.0577
 6581TIP3   OH241157   4.792   5.912  15.034  0.0790 -0.8155  0.6158
 6581TIP3    H141158   4.707   5.940  15.000 -0.0875  0.4274  2.0439
 6581TIP3    H241159   4.854   5.935  14.964 -0.4405  0.4493  0.5577
 6582TIP3   OH241160   5.248   5.651   4.309  0.5629 -0.6012 -0.4941
 6582TIP3    H141161   5.204   5.731   4.281  1.9984  0.7004  0.8373
 6582TIP3    H241162   5.294   5.620   4.231  3.8685  2.5203  0.0317
 6583TIP3   OH241163   2.425   4.067  13.683 -0.0594 -0.5098 -0.3197
 6583TIP3    H141164   2.465   4.122  13.616 -2.7627  0.5193 -1.1161
 6583TIP3    H241165   2.437   4.116  13.764 -0.0764 -0.0031 -0.6199
 6584TIP3   OH241166   1.073   4.473   0.569  0.0489  0.4242  0.4561
 6584TIP3    H141167   0.993   4.467   0.516 -0.2214  2.9313  0.4893
 6584TIP3    H241168   1.042   4.465   0.660  0.4573 -3.4096  0.3225
 6585TIP3   OH241169   1.822   4.272   4.281  0.4634 -0.2123 -0.8926
 6585TIP3    H141170   1.910   4.302   4.258  1.0454 -0.6423  0.6758
 6585TIP3    H241171   1.836   4.194   4.334 -0.9447 -1.3445 -2.1414
 6586TIP3   OH241172   5.730   1.461   1.986 -0.1678 -0.3228 -0.2296
 6586TIP3    H141173   5.752   1.405   2.060  1.2316  0.7899  0.2157
 6586TIP3    H241174   5.809   1.464   1.933 -0.6632  0.1468 -0.9537
 6587TIP3   OH241175   1.959   2.090   5.472 -0.6073  0.3573 -0.3647
 6587TIP3    H141176   2.031   2.031   5.493 -0.5290  0.4496 -0.3695
 6587TIP3    H241177   1.913   2.047   5.400 -1.3643 -0.3504  0.5257
 6588TIP3   OH241178   1.198   1.498   1.971 -0.1091 -0.4541 -0.2936
 6588TIP3    H141179   1.257   1.569   1.995  0.0381 -0.6436 -0.0919
 6588TIP3    H241180   1.192   1.444   2.050  0.2742 -1.0058 -0.6386
 6589TIP3   OH241181   6.093   3.911   2.702  0.0423  0.0397 -0.4322
 6589TIP3    H141182   6.040   3.933   2.625  1.5327 -0.6366 -1.6668
 6589TIP3    H241183   6.179   3.948   2.684  0.4337 -0.1969  0.8758
 6590TIP3   OH241184   6.392   5.315  16.831  0.3832  0.0611  0.0317
 6590TIP3    H141185   6.397   5.376  16.757 -0.9286  2.8146  2.1164
 6590TIP3    H241186   6.420   5.366  16.906 -0.5004 -2.0026  1.8217
 6591TIP3   OH241187   1.746   1.548   3.173  0.0615 -0.1142 -0.8659
 6591TIP3    H141188   1.729   1.639   3.149 -0.2889  0.2254  0.6067
 6591TIP3    H241189   1.661   1.505   3.164 -0.3853  0.3115  0.9560
 6592TIP3   OH241190   5.070   3.656   4.582 -0.0154  0.1510 -0.2611
 6592TIP3    H141191   5.019   3.646   4.662  0.4682  0.4545  0.0864
 6592TIP3    H241192   5.101   3.747   4.583  1.7135 -0.4154  0.2509
 6593TIP3   OH241193   3.311   6.704   0.641 -0.0470 -0.2339 -0.0123
 6593TIP3    H141194   3.263   6.718   0.560  1.2160 -1.6638 -1.0538
 6593TIP3    H241195   3.359   6.786   0.656 -0.4275  0.0955 -0.6203
 6594TIP3   OH241196   0.004   0.164  11.552  0.1862 -0.2896  0.0081
 6594TIP3    H141197  -0.056   0.137  11.481 -1.0715 -0.7276  1.2146
 6594TIP3    H241198   0.089   0.170  11.509 -0.2335 -2.2630 -1.1899
 6595TIP3   OH241199   0.139   1.931   1.389 -0.1433 -0.1279 -0.4285
 6595TIP3    H141200   0.049   1.960   1.376 -1.4068 -3.6974 -0.2848
 6595TIP3    H241201   0.160   1.880   1.311  1.3191 -0.3021  0.0577
 6596TIP3   OH241202   6.689   0.121   2.250  0.3492  0.8223  0.8622
 6596TIP3    H141203   6.644   0.121   2.334  0.2568  1.2086  0.8133
 6596TIP3    H241204   6.655   0.198   2.204 -0.2147  0.1505  0.1467
 6597TIP3   OH241205   4.221   5.845   2.598 -0.8626 -0.7915 -0.7521
 6597TIP3    H141206   4.237   5.781   2.528  0.9659 -0.8544 -0.3036
 6597TIP3    H241207   4.198   5.926   2.551  0.1340 -0.8902 -1.4306
 6598TIP3   OH241208   6.115   1.079   3.236  0.8683  0.5296  0.8258
 6598TIP3    H141209   6.080   1.131   3.164  0.4119 -0.4741  0.3192
 6598TIP3    H241210   6.133   1.143   3.305  0.0312  1.3188  0.3230
 6599TIP3   OH241211   6.315   5.210   4.015  0.3637 -0.0583  0.0604
 6599TIP3    H141212   6.296   5.297   3.981 -0.0184 -0.5544 -0.9926
 6599TIP3    H241213   6.370   5.169   3.949  0.5016 -0.6398  0.5285
 6600TIP3   OH241214   2.454   1.509   6.248 -0.0401 -0.5790 -0.7221
 6600TIP3    H141215   2.491   1.583   6.201  1.0795 -1.1411 -0.7552
 6600TIP3    H241216   2.396   1.547   6.313 -0.5214  0.2636 -1.6473
 6601TIP3   OH241217   6.302   5.605  12.725 -0.2903 -0.6796  0.5490
 6601TIP3    H141218   6.278   5.517  12.754 -0.8947 -0.8194 -0.3621
 6601TIP3    H241219   6.285   5.660  12.802 -1.2336 -1.1442  0.6884
 6602TIP3   OH241220   2.555   0.744   5.455  0.0260  0.6279  0.2462
 6602TIP3    H141221   2.630   0.777   5.407  0.1780 -0.3759 -0.2167
 6602TIP3    H241222   2.482   0.799   5.426  0.1601  0.1711 -0.9644
 6603TIP3   OH241223   3.089   5.407  16.018  0.8940 -0.2036  0.2982
 6603TIP3    H141224   3.161   5.448  15.970 -0.7765  0.7126 -1.5088
 6603TIP3    H241225   3.102   5.313  16.005  1.4323 -0.0213 -0.5266
 6604TIP3   OH241226   5.692   2.382  11.970  0.3458 -0.0849 -0.1891
 6604TIP3    H141227   5.609   2.340  11.994  1.3663 -1.0327  1.8183
 6604TIP3    H241228   5.759   2.327  12.011  1.9583  0.8392 -1.5388
 6605TIP3   OH241229   2.715   3.796   2.368 -0.1442  0.1520 -0.7183
 6605TIP3    H141230   2.667   3.736   2.310 -0.0062  1.6188 -2.3719
 6605TIP3    H241231   2.806   3.791   2.339 -0.3945  2.4217 -2.0073
 6606TIP3   OH241232   0.799   6.299   1.003 -0.1541  0.3068  0.2421
 6606TIP3    H141233   0.891   6.302   1.027  0.4107 -1.6976 -1.5390
 6606TIP3    H241234   0.758   6.249   1.074  0.4838 -0.5856 -0.0173
 6607TIP3   OH241235   6.505   1.182  15.956 -0.1377 -0.7980  0.4483
 6607TIP3    H141236   6.548   1.119  15.899 -0.5587 -1.0509  0.4105
 6607TIP3    H241237   6.433   1.217  15.903  0.0080 -0.3884  0.5170
 6608TIP3   OH241238   4.223   1.660  15.184 -0.1845 -0.4339  0.5790
 6608TIP3    H141239   4.255   1.634  15.098  1.1963 -1.1230  1.2653
 6608TIP3    H241240   4.302   1.666  15.238 -1.1377 -1.2456  2.1093
 6609TIP3   OH241241   1.851   4.224  11.651  0.1755 -0.1017 -0.9983
 6609TIP3    H141242   1.816   4.308  11.681 -3.1902 -2.0207  0.7999
 6609TIP3    H241243   1.805   4.205  11.570 -0.8737 -1.2609 -0.1667
 6610TIP3   OH241244   4.024   6.518  15.224 -0.5523 -0.3774  0.2915
 6610TIP3    H141245   4.097   6.494  15.280 -0.4740  0.1491  0.4173
 6610TIP3    H241246   3.954   6.542  15.284 -0.2350  0.8942  0.1771
 6611TIP3   OH241247   5.765   6.484   2.333  0.4234  0.3361 -0.2487
 6611TIP3    H141248   5.818   6.550   2.378 -1.3130  0.2578  2.0033
 6611TIP3    H241249   5.753   6.415   2.397 -1.3666 -0.2170 -1.1499
 6612TIP3   OH241250   1.288   4.691  16.938  0.0095 -0.7580  0.0701
 6612TIP3    H141251   1.278   4.730  16.851 -1.0394 -0.6394  0.2395
 6612TIP3    H241252   1.308   4.765  16.995 -0.0729 -0.7300  0.0627
 6613TIP3   OH241253   4.813   0.281   3.771  0.0498  0.3619  0.3278
 6613TIP3    H141254   4.897   0.255   3.809 -1.4464 -4.1128  0.9185
 6613TIP3    H241255   4.761   0.309   3.846  0.4435  1.4843  0.1863
 6614TIP3   OH241256   1.701   4.070   2.129 -0.5591  0.2660  0.5922
 6614TIP3    H141257   1.779   4.016   2.122 -0.2804  0.6159  1.0255
 6614TIP3    H241258   1.697   4.096   2.221 -1.0338  0.4704  0.5152
 6615TIP3   OH241259   3.764   3.693   5.034 -0.2838 -0.1794 -0.4456
 6615TIP3    H141260   3.771   3.598   5.046  2.7594  0.2438  1.5586
 6615TIP3    H241261   3.819   3.712   4.958 -0.0413  0.1275 -0.1917
 6616TIP3   OH241262   2.848   1.129  14.919  0.3629 -0.0739  0.5937
 6616TIP3    H141263   2.837   1.042  14.881  0.0248  0.6676 -1.0682
 6616TIP3    H241264   2.763   1.172  14.907  0.9837  1.0108 -0.0315
 6617TIP3   OH241265   1.059   1.266  12.913  0.2326 -0.0798  0.0395
 6617TIP3    H141266   0.979   1.265  12.966  0.1665 -0.8894 -0.0714
 6617TIP3    H241267   1.030   1.292  12.826  0.1845  0.2162  0.1416
 6618TIP3   OH241268   4.620   4.595   4.836 -0.6408 -0.9287 -0.4676
 6618TIP3    H141269   4.636   4.689   4.829 -0.7830 -0.8825 -0.1696
 6618TIP3    H241270   4.644   4.573   4.927  0.4268 -1.3728 -0.8398
 6619TIP3   OH241271   3.842   6.060  16.610 -0.3234 -0.7131  0.0659
 6619TIP3    H141272   3.924   6.045  16.657 -0.6932 -0.1232  0.9201
 6619TIP3    H241273   3.823   5.977  16.567  1.9050 -0.1988 -2.0425
 6620TIP3   OH241274   3.701   0.676  15.570  0.6894 -0.0436 -0.1335
 6620TIP3    H141275   3.722   0.664  15.663 -0.9243  0.8824  0.3616
 6620TIP3    H241276   3.670   0.766  15.563  0.1628 -0.3077 -1.4566
 6621TIP3   OH241277   3.105   2.273  13.939  0.3877 -0.2163  0.8000
 6621TIP3    H141278   3.040   2.340  13.964 -0.2627 -1.2842  2.0286
 6621TIP3    H241279   3.170   2.276  14.009 -0.3589 -1.8071  1.5854
 6622TIP3   OH241280   3.333   3.938  13.803 -0.5032 -0.2417  0.7399
 6622TIP3    H141281   3.326   3.908  13.713  0.3191  1.6757  0.0243
 6622TIP3    H241282   3.243   3.949  13.832 -0.7647 -0.6191  0.0798
 6623TIP3   OH241283   3.943   2.100  12.634  0.0363 -0.4084 -0.3646
 6623TIP3    H141284   3.852   2.073  12.624 -0.1454 -0.0710  0.3371
 6623TIP3    H241285   3.938   2.193  12.654  0.4986 -0.5250  0.3209
 6624TIP3   OH241286   2.259   5.600  11.621  0.3404 -0.0822 -0.5599
 6624TIP3    H141287   2.261   5.563  11.533 -1.2940  0.7938 -1.0001
 6624TIP3    H241288   2.271   5.694  11.608  0.4677  0.0063  0.1797
 6625TIP3   OH241289   6.539   0.159   4.932 -0.2393  0.2497 -0.1450
 6625TIP3    H141290   6.600   0.229   4.909 -1.0871  0.9181 -0.3936
 6625TIP3    H241291   6.509   0.181   5.020  0.7163 -0.6867  0.4321
 6626TIP3   OH241292   0.258   5.496   6.700 -0.5788  0.7400  0.0642
 6626TIP3    H141293   0.178   5.455   6.668  0.9029 -2.7889  0.6082
 6626TIP3    H241294   0.237   5.589   6.705 -4.5285 -0.0388 -0.1127
 6627TIP3   OH241295   2.851   6.133   2.713 -0.2944  0.0725 -0.2196
 6627TIP3    H141296   2.766   6.174   2.702  0.2678  0.4753 -3.4430
 6627TIP3    H241297   2.904   6.197   2.761 -1.8992 -0.3843  2.2391
 6628TIP3   OH241298   6.147   1.986  15.543  0.3383 -0.2592  0.2288
 6628TIP3    H141299   6.117   1.941  15.623  1.7230 -1.0959  0.2852
 6628TIP3    H241300   6.242   1.977  15.545  0.4592  0.6964 -0.9574
 6629TIP3   OH241301   5.579   3.534   3.397 -0.5822  0.1249  0.4538
 6629TIP3    H141302   5.601   3.450   3.437  0.0847  0.5588  1.0122
 6629TIP3    H241303   5.655   3.555   3.343 -1.0794 -0.0040 -0.2945
 6630TIP3   OH241304   4.618   5.905   2.018  0.3764 -0.0307  0.1988
 6630TIP3    H141305   4.564   5.983   2.022  0.6285  0.1556 -0.0456
 6630TIP3    H241306   4.564   5.840   1.973  1.2220  0.8583 -2.1573
 6631TIP3   OH241307   4.944   6.252  12.431 -0.4486 -0.5148  0.5621
 6631TIP3    H141308   4.851   6.236  12.447 -0.6168 -1.5312 -1.3278
 6631TIP3    H241309   4.946   6.295  12.345  1.1321 -4.8716 -1.6874
 6632TIP3   OH241310   4.162   5.888   0.101  0.0125  0.7447 -0.5127
 6632TIP3    H141311   4.135   5.902   0.192  1.3847  0.5612 -0.0562
 6632TIP3    H241312   4.258   5.878   0.106 -0.0899 -1.2171 -1.7170
 6633TIP3   OH241313   5.796   5.856  15.953  0.0190 -0.3380  0.1455
 6633TIP3    H141314   5.757   5.855  15.865 -2.9075  1.6756  1.3748
 6633TIP3    H241315   5.854   5.932  15.953  0.2474 -0.5075 -0.0941
 6634TIP3   OH241316   3.469   2.618   4.019  0.2157 -0.4979  0.0585
 6634TIP3    H141317   3.523   2.539   4.019 -1.4453 -1.6891  0.9380
 6634TIP3    H241318   3.526   2.686   4.056  1.5696 -1.3547 -0.4127
 6635TIP3   OH241319   2.732   4.986   3.315  0.4834 -0.1353 -0.2454
 6635TIP3    H141320   2.728   4.891   3.307 -2.2072 -0.0367 -0.5197
 6635TIP3    H241321   2.825   5.007   3.307  0.9511 -2.5929 -1.7455
 6636TIP3   OH241322   5.306   4.833  10.733 -0.1778  0.0052 -0.6203
 6636TIP3    H141323   5.308   4.744  10.697 -1.1461 -1.1679  2.1183
 6636TIP3    H241324   5.220   4.841  10.774 -0.2836  2.3830 -1.2189
 6637TIP3   OH241325   2.283   4.403   6.183  0.3691  0.2022 -0.2459
 6637TIP3    H141326   2.353   4.343   6.207  0.9345  1.2472  0.7642
 6637TIP3    H241327   2.213   4.347   6.150  0.0777 -1.2062  2.6275
 6638TIP3   OH241328   4.326   0.131  14.847 -0.0396  0.2940  0.3574
 6638TIP3    H141329   4.279   0.049  14.853 -0.6711  0.5518 -0.7843
 6638TIP3    H241330   4.304   0.179  14.927 -0.0372 -0.4490  0.7999
 6639TIP3   OH241331   0.254   6.317   5.426  0.4476  0.1378 -0.1730
 6639TIP3    H141332   0.208   6.339   5.345  0.4759  1.6128  0.2002
 6639TIP3    H241333   0.249   6.221   5.431 -1.2026  0.1662 -0.9415
 6640TIP3   OH241334   0.500   1.765  12.315  0.4880  0.0958 -0.2599
 6640TIP3    H141335   0.423   1.808  12.278  1.3507  0.6968 -1.3775
 6640TIP3    H241336   0.476   1.749  12.406 -1.6661 -1.4188 -1.0480
 6641TIP3   OH241337   2.391   6.297  12.133  0.0708  0.4382 -0.8707
 6641TIP3    H141338   2.423   6.316  12.045 -1.2574  1.1170 -1.2209
 6641TIP3    H241339   2.381   6.202  12.136 -0.0610  0.4325 -1.5143
 6642TIP3   OH241340   5.396   4.987  13.832 -0.0267  0.6862  0.1177
 6642TIP3    H141341   5.301   4.979  13.841  0.0159  1.4677  1.4528
 6642TIP3    H241342   5.412   5.081  13.836  0.7805  0.5753 -0.4517
 6643TIP3   OH241343   3.644   0.117  14.134 -0.5362 -0.5664 -0.2910
 6643TIP3    H141344   3.667   0.188  14.194 -0.0155 -0.5055 -0.5644
 6643TIP3    H241345   3.639   0.039  14.190  2.0201 -0.9156 -0.4841
 6644TIP3   OH241346   3.751   6.185   4.698 -0.3076 -0.1747 -0.1888
 6644TIP3    H141347   3.747   6.238   4.619  1.1083 -0.8183 -0.7152
 6644TIP3    H241348   3.696   6.232   4.761 -0.3886  1.0465 -1.1387
 6645TIP3   OH241349   3.818   6.720  16.130  0.5172  0.2288 -0.4195
 6645TIP3    H141350   3.788   6.720  16.221 -0.3190 -1.1614 -0.6721
 6645TIP3    H241351   3.741   6.692  16.080  0.9964  0.9057 -1.5466
 6646TIP3   OH241352   1.954   1.135   0.030  0.3210 -0.1603 -0.3392
 6646TIP3    H141353   1.904   1.211   0.059  1.6154  0.0607  1.4337
 6646TIP3    H241354   1.919   1.063   0.082 -1.2611 -0.9089 -2.3908
 6647TIP3   OH241355   6.338   1.605   1.332 -0.3154  0.1941 -0.5009
 6647TIP3    H141356   6.354   1.699   1.339  0.1962  0.1981 -1.5432
 6647TIP3    H241357   6.253   1.592   1.374 -0.4414  1.1454 -0.4501
 6648TIP3   OH241358   2.480   0.339   0.457  0.0792 -0.1179 -0.3267
 6648TIP3    H141359   2.563   0.299   0.429  0.6930  0.9614 -0.0858
 6648TIP3    H241360   2.503   0.386   0.537 -0.9025 -0.2938  0.0578
 6649TIP3   OH241361   4.780   0.032  11.680 -0.4526 -0.2479  0.2610
 6649TIP3    H141362   4.819  -0.050  11.711 -1.1475 -0.3962  0.7471
 6649TIP3    H241363   4.815   0.042  11.591  1.2333 -0.0192  0.9241
 6650TIP3   OH241364   0.418   1.313  12.691  0.1640 -0.4998 -0.2900
 6650TIP3    H141365   0.371   1.386  12.651 -2.1908 -0.6190  2.1382
 6650TIP3    H241366   0.486   1.291  12.627 -1.0401  1.7706 -2.4574
 6651TIP3   OH241367   2.648   2.488  14.865 -0.7857  0.0764  0.3738
 6651TIP3    H141368   2.566   2.439  14.865 -1.3475  0.9896  1.0137
 6651TIP3    H241369   2.670   2.499  14.957 -1.2347  1.9182  0.2917
 6652TIP3   OH241370   1.771   3.335   3.952 -0.4097 -0.3161  0.2825
 6652TIP3    H141371   1.743   3.276   3.882  0.6652  0.7237 -1.0474
 6652TIP3    H241372   1.712   3.410   3.945  0.1992  0.1372 -0.0160
 6653TIP3   OH241373   3.716   1.438  15.581 -0.0227 -0.0737 -0.0648
 6653TIP3    H141374   3.787   1.380  15.609 -1.3741 -2.2046 -0.9417
 6653TIP3    H241375   3.671   1.389  15.512 -2.2612  1.3144  0.3733
 6654TIP3   OH241376   6.462   6.392   2.052  0.8266 -0.3369 -0.3488
 6654TIP3    H141377   6.529   6.329   2.078  0.3478 -0.3440  0.9101
 6654TIP3    H241378   6.502   6.477   2.065  0.3768 -0.3199  1.1161
 6655TIP3   OH241379   5.708   2.836   5.163 -0.5211  0.1773  0.1210
 6655TIP3    H141380   5.626   2.801   5.198 -1.5059  0.7356 -1.5715
 6655TIP3    H241381   5.685   2.922   5.127  0.3799 -0.4817 -2.1360
 6656TIP3   OH241382   3.797   4.376   3.455 -0.0141  0.2265 -0.3631
 6656TIP3    H141383   3.839   4.417   3.379  1.1388 -0.0169  0.1370
 6656TIP3    H241384   3.853   4.302   3.476 -1.4846 -0.9563 -0.5665
 6657TIP3   OH241385   5.003   5.092   4.704 -0.2871 -0.2298  0.6615
 6657TIP3    H141386   5.032   5.114   4.615 -0.8931 -0.0346  0.5084
 6657TIP3    H241387   5.001   4.996   4.705  1.8199 -0.2988  1.1561
 6658TIP3   OH241388   6.525   5.060  12.864  0.5458 -1.2070  0.2022
 6658TIP3    H141389   6.480   5.105  12.792 -1.8925 -0.6462  2.0063
 6658TIP3    H241390   6.580   5.127  12.904  1.6031 -1.4178 -0.9010
 6659TIP3   OH241391   6.434   6.009   3.585  0.4564 -0.4898  0.0959
 6659TIP3    H141392   6.466   6.042   3.668  0.8781  0.7028 -0.5262
 6659TIP3    H241393   6.479   5.925   3.573 -1.3377 -1.7953  2.1369
 6660TIP3   OH241394   0.355   3.187   2.043  0.1418  0.3404  0.5727
 6660TIP3    H141395   0.447   3.208   2.032  0.9891 -3.0314  0.6135
 6660TIP3    H241396   0.354   3.097   2.076 -3.1398  0.3957  0.8375
 6661TIP3   OH241397   5.089   0.393  13.352 -0.6899  0.1050  0.2087
 6661TIP3    H141398   5.030   0.346  13.293 -1.0795  0.0843  0.6105
 6661TIP3    H241399   5.081   0.346  13.436 -0.0461  0.0527  0.2410
 6662TIP3   OH241400   4.646   0.170  14.865 -0.2217  0.3660 -0.2669
 6662TIP3    H141401   4.551   0.165  14.874 -0.1889  2.6191  2.0832
 6662TIP3    H241402   4.661   0.200  14.776 -1.7732  0.8676 -0.3653
 6663TIP3   OH241403   3.059   3.301   4.021 -0.1019 -1.3255  0.0685
 6663TIP3    H141404   3.104   3.297   3.936 -1.4047  0.3725 -0.7386
 6663TIP3    H241405   3.063   3.393   4.045  0.0277 -1.7631  1.7549
 6664TIP3   OH241406   3.933   5.832  12.032  0.1556 -0.4867 -0.0095
 6664TIP3    H141407   3.978   5.901  12.081 -1.2281  0.6459 -0.2881
 6664TIP3    H241408   3.859   5.877  11.991 -1.1603 -2.2739  0.3510
 6665TIP3   OH241409   1.543   4.526  11.238  0.0073  0.6246  0.1353
 6665TIP3    H141410   1.598   4.534  11.160 -2.0850  0.2440 -1.4110
 6665TIP3    H241411   1.480   4.598  11.230  0.4976  1.3170  2.1042
 6666TIP3   OH241412   3.052   2.772   4.806 -0.0560  0.0064  0.3851
 6666TIP3    H141413   2.998   2.790   4.728 -0.2401  1.4037  0.8149
 6666TIP3    H241414   3.113   2.705   4.777  0.0763  0.7227 -1.0775
 6667TIP3   OH241415   1.946   5.767   3.025  0.5987 -0.2396  0.3609
 6667TIP3    H141416   1.868   5.810   2.991  0.5384 -1.3602 -0.9405
 6667TIP3    H241417   1.918   5.678   3.044  1.2433 -0.2893  1.1263
 6668TIP3   OH241418   2.352   2.129  11.455  0.1877  0.4471 -0.5209
 6668TIP3    H141419   2.366   2.141  11.361  1.7592  1.3283 -0.1739
 6668TIP3    H241420   2.328   2.216  11.487 -1.6859 -0.1097 -0.3048
 6669TIP3   OH241421   3.548   3.720  15.542 -0.0118 -0.1474  0.1621
 6669TIP3    H141422   3.541   3.625  15.543 -0.4853 -0.1116  0.2262
 6669TIP3    H241423   3.522   3.747  15.631  0.0832  0.0435  0.1330
 6670TIP3   OH241424   0.545   0.311   1.985 -0.0494 -0.1881 -0.1051
 6670TIP3    H141425   0.635   0.278   1.984  0.1023  0.1995  0.6030
 6670TIP3    H241426   0.551   0.398   2.025 -0.6690  0.0523 -0.5128
 6671TIP3   OH241427   1.981   1.473  13.495 -0.2416  0.0272  0.2791
 6671TIP3    H141428   1.970   1.566  13.516  1.9957  0.4041 -0.1140
 6671TIP3    H241429   2.035   1.472  13.416 -1.4402 -1.5992 -0.5552
 6672TIP3   OH241430   1.709   0.893   0.761  0.2175 -0.1672 -0.1209
 6672TIP3    H141431   1.659   0.822   0.801  0.1707 -0.2509 -0.3287
 6672TIP3    H241432   1.773   0.849   0.705 -1.3436  0.0058 -2.0805
 6673TIP3   OH241433   2.614   6.324  12.564  0.0377  0.9635 -0.3401
 6673TIP3    H141434   2.524   6.337  12.594 -0.0936  0.5906 -0.5665
 6673TIP3    H241435   2.666   6.317  12.644 -0.6236 -2.2415 -0.1161
 6674TIP3   OH241436   4.806   2.791   0.630 -0.5375  0.3718 -0.6669
 6674TIP3    H141437   4.817   2.803   0.536  0.5395  1.5419 -0.4033
 6674TIP3    H241438   4.832   2.875   0.668 -0.0489 -0.4025  0.7322
 6675TIP3   OH241439   3.733   6.719   0.982  0.1465 -0.7850 -0.1965
 6675TIP3    H141440   3.773   6.637   1.012  1.5389 -0.2817 -0.6868
 6675TIP3    H241441   3.765   6.785   1.043  0.3601 -0.3110 -0.8286
 6676TIP3   OH241442   0.644   6.023   2.198 -0.0469 -0.3851  0.5031
 6676TIP3    H141443   0.739   6.034   2.190 -0.0402  0.3992  1.5448
 6676TIP3    H241444   0.623   6.061   2.283 -1.1941 -1.2419  0.6081
 6677TIP3   OH241445   1.089   5.245  12.466  0.8120 -0.8709 -0.6049
 6677TIP3    H141446   1.047   5.205  12.390  0.0677  1.0862 -1.2310
 6677TIP3    H241447   1.018   5.286  12.514  1.5377 -0.5195  0.1884
 6678TIP3   OH241448   5.453   5.716   1.990  0.0972  0.0582 -0.3200
 6678TIP3    H141449   5.411   5.645   1.942  2.1490  1.0642 -3.8241
 6678TIP3    H241450   5.387   5.785   1.995 -0.5520 -0.5374 -0.5985
 6679TIP3   OH241451   0.684   0.183  14.068 -0.0478 -0.0853 -0.8705
 6679TIP3    H141452   0.632   0.115  14.023 -1.6652  0.7225 -0.2770
 6679TIP3    H241453   0.634   0.201  14.149  0.4114  1.7349 -0.9727
 6680TIP3   OH241454   3.797   5.620   2.388 -0.7468  0.8032 -0.2548
 6680TIP3    H141455   3.717   5.663   2.357 -0.6087  1.6484  0.5502
 6680TIP3    H241456   3.858   5.627   2.314 -1.0968  0.9920 -0.5285
 6681TIP3   OH241457   2.070   2.094  15.564 -0.0850  0.2150 -0.2120
 6681TIP3    H141458   2.013   2.162  15.600 -1.5489 -0.8433 -0.4416
 6681TIP3    H241459   2.114   2.057  15.640  0.7245  1.4196 -0.0883
 6682TIP3   OH241460   6.061   1.974  14.160  0.3224  0.2714  0.5037
 6682TIP3    H141461   6.083   1.908  14.226  0.5034 -1.5515 -1.3391
 6682TIP3    H241462   5.966   1.986  14.169  0.2913 -0.2302  0.8560
 6683TIP3   OH241463   5.671   2.436   2.682 -0.0160 -0.4358  0.0785
 6683TIP3    H141464   5.676   2.506   2.617 -1.4102  0.1695  0.6150
 6683TIP3    H241465   5.748   2.449   2.738 -0.0902  0.4506 -0.0285
 6684TIP3   OH241466   1.016   2.270  11.048 -0.2498  0.3760 -0.0349
 6684TIP3    H141467   1.015   2.201  11.115  2.9602 -0.8125 -1.1401
 6684TIP3    H241468   0.951   2.241  10.984 -0.6643 -0.3811  0.7085
 6685TIP3   OH241469   6.498   5.947  13.620  0.5176  0.0428  0.1724
 6685TIP3    H141470   6.492   5.948  13.524 -1.5073  1.4557  0.2658
 6685TIP3    H241471   6.441   6.019  13.648  0.9444 -0.4646  2.4481
 6686TIP3   OH241472   6.352   4.319   0.741  0.4694  0.1323 -0.0946
 6686TIP3    H141473   6.441   4.315   0.707  0.7132  1.4990  0.3285
 6686TIP3    H241474   6.359   4.375   0.819 -0.3868 -1.4704  1.1751
 6687TIP3   OH241475   2.022   5.882   3.876 -0.2168  0.2388 -0.3028
 6687TIP3    H141476   2.072   5.814   3.922  0.3784  0.6014 -0.4123
 6687TIP3    H241477   2.000   5.842   3.792  1.7701  0.8576 -1.1328
 6688TIP3   OH241478   5.468   6.133  11.224 -0.7983  0.3504 -0.0492
 6688TIP3    H141479   5.559   6.104  11.229 -0.7181  0.8079  1.1617
 6688TIP3    H241480   5.472   6.216  11.176 -0.5497  0.4912  0.2132
 6689TIP3   OH241481   2.111   6.555   5.687 -0.7195  0.4564  0.2820
 6689TIP3    H141482   2.079   6.466   5.696  0.5132 -0.0805 -0.6126
 6689TIP3    H241483   2.080   6.600   5.766 -3.9079  0.0405 -0.6778
 6690TIP3   OH241484   4.877   6.764   3.601  0.1073 -0.3841  0.2182
 6690TIP3    H141485   4.923   6.706   3.662  0.0169  0.1388  0.7836
 6690TIP3    H241486   4.793   6.782   3.644 -1.0837 -2.1843 -1.2767
 6691TIP3   OH241487   3.022   4.504  11.145  0.6307 -0.1408 -0.1294
 6691TIP3    H141488   3.106   4.464  11.121  0.2523 -1.2985  0.3999
 6691TIP3    H241489   3.026   4.509  11.241 -0.0872 -0.6355 -0.0708
 6692TIP3   OH241490   6.533   3.234   4.402  0.3866  0.4452 -0.0392
 6692TIP3    H141491   6.519   3.249   4.496  0.3456  0.3021 -0.0225
 6692TIP3    H241492   6.514   3.319   4.362  0.9873  0.6623  0.1421
 6693TIP3   OH241493   4.557   1.601  11.281 -0.0593 -0.0115 -0.2185
 6693TIP3    H141494   4.539   1.677  11.225 -1.8102  0.5653  1.0753
 6693TIP3    H241495   4.507   1.530  11.242 -3.7428  1.0872  2.1663
 6694TIP3   OH241496   4.719   5.531  13.087  0.1566  0.1328  0.0767
 6694TIP3    H141497   4.779   5.569  13.023  0.9798  0.1697  0.8454
 6694TIP3    H241498   4.714   5.438  13.064 -1.9505  0.6905 -1.8773
 6695TIP3   OH241499   3.595   0.177  11.672 -0.4083  0.0471 -0.0321
 6695TIP3    H141500   3.544   0.183  11.753  1.0273 -2.0682  1.0615
 6695TIP3    H241501   3.577   0.260  11.627 -0.1465  1.8606  3.0547
 6696TIP3   OH241502   3.664   6.551   1.735  0.5980  0.1295  0.1437
 6696TIP3    H141503   3.590   6.490   1.739  0.0460  0.8685  1.5164
 6696TIP3    H241504   3.673   6.583   1.825  2.4840  0.1684 -0.0396
 6697TIP3   OH241505   2.040   0.346  15.511 -0.3298  0.3678  0.2224
 6697TIP3    H141506   2.056   0.289  15.436  1.4581  2.7635 -1.3311
 6697TIP3    H241507   1.955   0.319  15.545 -1.7380 -0.0542 -3.3987
 6698TIP3   OH241508   5.158   3.329   6.491  0.1857  0.2678 -0.6321
 6698TIP3    H141509   5.237   3.383   6.486 -0.0125  0.4175 -2.7658
 6698TIP3    H241510   5.091   3.381   6.446 -0.5990 -0.7309 -0.6367
 6699TIP3   OH241511   6.750   3.171  12.683 -0.1730 -0.2825  0.2640
 6699TIP3    H141512   6.716   3.260  12.681 -0.7483 -0.5177 -0.9309
 6699TIP3    H241513   6.684   3.122  12.733 -1.1252 -0.5432 -1.2329
 6700TIP3   OH241514   0.034   6.370   5.202 -0.0928  0.6115  0.5858
 6700TIP3    H141515   0.081   6.452   5.191  0.5932  0.3009  1.0917
 6700TIP3    H241516   0.067   6.313   5.133 -2.3357  1.5227 -1.2703
 6701TIP3   OH241517   1.660   1.590  15.503 -0.2245 -0.3291  0.1875
 6701TIP3    H141518   1.691   1.519  15.447 -0.1338 -0.3584  0.2745
 6701TIP3    H241519   1.735   1.649  15.510 -0.5343  0.1669 -0.5185
 6702TIP3   OH241520   0.117   5.623   4.581  0.1657 -0.6135  0.0448
 6702TIP3    H141521   0.158   5.674   4.651  0.3372  0.6351 -0.9454
 6702TIP3    H241522   0.158   5.537   4.587  3.1497  0.6713 -1.0605
 6703TIP3   OH241523   0.339   1.532   4.821 -0.2052  0.3427  0.0955
 6703TIP3    H141524   0.316   1.473   4.893 -0.2768  0.1239 -0.1072
 6703TIP3    H241525   0.378   1.608   4.865 -0.0321  0.1093  0.3526
 6704TIP3   OH241526   0.403   4.402  11.740 -0.3566  0.0190 -0.2785
 6704TIP3    H141527   0.381   4.358  11.658  0.0345 -0.1228 -0.3097
 6704TIP3    H241528   0.389   4.495  11.722  0.8845  0.1003 -0.8851
 6705TIP3   OH241529   1.127   4.099   0.451 -0.5592 -0.1260 -0.5596
 6705TIP3    H141530   1.097   4.186   0.478 -0.7244  0.1048 -1.4947
 6705TIP3    H241531   1.047   4.050   0.434 -0.4218  0.5197 -3.1465
 6706TIP3   OH241532   3.531   5.888   3.041 -0.0565 -0.2942  0.7597
 6706TIP3    H141533   3.546   5.953   2.973 -0.8717 -0.6981  0.1862
 6706TIP3    H241534   3.610   5.891   3.095  0.4593  0.2476 -0.0193
 6707TIP3   OH241535   2.210   1.784  15.447 -0.1267 -0.4204 -0.1392
 6707TIP3    H141536   2.259   1.774  15.365  0.6295  0.8608  0.1602
 6707TIP3    H241537   2.134   1.838  15.423  0.3843  0.4167  0.1183
 6708TIP3   OH241538   2.933   0.638  14.704 -0.0670 -0.1027 -0.0404
 6708TIP3    H141539   3.000   0.617  14.769  0.6414 -2.9148 -1.5995
 6708TIP3    H241540   2.972   0.614  14.620 -1.9332  1.0157 -1.2834
 6709TIP3   OH241541   1.334   3.301   1.242  0.0907 -0.1159  0.1746
 6709TIP3    H141542   1.277   3.302   1.166 -0.0920 -0.2395  0.3092
 6709TIP3    H241543   1.416   3.338   1.211 -0.4820  1.2985  0.3175
 6710TIP3   OH241544   4.673   1.898   0.099 -0.2070 -0.2783  0.6114
 6710TIP3    H141545   4.735   1.828   0.122  1.6666  1.0834 -0.1954
 6710TIP3    H241546   4.707   1.976   0.143 -0.1742  0.9324 -1.5094
 6711TIP3   OH241547   2.381   3.615  13.800  0.3125  0.1671  0.6691
 6711TIP3    H141548   2.352   3.658  13.719  2.0853  1.2456  0.5969
 6711TIP3    H241549   2.340   3.667  13.870  1.4698  1.2558  0.5487
 6712TIP3   OH241550   5.329   5.454  14.876 -0.0350 -0.1499  0.3414
 6712TIP3    H141551   5.268   5.483  14.943  0.5982  0.7743  0.5237
 6712TIP3    H241552   5.387   5.393  14.921  0.6752  0.8234  0.7421
 6713TIP3   OH241553   3.696   5.111   0.438  0.0259 -0.0663 -0.3728
 6713TIP3    H141554   3.722   5.163   0.362  2.1909 -0.9154 -0.2530
 6713TIP3    H241555   3.722   5.022   0.416  1.6272 -0.1721  1.7478
 6714TIP3   OH241556   6.462   3.328  14.968 -0.1459  0.2192  0.0962
 6714TIP3    H141557   6.532   3.383  15.004  2.3060 -0.7947 -2.8576
 6714TIP3    H241558   6.468   3.246  15.017  0.4630  0.3062  0.1757
 6715TIP3   OH241559   4.870   3.176  15.074 -0.0739 -0.0258  0.2109
 6715TIP3    H141560   4.956   3.204  15.043 -0.1518  1.6130  1.4227
 6715TIP3    H241561   4.853   3.094  15.026  1.7339  0.1142 -0.7229
 6716TIP3   OH241562   5.657   5.566   1.812 -0.0018 -0.3259 -0.2746
 6716TIP3    H141563   5.600   5.617   1.869 -1.5093 -0.8938 -1.2609
 6716TIP3    H241564   5.598   5.508   1.765  1.2249  0.1405 -2.4255
 6717TIP3   OH241565   2.084   3.183  13.656 -0.0762 -0.2207 -0.4452
 6717TIP3    H141566   1.994   3.164  13.685 -0.2511 -0.2713 -1.0174
 6717TIP3    H241567   2.129   3.211  13.736 -0.8365  0.6735 -0.3128
 6718TIP3   OH241568   0.702   0.669   3.579  0.1632  0.1500 -0.0535
 6718TIP3    H141569   0.653   0.590   3.553  0.0747 -0.3155  1.4830
 6718TIP3    H241570   0.739   0.702   3.497 -1.2254 -0.5172 -0.9799
 6719TIP3   OH241571   2.675   4.959  13.017 -0.9620 -0.2695  0.0369
 6719TIP3    H141572   2.671   4.942  12.922  0.2834 -0.8036  0.0780
 6719TIP3    H241573   2.681   5.054  13.024 -1.1865 -0.2201 -0.4152
 6720TIP3   OH241574   2.999   6.416  16.987  0.5312  0.6332 -0.0164
 6720TIP3    H141575   2.993   6.486  17.052  1.4894 -0.4153  1.2074
 6720TIP3    H241576   3.015   6.337  17.037 -0.8994 -0.5498 -1.3691
 6721TIP3   OH241577   5.706   5.429  13.262 -0.2677  0.5101  0.3093
 6721TIP3    H141578   5.622   5.475  13.268 -0.3817  0.1251  1.7986
 6721TIP3    H241579   5.769   5.489  13.302 -0.1731 -0.0060  0.9480
 6722TIP3   OH241580   3.633   2.884   4.554 -0.5176  0.2833 -0.3358
 6722TIP3    H141581   3.600   2.875   4.465  0.2996 -1.0340 -0.5053
 6722TIP3    H241582   3.564   2.933   4.600 -1.8245 -0.7396 -1.1829
 6723TIP3   OH241583   2.875   5.465  15.452  0.2170 -0.1317  0.4916
 6723TIP3    H141584   2.909   5.423  15.530 -0.2474 -2.0224 -0.2884
 6723TIP3    H241585   2.943   5.528  15.427 -0.0653  1.2065  2.9242
 6724TIP3   OH241586   3.986   4.117  14.551 -0.2768  1.1261 -0.4969
 6724TIP3    H141587   4.060   4.075  14.507 -0.1652  1.0619 -0.2474
 6724TIP3    H241588   3.972   4.198  14.502 -0.7786  0.5889 -1.2591
 6725TIP3   OH241589   2.492   6.109   6.247 -0.4156 -0.0136  0.1443
 6725TIP3    H141590   2.417   6.050   6.251 -1.4485  1.3042  0.4148
 6725TIP3    H241591   2.559   6.065   6.300 -1.5172 -0.4592  1.1942
 6726TIP3   OH241592   1.558   6.596  14.690  0.0029  0.0438  0.0091
 6726TIP3    H141593   1.488   6.658  14.710  0.4413  0.0636  1.5666
 6726TIP3    H241594   1.639   6.646  14.706  0.3754 -0.3806 -0.5099
 6727TIP3   OH241595   1.779   0.959   1.911  0.4162 -0.3383 -0.1135
 6727TIP3    H141596   1.787   1.053   1.927  2.9770 -0.3242 -1.2598
 6727TIP3    H241597   1.693   0.949   1.869  0.7243  1.6866 -1.2980
 6728TIP3   OH241598   4.954   2.992   5.600 -0.2124  0.4652 -0.7045
 6728TIP3    H141599   4.888   2.937   5.559  1.5303 -0.8515 -1.8535
 6728TIP3    H241600   5.005   3.027   5.526  2.0617 -0.7557  0.2234
 6729TIP3   OH241601   3.112   5.767  16.675  0.0116  0.3984 -0.2742
 6729TIP3    H141602   3.136   5.813  16.595  0.6430  0.7480  0.1071
 6729TIP3    H241603   3.021   5.790  16.690 -0.7727 -1.3850 -2.0559
 6730TIP3   OH241604   5.673   4.455   3.590 -0.4477 -0.4506 -0.0391
 6730TIP3    H141605   5.676   4.391   3.519 -2.1564  0.2240 -0.7395
 6730TIP3    H241606   5.682   4.540   3.546  1.1556 -0.1458  0.8211
 6731TIP3   OH241607   3.564   2.533   0.247 -0.5920 -0.0846 -0.4813
 6731TIP3    H141608   3.656   2.529   0.273 -0.7271 -1.8484 -0.2153
 6731TIP3    H241609   3.564   2.515   0.153 -0.6968 -0.3573 -0.4283
 6732TIP3   OH241610   0.488   5.722   0.809  0.3792  0.9295 -0.3306
 6732TIP3    H141611   0.544   5.677   0.745  0.9889  1.2008  0.0049
 6732TIP3    H241612   0.519   5.812   0.808  0.6342  0.8572  0.6036
 6733TIP3   OH241613   2.032   3.786  14.109  0.1177 -0.2142 -0.6303
 6733TIP3    H141614   2.028   3.881  14.116  2.1616 -0.1399  0.0483
 6733TIP3    H241615   2.115   3.769  14.063 -0.6603 -1.6304 -1.5485
 6734TIP3   OH241616   3.121   4.005  13.031 -0.1258 -0.0863  0.3406
 6734TIP3    H141617   3.161   4.045  12.954  1.1087  0.4572  1.2469
 6734TIP3    H241618   3.158   3.917  13.034 -0.2171 -0.1263  0.2718
 6735TIP3   OH241619   2.022   4.378  11.856 -0.2706  0.0510 -0.3319
 6735TIP3    H141620   2.049   4.287  11.843  1.4921  0.4514  0.3113
 6735TIP3    H241621   2.104   4.427  11.854 -1.1345  1.5363  0.1363
 6736TIP3   OH241622   3.939   4.687   0.578  0.2864 -0.1440  0.1808
 6736TIP3    H141623   3.976   4.671   0.492  1.5856  1.6383  0.3929
 6736TIP3    H241624   3.947   4.603   0.624  0.8128 -0.7300 -0.9758
 6737TIP3   OH241625   5.789   3.761   1.989 -0.1378  0.5342 -0.3024
 6737TIP3    H141626   5.764   3.842   1.945 -1.7327 -0.2913 -0.9277
 6737TIP3    H241627   5.707   3.720   2.015  0.5739 -1.5621 -1.2114
 6738TIP3   OH241628   0.135   1.266   3.090  0.8472 -0.0068 -0.2513
 6738TIP3    H141629   0.056   1.275   3.037  0.4956 -2.2375 -0.1547
 6738TIP3    H241630   0.124   1.330   3.160 -1.1478 -0.6845  0.0850
 6739TIP3   OH241631   6.494   3.612   2.695 -0.3765  0.5046 -0.0603
 6739TIP3    H141632   6.556   3.559   2.645 -0.6692 -0.1201  0.2258
 6739TIP3    H241633   6.547   3.660   2.758 -0.3067 -1.1373  1.1750
 6740TIP3   OH241634   5.007   5.698   5.593  0.6553 -0.4122  0.7059
 6740TIP3    H141635   4.932   5.718   5.649 -0.7013  1.1373 -1.5978
 6740TIP3    H241636   5.077   5.756   5.625 -0.6059  1.6869 -0.2074
 6741TIP3   OH241637   2.014   0.552   5.773  0.0385  0.3435  0.1688
 6741TIP3    H141638   1.920   0.557   5.793  0.3844 -1.3260  2.4349
 6741TIP3    H241639   2.057   0.566   5.858  1.7819 -0.5307 -0.5503
 6742TIP3   OH241640   5.256   6.780  14.624 -0.1285 -0.2185  0.7363
 6742TIP3    H141641   5.209   6.821  14.552 -0.9646 -1.9783  0.2378
 6742TIP3    H241642   5.201   6.706  14.650  1.1529 -0.8369  1.8069
 6743TIP3   OH241643   0.584   2.772   1.434 -0.0052  0.7443 -0.2119
 6743TIP3    H141644   0.536   2.722   1.501  0.4577 -0.2894 -0.6325
 6743TIP3    H241645   0.520   2.786   1.364  0.3591 -0.8817 -0.8970
 6744TIP3   OH241646   1.722   5.971   3.184 -0.9808  0.0144  0.0122
 6744TIP3    H141647   1.686   6.059   3.177 -1.0613 -0.0672 -0.6143
 6744TIP3    H241648   1.647   5.913   3.175 -0.8730 -0.1304  0.0440
 6745TIP3   OH241649   1.922   2.698   5.378 -0.5000  0.3671  0.0793
 6745TIP3    H141650   1.863   2.645   5.326  1.4217 -0.8740 -0.8874
 6745TIP3    H241651   1.915   2.662   5.467 -2.8542  1.6978  0.4805
 6746TIP3   OH241652   5.250   0.437   1.935 -0.1885 -0.1000 -0.6874
 6746TIP3    H141653   5.225   0.457   2.025  0.2734  0.6107 -0.7127
 6746TIP3    H241654   5.212   0.508   1.883  0.8570  0.3486 -0.8606
 6747TIP3   OH241655   2.526   5.190  16.867 -0.3909 -0.4103  0.0964
 6747TIP3    H141656   2.594   5.127  16.841  0.3263 -0.4920  2.1138
 6747TIP3    H241657   2.450   5.165  16.815  0.7915 -0.9875 -1.4200
 6748TIP3   OH241658   3.092   0.570  14.457 -0.5509 -0.2159 -0.7199
 6748TIP3    H141659   3.145   0.645  14.484 -0.3748 -0.5434 -0.1337
 6748TIP3    H241660   3.092   0.573  14.361  0.8780 -0.4455 -0.7370
 6749TIP3   OH241661   3.372   5.891   0.313  0.0972 -0.3663  0.1600
 6749TIP3    H141662   3.398   5.973   0.356  0.3635 -0.7815  0.7845
 6749TIP3    H241663   3.440   5.878   0.246  0.7470 -0.7369  0.8911
 6750TIP3   OH241664   5.379   0.165   4.981  0.7096  0.3924  0.4462
 6750TIP3    H141665   5.303   0.169   5.039  0.5380  0.5904  0.2115
 6750TIP3    H241666   5.452   0.195   5.034  0.3425  1.7085  0.2166
 6751TIP3   OH241667   5.231   5.576   0.764 -0.1484  0.7334  0.5375
 6751TIP3    H141668   5.178   5.638   0.715 -1.1843 -0.0802  0.6146
 6751TIP3    H241669   5.184   5.563   0.846  0.7956  0.9321  1.1160
 6752TIP3   OH241670   6.161   1.735  15.196 -0.3235 -0.0171  0.3609
 6752TIP3    H141671   6.230   1.703  15.138 -0.2908 -1.7400  1.3265
 6752TIP3    H241672   6.205   1.797  15.254  0.0641  0.1691 -0.1324
 6753TIP3   OH241673   0.120   4.658   4.556  0.2535 -0.6031  0.1464
 6753TIP3    H141674   0.179   4.651   4.481  0.0449 -1.7548  0.0846
 6753TIP3    H241675   0.062   4.731   4.534  0.2953 -0.8303 -0.7393
 6754TIP3   OH241676   5.053   5.231   5.371 -0.0431 -0.3937  0.1500
 6754TIP3    H141677   5.075   5.157   5.428 -5.2828 -1.4034  1.1419
 6754TIP3    H241678   5.028   5.301   5.432 -1.2361  0.0662 -0.8518
 6755TIP3   OH241679   2.959   3.783   4.798 -0.0709 -0.1544  0.1136
 6755TIP3    H141680   2.948   3.876   4.818  0.3562 -0.1028  0.1234
 6755TIP3    H241681   3.042   3.778   4.751  0.7355 -0.7311  1.5417
 6756TIP3   OH241682   2.488   6.316   4.645 -0.5155  0.3319  0.1114
 6756TIP3    H141683   2.435   6.344   4.571  1.1780  2.3416 -0.4035
 6756TIP3    H241684   2.543   6.246   4.610 -1.5872 -0.5762  0.2048
 6757TIP3   OH241685   1.121   1.534   5.376 -0.0832  0.1963  0.0711
 6757TIP3    H141686   1.026   1.524   5.376  0.1132 -2.0403  1.8347
 6757TIP3    H241687   1.136   1.618   5.419 -1.2048 -0.2500  1.3624
 6758TIP3   OH241688   2.962   6.611  17.172 -0.3466 -0.2000 -0.5889
 6758TIP3    H141689   2.907   6.612  17.251  0.2718  1.1183 -0.1552
 6758TIP3    H241690   3.051   6.618  17.205 -0.1019  0.7699 -1.4076
 6759TIP3   OH241691   6.258   1.237   5.528 -0.0437  0.1078  0.6297
 6759TIP3    H141692   6.291   1.324   5.506  0.2290  0.1189  1.0823
 6759TIP3    H241693   6.333   1.191   5.563 -0.4134  0.0085  1.3022
 6760TIP3   OH241694   1.277   1.781  15.992 -0.0082  0.3318  0.4546
 6760TIP3    H141695   1.368   1.754  15.984  0.8276  3.2578 -0.5953
 6760TIP3    H241696   1.254   1.814  15.905 -1.6457  0.8737  1.0756
 6761TIP3   OH241697   6.177   5.474  11.417 -0.2489 -0.3977 -0.0225
 6761TIP3    H141698   6.118   5.521  11.475 -0.6434 -3.6024  2.3032
 6761TIP3    H241699   6.164   5.381  11.439  1.4590 -1.5494 -3.4570
 6762TIP3   OH241700   0.321   3.573  12.874 -0.2428  0.2839  0.2391
 6762TIP3    H141701   0.395   3.586  12.815 -0.8430  0.6389 -0.4445
 6762TIP3    H241702   0.279   3.493  12.843 -1.6503  1.4719 -0.9966
 6763TIP3   OH241703   5.121   6.279  12.183  0.1656 -0.1845  0.2578
 6763TIP3    H141704   5.090   6.341  12.118  0.3496  0.1456  0.4859
 6763TIP3    H241705   5.209   6.310  12.207 -0.6360  0.7616  2.0402
 6764TIP3   OH241706   1.278   6.409  11.163  0.2291  0.1772  0.0614
 6764TIP3    H141707   1.273   6.354  11.085  0.9914  0.6012 -0.2956
 6764TIP3    H241708   1.283   6.348  11.236 -1.1181 -0.2283 -0.1638
 6765TIP3   OH241709   0.475   1.292   1.506 -0.1409  0.0047  0.0946
 6765TIP3    H141710   0.493   1.291   1.412 -1.9812 -0.4384 -0.2789
 6765TIP3    H241711   0.417   1.217   1.520  0.4159 -0.1558  1.6547
 6766TIP3   OH241712   4.638   0.007  17.000 -0.1975 -0.0987 -0.2287
 6766TIP3    H141713   4.610   0.086  17.047  0.4741 -1.5153  2.6402
 6766TIP3    H241714   4.557  -0.039  16.979 -0.3703 -1.0600  2.4476
 6767TIP3   OH241715   1.172   1.400   4.097 -0.0627  0.1260  0.2453
 6767TIP3    H141716   1.252   1.451   4.108  1.3375 -1.9837  0.1942
 6767TIP3    H241717   1.187   1.352   4.015 -1.2624 -0.4838  0.3852
 6768TIP3   OH241718   3.656   3.501   0.688  0.0742  0.1661 -0.1156
 6768TIP3    H141719   3.648   3.548   0.771  1.5422  1.7254 -0.8449
 6768TIP3    H241720   3.565   3.487   0.661 -0.4083  0.5658  1.2234
 6769TIP3   OH241721   2.068   3.232  15.160  0.0177 -0.5686 -0.0896
 6769TIP3    H141722   2.032   3.303  15.213  0.1645 -1.2870  1.0026
 6769TIP3    H241723   1.993   3.195  15.114 -0.1963 -0.2740  0.0221
 6770TIP3   OH241724   0.877   5.251   1.115  0.3502 -0.3373 -0.1839
 6770TIP3    H141725   0.789   5.275   1.085  0.4916 -0.4377 -0.6919
 6770TIP3    H241726   0.932   5.323   1.086  0.2702  0.2280  1.0521
 6771TIP3   OH241727   6.614   3.068   2.585  0.3100  0.0341 -0.6883
 6771TIP3    H141728   6.676   3.141   2.587  1.0145 -0.5683  0.7471
 6771TIP3    H241729   6.570   3.073   2.670  0.2525 -1.1222 -0.6509
 6772TIP3   OH241730   0.671   6.419   6.143  0.5738 -0.0010  0.1684
 6772TIP3    H141731   0.602   6.394   6.204  1.2919 -2.9617 -0.1170
 6772TIP3    H241732   0.752   6.411   6.194  1.0036 -0.4858 -0.5715
 6773TIP3   OH241733   5.477   2.044   1.973 -0.8919 -0.2854 -0.3284
 6773TIP3    H141734   5.512   2.092   1.899  2.3481 -1.4695  0.3862
 6773TIP3    H241735   5.433   1.968   1.934 -2.4134  1.0027 -1.1936
 6774TIP3   OH241736   1.259   0.545  13.392 -0.3586  0.1516 -0.2013
 6774TIP3    H141737   1.309   0.551  13.311  0.7245  1.8975  0.5684
 6774TIP3    H241738   1.314   0.492  13.451  0.2933  1.4783  0.4075
 6775TIP3   OH241739   3.798   4.490  13.723 -0.3300  0.0291 -0.5922
 6775TIP3    H141740   3.870   4.441  13.683  0.3629  0.4914  0.0607
 6775TIP3    H241741   3.753   4.426  13.778 -1.7281 -0.7862 -2.6400
 6776TIP3   OH241742   3.003   3.674   5.075 -0.1086  0.1587  0.3319
 6776TIP3    H141743   3.012   3.604   5.011 -2.2969  0.7907 -0.7206
 6776TIP3    H241744   3.005   3.755   5.023  0.4483  0.7850  1.3130
 6777TIP3   OH241745   0.466   1.340   3.250  0.2801 -0.6393 -0.6610
 6777TIP3    H141746   0.412   1.276   3.296  0.0546 -1.3311 -1.8548
 6777TIP3    H241747   0.528   1.371   3.316  0.1843 -1.8518  0.0213
 6778TIP3   OH241748   5.335   0.419  16.204  0.1807 -0.3471  0.1570
 6778TIP3    H141749   5.304   0.397  16.116  1.7831  0.7141 -0.6898
 6778TIP3    H241750   5.317   0.512  16.213  1.1996 -0.1837  0.4669
 6779TIP3   OH241751   3.945   2.161  10.094  0.0427  0.5152 -0.4180
 6779TIP3    H141752   4.029   2.205  10.083 -0.0608  0.6008 -0.8761
 6779TIP3    H241753   3.963   2.069  10.078  0.2845  0.3689  0.6690
 6780TIP3   OH241754   6.538   0.239  13.354 -0.2359 -0.2001  0.2056
 6780TIP3    H141755   6.444   0.252  13.340 -0.0721  0.5797 -0.2618
 6780TIP3    H241756   6.557   0.157  13.309 -0.6504 -0.2320  0.0782
 6781TIP3   OH241757   5.425   3.743  13.449  0.0352  0.0390 -0.3625
 6781TIP3    H141758   5.384   3.752  13.535  0.7531 -0.4798  0.0407
 6781TIP3    H241759   5.357   3.704  13.394  0.2268 -1.5554  0.4952
 6782TIP3   OH241760   3.470   0.402   4.845  0.5004 -0.1766  0.4721
 6782TIP3    H141761   3.510   0.419   4.930  0.9373  1.4747 -0.0441
 6782TIP3    H241762   3.497   0.313   4.823  3.4535  0.6976  0.3877
 6783TIP3   OH241763   1.059   1.476  13.226 -0.0017 -0.0265 -0.8340
 6783TIP3    H141764   1.004   1.553  13.207 -1.8609 -1.3237 -0.8772
 6783TIP3    H241765   1.121   1.473  13.154  0.9495  2.1906 -0.1486
 6784TIP3   OH241766   4.543   1.075  14.902 -0.1365 -0.2431 -0.1646
 6784TIP3    H141767   4.541   1.157  14.853  2.6127 -0.2956 -0.4055
 6784TIP3    H241768   4.537   1.101  14.993  1.4317  0.2671 -0.2077
 6785TIP3   OH241769   3.174   1.971  11.299  0.0685 -0.2765  0.1026
 6785TIP3    H141770   3.206   2.062  11.302  1.2827 -0.7381  2.0531
 6785TIP3    H241771   3.166   1.952  11.205  1.4612  1.2735 -0.3598
 6786TIP3   OH241772   1.941   1.886   4.937 -0.3293 -0.3041  0.2172
 6786TIP3    H141773   1.966   1.910   4.848  1.9892  1.7145  1.3561
 6786TIP3    H241774   2.009   1.826   4.966 -0.5226 -0.1688  0.9589
 6787TIP3   OH241775   4.786   0.557  13.459  0.2535 -0.1613  0.5334
 6787TIP3    H141776   4.744   0.481  13.421 -0.7058  1.1698 -1.1172
 6787TIP3    H241777   4.834   0.597  13.387 -0.7577  1.8221  0.9269
 6788TIP3   OH241778   5.327   0.993  15.497 -0.4335  0.5424 -0.0931
 6788TIP3    H141779   5.331   0.941  15.578  0.7459  1.0894  0.2087
 6788TIP3    H241780   5.317   1.083  15.527 -0.0853  0.7358 -0.5562
 6789TIP3   OH241781   2.105   3.415  14.551  0.6477  0.3105 -0.0448
 6789TIP3    H141782   2.116   3.350  14.620 -2.6033 -1.7256 -1.3326
 6789TIP3    H241783   2.127   3.369  14.470 -0.2204  1.2775 -0.8481
 6790TIP3   OH241784   0.845   0.204  15.070  0.3164  0.1164 -0.4196
 6790TIP3    H141785   0.882   0.122  15.101  0.4024 -0.0354 -0.9098
 6790TIP3    H241786   0.800   0.241  15.146  1.3140  0.2201  0.1337
 6791TIP3   OH241787   6.570   6.153   3.791  0.3975  0.1313 -0.0633
 6791TIP3    H141788   6.623   6.228   3.764  0.2239 -0.5012 -2.3018
 6791TIP3    H241789   6.612   6.121   3.871  0.7499  2.3085  0.6405
 6792TIP3   OH241790   5.185   4.971   5.177 -0.2950  0.1673  0.0658
 6792TIP3    H141791   5.185   5.012   5.091 -0.7583 -0.3823 -0.2062
 6792TIP3    H241792   5.238   5.028   5.232  1.1621 -0.2058 -0.9382
 6793TIP3   OH241793   5.486   4.121  13.237  0.0128  0.1388 -0.7481
 6793TIP3    H141794   5.493   4.040  13.286 -2.6193  0.5138  0.3134
 6793TIP3    H241795   5.570   4.165  13.250 -0.3402 -0.1328  2.8013
 6794TIP3   OH241796   1.630   5.512   2.116  0.1818  0.1169 -0.3363
 6794TIP3    H141797   1.563   5.444   2.122 -0.7951  1.1118  0.2035
 6794TIP3    H241798   1.672   5.497   2.031 -0.0714 -1.1016 -0.2527
 6795TIP3   OH241799   2.113   5.796  15.553 -0.3055  0.0305 -0.7660
 6795TIP3    H141800   2.133   5.865  15.490  0.6020  1.1388  0.6920
 6795TIP3    H241801   2.027   5.821  15.589 -0.5046 -0.2244 -1.0640
 6796TIP3   OH241802   5.055   0.244   6.027 -0.1271 -0.3873  0.2114
 6796TIP3    H141803   4.986   0.180   6.044 -0.4227 -0.0997  0.0958
 6796TIP3    H241804   5.029   0.321   6.078 -0.4645  0.1063 -0.6904
 6797TIP3   OH241805   1.352   4.450  15.889 -0.2214 -0.0781  0.2550
 6797TIP3    H141806   1.294   4.377  15.865 -1.1749  1.0546 -0.9306
 6797TIP3    H241807   1.319   4.525  15.840  1.5365  0.8761  0.4775
 6798TIP3   OH241808   6.155   5.075   2.904 -0.0812 -0.0556  0.4593
 6798TIP3    H141809   6.061   5.084   2.917  0.1601 -0.5771  2.7517
 6798TIP3    H241810   6.164   4.993   2.855 -0.7562 -0.5638  1.1791
 6799TIP3   OH241811   0.516   5.572  13.296  0.0429  0.1498 -0.4120
 6799TIP3    H141812   0.527   5.546  13.387 -0.8826  0.9688 -0.0574
 6799TIP3    H241813   0.599   5.550  13.254  0.5662  0.0093  0.6855
 6800TIP3   OH241814   6.335   3.130   3.330  0.1631  0.4320  0.3243
 6800TIP3    H141815   6.311   3.206   3.384 -4.5931  0.5460 -1.6679
 6800TIP3    H241816   6.305   3.055   3.382  1.7555  0.1130  0.7923
 6801TIP3   OH241817   2.015   2.451  15.847  0.0753  0.5599  0.2964
 6801TIP3    H141818   1.951   2.404  15.794  0.0205  0.6315  0.2991
 6801TIP3    H241819   1.971   2.467  15.930 -0.6557  2.4096 -0.4120
 6802TIP3   OH241820   2.970   0.612   1.200 -0.2389 -0.0104  0.6054
 6802TIP3    H141821   2.935   0.525   1.183 -0.8119  0.3459 -0.0870
 6802TIP3    H241822   2.954   0.628   1.293 -0.5664 -0.4438  0.6221
 6803TIP3   OH241823   3.461   3.476  12.398 -0.2982  0.0430  0.1063
 6803TIP3    H141824   3.384   3.448  12.348 -0.4285 -0.0288  0.3465
 6803TIP3    H241825   3.520   3.400  12.394  0.4861  0.7081 -1.5237
 6804TIP3   OH241826   4.009   0.312   3.594 -0.2390  0.3402 -1.0054
 6804TIP3    H141827   3.914   0.321   3.606 -0.3819  0.0275 -1.8449
 6804TIP3    H241828   4.018   0.248   3.524  0.6015  0.4142 -0.9705
 6805TIP3   OH241829   3.159   5.260  11.719 -0.2642  0.1929  0.1409
 6805TIP3    H141830   3.154   5.191  11.784 -0.0161 -0.7014 -0.7761
 6805TIP3    H241831   3.188   5.337  11.768  1.1631 -0.7702  0.8636
 6806TIP3   OH241832   6.226   2.535   0.805 -0.6842  0.3315  0.7728
 6806TIP3    H141833   6.204   2.499   0.719  1.7186  2.0846 -0.6343
 6806TIP3    H241834   6.303   2.485   0.832 -0.4726  0.8695  1.1619
 6807TIP3   OH241835   5.911   1.215  16.471 -0.2418  0.3564  0.5098
 6807TIP3    H141836   5.943   1.250  16.388 -1.4078 -0.2063 -0.1823
 6807TIP3    H241837   5.886   1.292  16.522 -0.3055  0.6578  0.0213
 6808TIP3   OH241838   1.260   3.716  12.088 -0.8815 -0.6112  0.1944
 6808TIP3    H141839   1.177   3.672  12.068  0.3812 -2.6921 -0.6831
 6808TIP3    H241840   1.241   3.768  12.166 -2.5992 -2.3384  0.9835
 6809TIP3   OH241841   3.487   1.277  12.252  0.5133 -0.3013  0.0884
 6809TIP3    H141842   3.581   1.267  12.234  0.3096 -0.4620 -0.8855
 6809TIP3    H241843   3.444   1.223  12.187 -0.2964  0.4849 -0.0381
 6810TIP3   OH241844   4.767   1.550   4.630 -0.0555  0.5513  0.5481
 6810TIP3    H141845   4.706   1.556   4.703 -0.0923  1.3103  0.4661
 6810TIP3    H241846   4.740   1.620   4.570 -0.1278 -0.1627 -0.2683
 6811TIP3   OH241847   3.662   6.347   0.071  0.3947 -0.0223 -0.2176
 6811TIP3    H141848   3.752   6.371   0.091 -0.4532  2.5094  0.8065
 6811TIP3    H241849   3.641   6.278   0.133  1.3835 -0.0894  0.0519
 6812TIP3   OH241850   2.698   6.422   1.340  0.0874  0.5977  0.0375
 6812TIP3    H141851   2.659   6.418   1.427  0.6275  0.0689  0.2659
 6812TIP3    H241852   2.625   6.440   1.281 -0.2348  1.2434  0.6309
 6813TIP3   OH241853   6.385   2.127   1.523  0.2512  0.1472  0.3513
 6813TIP3    H141854   6.356   2.156   1.610  0.3826  1.9743 -0.2133
 6813TIP3    H241855   6.362   2.034   1.521 -1.6374  0.5592  1.5546
 6814TIP3   OH241856   1.753   3.562   0.103  0.4483  0.2214 -0.1956
 6814TIP3    H141857   1.708   3.622   0.044 -2.7752 -3.2022 -1.4224
 6814TIP3    H241858   1.801   3.502   0.046  1.5798  0.0403  0.9077
 6815TIP3   OH241859   3.639   1.334   2.462 -0.1845  0.4675 -0.0459
 6815TIP3    H141860   3.585   1.359   2.537  0.0875 -2.2498  1.1067
 6815TIP3    H241861   3.717   1.388   2.470 -1.3103  2.1066  0.1044
 6816TIP3   OH241862   0.280   0.900  12.660 -0.1100 -0.1810 -0.1019
 6816TIP3    H141863   0.325   0.831  12.708 -2.4579 -1.7658 -0.0775
 6816TIP3    H241864   0.349   0.944  12.611  1.8021 -0.8750  1.8779
 6817TIP3   OH241865   5.692   5.652  11.665 -0.5858 -0.5609  0.4441
 6817TIP3    H141866   5.704   5.557  11.673  1.5392 -0.3897 -0.5806
 6817TIP3    H241867   5.685   5.667  11.571  1.1354  0.5195  0.4775
 6818TIP3   OH241868   6.704   3.878  14.898 -0.5056  0.3126  1.2680
 6818TIP3    H141869   6.719   3.969  14.873 -0.8338 -0.0853 -0.4768
 6818TIP3    H241870   6.609   3.866  14.887 -0.2904 -0.5702  0.2776
 6819TIP3   OH241871   3.004   6.017  13.229  0.4000 -0.7746  0.3625
 6819TIP3    H141872   3.075   6.068  13.268 -0.1119  1.1077 -1.0754
 6819TIP3    H241873   3.041   5.981  13.149  0.2146 -1.2063  0.4642
 6820TIP3   OH241874   3.714   3.065  13.873 -0.2205 -0.1560  0.0385
 6820TIP3    H141875   3.656   2.993  13.847 -2.0979  1.2060  0.3076
 6820TIP3    H241876   3.662   3.116  13.936  1.0572  1.4288 -0.1515
 6821TIP3   OH241877   0.548   1.196   3.017 -0.0264 -0.2606  0.1842
 6821TIP3    H141878   0.514   1.264   3.075  0.1345  0.0840 -0.1281
 6821TIP3    H241879   0.632   1.171   3.055  1.4134  1.9287 -1.4241
 6822TIP3   OH241880   6.341   4.372  10.529 -0.2919 -0.3619  0.1098
 6822TIP3    H141881   6.437   4.372  10.530 -0.2625 -1.2387 -1.0911
 6822TIP3    H241882   6.318   4.280  10.537 -0.9449 -0.5471 -3.2486
 6823TIP3   OH241883   2.933   1.822   2.260 -0.4117  0.7677 -0.4423
 6823TIP3    H141884   2.975   1.736   2.265 -1.1748  0.4111 -0.0663
 6823TIP3    H241885   2.977   1.873   2.328 -1.0415  0.1836  0.4258
 6824TIP3   OH241886   2.460   4.041   0.865 -0.0942 -0.3433 -0.2708
 6824TIP3    H141887   2.478   4.044   0.771  1.2255 -0.7561 -0.0407
 6824TIP3    H241888   2.533   4.090   0.905 -1.2572  0.8322  0.4616
 6825TIP3   OH241889   3.343   4.965   1.498 -0.1305  0.1170 -0.0070
 6825TIP3    H141890   3.405   4.985   1.568 -1.9587 -0.8859  1.9481
 6825TIP3    H241891   3.281   5.038   1.500  0.6486  0.8591 -1.6250
 6826TIP3   OH241892   0.585   5.690   4.919  0.1698 -0.7490 -0.2502
 6826TIP3    H141893   0.665   5.649   4.953  0.9301 -0.6001 -1.8426
 6826TIP3    H241894   0.575   5.770   4.971  1.2118 -0.6199 -0.2419
 6827TIP3   OH241895   5.281   3.230  11.556 -0.0940  0.2165 -0.2680
 6827TIP3    H141896   5.268   3.249  11.649  0.7643  3.4572 -0.7195
 6827TIP3    H241897   5.308   3.139  11.553  1.6703  0.5613  2.8621
 6828TIP3   OH241898   5.179   3.628   2.083 -0.2328 -0.1625 -0.5743
 6828TIP3    H141899   5.223   3.709   2.108  0.5809 -0.5228 -0.8250
 6828TIP3    H241900   5.099   3.657   2.040  1.4528  0.5956 -3.3162
 6829TIP3   OH241901   2.381   2.827  14.785  0.3236  0.3309  0.1928
 6829TIP3    H141902   2.301   2.880  14.782 -0.4060 -0.6657  1.5758
 6829TIP3    H241903   2.442   2.872  14.726 -1.0958  1.3614 -0.5122
 6830TIP3   OH241904   6.587   6.466  16.475 -0.1030 -0.3502 -0.2739
 6830TIP3    H141905   6.556   6.448  16.386  0.3240  0.7370 -0.6514
 6830TIP3    H241906   6.626   6.554  16.469  1.4058 -0.9388  0.5982
 6831TIP3   OH241907   2.337   2.389   2.686 -0.0847  0.1263 -0.6448
 6831TIP3    H141908   2.420   2.411   2.645 -1.7010  0.5386 -3.8108
 6831TIP3    H241909   2.275   2.454   2.654 -1.9213 -0.8935  0.6812
 6832TIP3   OH241910   1.287   1.557  13.703  0.0914  0.2264  0.0432
 6832TIP3    H141911   1.307   1.612  13.627  0.9740  1.5901  1.2520
 6832TIP3    H241912   1.330   1.600  13.776 -0.7664 -1.0742  1.3371
 6833TIP3   OH241913   5.416   5.356   1.535  0.3730 -0.2080 -0.2457
 6833TIP3    H141914   5.512   5.357   1.541  0.2680 -2.2366  2.9642
 6833TIP3    H241915   5.391   5.448   1.542  2.1090  0.5511 -3.0087
 6834TIP3   OH241916   3.067   4.685  14.106  0.0173  0.0894 -0.6259
 6834TIP3    H141917   3.135   4.752  14.104  0.6030 -0.5120 -1.5686
 6834TIP3    H241918   2.985   4.732  14.088  0.0806  0.9142  1.1653
 6835TIP3   OH241919   3.897   0.044   4.249  0.2252  0.4361  0.0901
 6835TIP3    H141920   3.964   0.109   4.227 -0.0475  0.9068  0.6207
 6835TIP3    H241921   3.849   0.084   4.321  0.2233 -0.4810  0.5962
 6836TIP3   OH241922   5.596   3.995   3.390  0.2213 -0.0335 -0.4311
 6836TIP3    H141923   5.632   4.083   3.383 -0.6368  0.3928  0.4888
 6836TIP3    H241924   5.653   3.942   3.335  3.0692  0.3878  1.9901
 6837TIP3   OH241925   3.960   1.405   2.645 -0.0895 -0.1860 -0.3416
 6837TIP3    H141926   3.982   1.312   2.648  1.8920  0.3154  1.3638
 6837TIP3    H241927   3.973   1.429   2.553  0.5920 -1.3117 -0.5506
 6838TIP3   OH241928   3.313   2.936   5.468 -0.3898 -0.4457  0.3732
 6838TIP3    H141929   3.319   2.950   5.373 -1.3745  1.7691  0.5900
 6838TIP3    H241930   3.295   2.843   5.478 -0.5238 -0.6595 -1.6259
 6839TIP3   OH241931   1.865   6.606   0.523 -0.0479 -0.4191  0.2454
 6839TIP3    H141932   1.961   6.598   0.527 -0.1336 -1.7656 -0.2857
 6839TIP3    H241933   1.833   6.517   0.533 -1.2223 -0.0827 -0.4677
 6840TIP3   OH241934   5.437   6.600  14.561 -0.6659  0.2364  0.2009
 6840TIP3    H141935   5.426   6.671  14.624  1.2090  0.9806 -0.2926
 6840TIP3    H241936   5.503   6.542  14.599 -2.2494 -1.3339  0.6422
 6841TIP3   OH241937   2.771   1.346  12.131  0.5585 -0.2979 -0.5924
 6841TIP3    H141938   2.686   1.352  12.087  0.6294 -0.6738 -0.7865
 6841TIP3    H241939   2.831   1.394  12.074  0.1092  1.6576  0.5279
 6842TIP3   OH241940   3.590   2.785  12.266 -0.0736  0.4776  0.0754
 6842TIP3    H141941   3.502   2.785  12.304 -0.0362  2.9899  0.1912
 6842TIP3    H241942   3.646   2.751  12.336 -0.8797 -0.9570  0.0668
 6843TIP3   OH241943   4.315   3.703  17.135  0.0306 -0.4486  0.0806
 6843TIP3    H141944   4.282   3.648  17.065 -0.0156 -0.0581 -0.2060
 6843TIP3    H241945   4.410   3.697  17.129  0.0288 -0.2667 -0.1353
 6844TIP3   OH241946   2.836   1.779   3.293 -0.2509 -0.0470  0.5681
 6844TIP3    H141947   2.814   1.690   3.320  1.0420 -0.7184 -0.5056
 6844TIP3    H241948   2.918   1.769   3.243 -1.3759  1.4332 -1.6351
 6845TIP3   OH241949   4.665   5.666  11.873 -0.3497  0.4059 -0.1268
 6845TIP3    H141950   4.639   5.752  11.906 -0.2199  0.1805  0.5776
 6845TIP3    H241951   4.758   5.674  11.852  0.0641 -0.0203  1.4937
 6846TIP3   OH241952   4.455   4.749  14.961  0.0591 -0.0840  1.2618
 6846TIP3    H141953   4.444   4.806  14.885 -1.7526 -0.7017  1.0345
 6846TIP3    H241954   4.379   4.691  14.959 -0.2014  0.1076  3.7484
 6847TIP3   OH241955   0.435   2.463   0.521  0.1414  0.0717  0.0433
 6847TIP3    H141956   0.397   2.393   0.468 -0.3319  0.8849 -0.7016
 6847TIP3    H241957   0.360   2.515   0.550  0.5420  0.6722  0.0145
 6848TIP3   OH241958   1.359   3.956   4.528 -0.3895 -0.1261  0.4351
 6848TIP3    H141959   1.438   3.982   4.575  0.3326 -0.1538 -0.7314
 6848TIP3    H241960   1.308   4.037   4.520 -0.3932 -0.0687  1.0287
 6849TIP3   OH241961   6.612   3.950   1.769 -0.9021 -0.3725 -0.2745
 6849TIP3    H141962   6.677   3.880   1.762 -0.8012 -0.3554  0.4605
 6849TIP3    H241963   6.663   4.031   1.761 -0.9545 -0.3736 -0.6255
 6850TIP3   OH241964   5.484   6.784   0.441 -0.2298 -0.7654 -0.5315
 6850TIP3    H141965   5.504   6.701   0.398 -0.7483 -0.8606 -0.5881
 6850TIP3    H241966   5.390   6.795   0.430 -0.0672  0.1267 -1.0346
 6851TIP3   OH241967   5.938   6.433   4.429  0.0660  0.4833 -0.5660
 6851TIP3    H141968   5.882   6.499   4.469  3.9530  3.0422  1.0023
 6851TIP3    H241969   5.925   6.445   4.335 -3.1960 -0.1829 -0.2649
 6852TIP3   OH241970   5.124   6.009   0.720 -0.4909  0.8351 -0.4616
 6852TIP3    H141971   5.187   6.076   0.746  3.7195 -2.9407 -0.4570
 6852TIP3    H241972   5.093   5.972   0.803 -2.9004  2.6871 -0.4607
 6853TIP3   OH241973   2.021   6.342   0.501  0.2044  0.3244  0.0410
 6853TIP3    H141974   1.936   6.305   0.474 -0.1246  1.3949 -0.3982
 6853TIP3    H241975   2.064   6.270   0.547 -0.3362 -0.6935 -1.0119
 6854TIP3   OH241976   3.472   4.750   1.361 -0.2960  0.3455 -0.1603
 6854TIP3    H141977   3.528   4.788   1.293 -0.1981  0.0334 -0.2558
 6854TIP3    H241978   3.422   4.824   1.395  0.2252  0.6384 -0.0288
 6855TIP3   OH241979   0.211   3.729  15.397  0.4993 -0.3679  0.3991
 6855TIP3    H141980   0.135   3.739  15.339  0.5816 -1.5777  0.0699
 6855TIP3    H241981   0.188   3.780  15.475 -1.3886 -2.0549  0.9921
 6856TIP3   OH241982   4.135   5.565  15.219  0.6020 -0.2018 -0.0315
 6856TIP3    H141983   4.111   5.545  15.128  0.9800 -0.1859 -0.1342
 6856TIP3    H241984   4.108   5.488  15.268 -2.2635  0.9450  0.2942
 6857TIP3   OH241985   1.976   4.129   2.073  0.4996 -0.0233 -0.3864
 6857TIP3    H141986   1.985   4.193   2.144 -0.9155 -1.4502  1.1020
 6857TIP3    H241987   1.979   4.182   1.993 -0.6037  1.9119  0.8130
 6858TIP3   OH241988   2.822   4.511   3.541 -0.0332 -0.1098 -0.0045
 6858TIP3    H141989   2.787   4.599   3.529  1.6085  0.6940  0.9171
 6858TIP3    H241990   2.752   4.463   3.585 -0.2652  1.2724  1.1879
 6859TIP3   OH241991   5.390   2.242   2.744 -0.0004  0.1044  0.4692
 6859TIP3    H141992   5.486   2.235   2.742  0.0183  0.2631  0.8529
 6859TIP3    H241993   5.371   2.281   2.828 -0.3004  1.9842 -0.4550
 6860TIP3   OH241994   3.928   6.177   4.422 -0.3754  0.3266 -0.0501
 6860TIP3    H141995   3.875   6.098   4.415 -0.8105  0.5014  1.0514
 6860TIP3    H241996   3.927   6.216   4.335 -0.2214 -0.8375 -0.5803
 6861TIP3   OH241997   0.929   0.328  14.191  0.2618 -0.0315  0.0089
 6861TIP3    H141998   0.888   0.241  14.198 -1.5732  0.9703  2.2678
 6861TIP3    H241999   0.899   0.362  14.107  1.1290 -1.6340 -0.9685
 6862TIP3   OH242000   6.387   6.058   1.410 -0.2432 -0.2871 -0.0120
 6862TIP3    H142001   6.322   6.028   1.348  0.0150 -0.3029 -0.2761
 6862TIP3    H242002   6.353   6.032   1.496  0.0521 -1.4822 -0.2436
 6863TIP3   OH242003   0.349   4.024  15.955  0.0791 -0.4457  0.7450
 6863TIP3    H142004   0.319   4.088  15.890 -1.1638 -0.5816  1.1594
 6863TIP3    H242005   0.289   4.037  16.029  0.1282 -1.7530  1.0161
 6864TIP3   OH242006   4.491   5.685  15.839 -0.7799  0.5125 -0.0191
 6864TIP3    H142007   4.479   5.772  15.877 -0.3627  0.7697 -0.4701
 6864TIP3    H242008   4.573   5.691  15.791 -1.2827  0.1779 -0.9271
 6865TIP3   OH242009   4.764   6.383   1.537  0.2379 -0.0324 -0.0184
 6865TIP3    H142010   4.760   6.329   1.617 -0.6964 -0.7608 -0.5504
 6865TIP3    H242011   4.756   6.473   1.569  0.9967 -0.2484  0.8079
 6866TIP3   OH242012   2.990   0.291   4.640 -0.1149  0.3168 -0.9188
 6866TIP3    H142013   3.071   0.308   4.688  0.7877 -2.4567 -1.4216
 6866TIP3    H242014   3.015   0.297   4.548 -1.1914  2.5876 -1.0987
 6867TIP3   OH242015   6.739   0.086   0.036  0.4664  0.0291  0.0478
 6867TIP3    H142016   6.817   0.090  -0.020  0.9135  0.4617  0.6999
 6867TIP3    H242017   6.737  -0.005   0.067  0.0609 -0.2876 -0.8918
 6868TIP3   OH242018   5.053   0.243  15.031 -0.6549 -0.1211  0.3260
 6868TIP3    H142019   5.005   0.161  15.036  0.5479 -0.9825 -1.6970
 6868TIP3    H242020   5.138   0.224  15.072 -1.0231  0.6476  1.4894
 6869TIP3   OH242021   6.019   3.244  13.823 -0.9296 -0.0300 -0.2753
 6869TIP3    H142022   5.940   3.220  13.871 -2.2976 -0.5635 -2.7467
 6869TIP3    H242023   5.991   3.311  13.761  0.2970 -1.0291 -1.9561
 6870TIP3   OH242024   5.375   2.069  14.461  0.6399 -0.1179  0.2057
 6870TIP3    H142025   5.281   2.066  14.444  0.4542 -0.5176  1.2829
 6870TIP3    H242026   5.389   2.151  14.506  1.1979  1.1316 -2.1505
 6871TIP3   OH242027   1.314   6.109   3.065 -0.1207  0.2820  0.0686
 6871TIP3    H142028   1.313   6.039   3.000 -1.7564  2.4475 -2.3742
 6871TIP3    H242029   1.222   6.122   3.087  0.1766  1.4454  0.6728
 6872TIP3   OH242030   4.082   5.470  10.747 -0.2628  0.0690  0.0445
 6872TIP3    H142031   4.121   5.388  10.716  0.8023  0.6886 -0.2843
 6872TIP3    H242032   4.055   5.516  10.667 -1.0722 -0.0494  0.2367
 6873TIP3   OH242033   6.062   0.872   0.307 -0.3588  0.5271  0.1285
 6873TIP3    H142034   6.116   0.935   0.356 -1.0079  0.3441  1.1059
 6873TIP3    H242035   6.063   0.904   0.217 -2.1867  2.9988  0.9325
 6874TIP3   OH242036   0.386   3.374  16.650  0.8040  0.2201 -0.2431
 6874TIP3    H142037   0.468   3.332  16.624  1.9012  1.8744  0.4267
 6874TIP3    H242038   0.397   3.391  16.743 -0.3716  0.2953 -0.1174
 6875TIP3   OH242039   4.253   4.554   2.843 -0.4677  0.2483 -0.2137
 6875TIP3    H142040   4.323   4.619   2.835 -1.2060  1.2534  1.3496
 6875TIP3    H242041   4.292   4.484   2.896 -0.9719  1.2985  1.5703
 6876TIP3   OH242042   4.873   1.131  13.717  0.0206  0.0608  0.0430
 6876TIP3    H142043   4.937   1.117  13.787  2.0929  2.6710 -1.2224
 6876TIP3    H242044   4.900   1.071  13.647 -1.0650 -1.3647  0.8229
 6877TIP3   OH242045   3.282   2.674   2.924 -0.0440 -0.3141  0.1985
 6877TIP3    H142046   3.191   2.698   2.936  0.5340  2.0392  0.0468
 6877TIP3    H242047   3.330   2.725   2.988  1.0180 -2.9827  1.6224
 6878TIP3   OH242048   0.453   0.788   0.981  0.0112  0.6611  0.2646
 6878TIP3    H142049   0.509   0.764   0.907 -0.6181  2.6624 -0.8991
 6878TIP3    H242050   0.506   0.848   1.033 -0.6457  1.7247 -0.2702
 6879TIP3   OH242051   2.760   1.027  16.520  0.4979  0.2507 -0.4121
 6879TIP3    H142052   2.837   0.986  16.479  1.4569  0.9020  0.7102
 6879TIP3    H242053   2.729   1.090  16.456 -0.6057 -1.7275 -1.9006
 6880TIP3   OH242054   5.897   0.499   3.683 -0.2704  0.5048  0.2942
 6880TIP3    H142055   5.952   0.576   3.673  0.7499 -0.2621 -0.1059
 6880TIP3    H242056   5.925   0.460   3.766 -0.1826  0.1044  0.0807
 6881TIP3   OH242057   0.527   2.630  11.474 -0.5124 -0.1482 -0.3722
 6881TIP3    H142058   0.431   2.631  11.465 -0.4103 -2.7080 -2.1328
 6881TIP3    H242059   0.546   2.543  11.509  1.1601  0.4946  0.3287
 6882TIP3   OH242060   5.776   3.399   6.414  0.1573 -0.2674  0.5721
 6882TIP3    H142061   5.735   3.314   6.395  0.6296 -0.0900 -1.3222
 6882TIP3    H242062   5.710   3.446   6.466 -0.1429 -1.7433  1.5690
 6883TIP3   OH242063   6.127   6.429  13.572  0.4050 -0.1224 -0.3474
 6883TIP3    H142064   6.093   6.448  13.484  0.4749 -0.5040 -0.4546
 6883TIP3    H242065   6.203   6.374  13.557 -0.6237 -1.6652  0.0415
 6884TIP3   OH242066   5.253   1.395   1.568  0.4322 -0.0939 -0.0488
 6884TIP3    H142067   5.265   1.333   1.496  4.3081 -2.1689  2.1896
 6884TIP3    H242068   5.207   1.345   1.635  2.0022 -0.0624  1.0881
 6885TIP3   OH242069   2.598   3.546   0.374  0.0266 -0.2552  0.2570
 6885TIP3    H142070   2.626   3.463   0.411  0.6033  0.1845  0.8246
 6885TIP3    H242071   2.557   3.593   0.447 -0.0219  0.0813  0.0180
 6886TIP3   OH242072   5.353   4.752   0.175 -0.2377 -0.0377 -0.1387
 6886TIP3    H142073   5.270   4.795   0.153  1.1825  2.5953 -0.6032
 6886TIP3    H242074   5.417   4.794   0.118  1.8776  0.0610  2.2371
 6887TIP3   OH242075   0.304   5.850  17.034 -0.3682  0.0112 -0.1532
 6887TIP3    H142076   0.300   5.850  17.129 -3.5150 -0.1819 -0.2475
 6887TIP3    H242077   0.256   5.771  17.007 -2.7701  2.0022 -1.9550
 6888TIP3   OH242078   0.517   3.343   2.981 -0.6932  0.0299 -0.9053
 6888TIP3    H142079   0.489   3.260   2.941  2.8059 -0.5891 -2.2694
 6888TIP3    H242080   0.516   3.405   2.908 -1.9383  0.8908 -0.1778
 6889TIP3   OH242081   4.072   0.179  15.131 -0.0693  0.3237  0.2673
 6889TIP3    H142082   4.002   0.223  15.179 -1.6436 -2.4136  0.5908
 6889TIP3    H242083   4.122   0.250  15.091 -1.6799  2.4343  1.8754
 6890TIP3   OH242084   1.533   6.010   1.346  0.0969  0.4496 -0.0737
 6890TIP3    H142085   1.582   5.928   1.340 -1.5094 -0.3916 -2.8827
 6890TIP3    H242086   1.599   6.078   1.359  1.7624 -0.9424 -1.0936
 6891TIP3   OH242087   2.109   0.512  13.453 -0.2464  0.2801 -0.8752
 6891TIP3    H142088   2.127   0.444  13.518  0.0557 -0.1860 -1.4321
 6891TIP3    H242089   2.183   0.507  13.392  0.1064  1.5496 -0.5666
 6892TIP3   OH242090   2.634   5.930   4.719 -0.1620  0.1909  0.9431
 6892TIP3    H142091   2.600   5.849   4.682 -0.2370  0.3804  0.5902
 6892TIP3    H242092   2.706   5.955   4.660 -0.7305  0.8659  0.5234
 6893TIP3   OH242093   2.192   0.843   3.989  0.0488  0.1377 -0.0056
 6893TIP3    H142094   2.173   0.854   3.896 -0.8938  1.1483  0.3105
 6893TIP3    H242095   2.113   0.804   4.025 -0.4771  1.9147  0.8082
 6894TIP3   OH242096   2.247   1.935  16.466  0.0863  0.2750  0.0441
 6894TIP3    H142097   2.263   2.021  16.426 -1.8655  0.3954 -0.4989
 6894TIP3    H242098   2.224   1.955  16.557  1.5660  0.1874  0.4548
 6895TIP3   OH242099   2.040   4.065   2.369 -0.0565  0.2157 -0.1218
 6895TIP3    H142100   2.098   4.035   2.299  0.6755 -0.3286  0.7076
 6895TIP3    H242101   2.085   4.141   2.406  0.5519 -0.6962  1.0582
 6896TIP3   OH242102   1.529   3.246  16.220 -0.5738  0.2678  0.1056
 6896TIP3    H142103   1.513   3.170  16.275  2.0008 -1.3651 -1.2823
 6896TIP3    H242104   1.522   3.213  16.130  1.0096  1.5243 -0.5182
 6897TIP3   OH242105   0.045   2.679  13.119 -0.1337  0.1949  0.1927
 6897TIP3    H142106  -0.025   2.617  13.139  0.2860 -0.3226  0.0830
 6897TIP3    H242107   0.005   2.742  13.060 -0.4126 -0.3076 -0.1608
 6898TIP3   OH242108   5.200   6.004  12.932  0.1234 -0.0840 -0.6474
 6898TIP3    H142109   5.126   6.053  12.897 -0.8195 -0.6309  0.5558
 6898TIP3    H242110   5.264   6.071  12.957 -0.8088  0.4904  0.2105
 6899TIP3   OH242111   4.831   1.688  17.010  0.0902 -0.4215 -0.1524
 6899TIP3    H142112   4.920   1.707  16.978  0.0683  0.2279  0.1589
 6899TIP3    H242113   4.843   1.618  17.074  0.4131 -0.1438  0.0917
 6900TIP3   OH242114   3.573   3.912   1.525  0.2285  0.0158  0.3298
 6900TIP3    H142115   3.585   3.823   1.556 -0.6000  0.5843  2.3381
 6900TIP3    H242116   3.495   3.944   1.571  0.4463  1.7432 -0.4487
 6901TIP3   OH242117   2.859   4.923   3.847  0.0176  0.0729 -0.4022
 6901TIP3    H142118   2.860   5.019   3.846  0.4683  0.0798  0.3280
 6901TIP3    H242119   2.872   4.898   3.756 -0.6013  0.7106 -0.6685
 6902TIP3   OH242120   6.252   0.086  11.782 -0.0856 -0.0939  0.0652
 6902TIP3    H142121   6.224   0.115  11.869 -0.2486 -1.5152  0.4965
 6902TIP3    H242122   6.172   0.052  11.741  0.5507 -2.1784  0.4925
 6903TIP3   OH242123   0.089   5.896  14.431 -0.2381  0.0110  0.3682
 6903TIP3    H142124  -0.007   5.902  14.431 -0.3357 -1.1681 -1.2514
 6903TIP3    H242125   0.119   5.982  14.402 -0.8052  0.2731  0.5491
 6904TIP3   OH242126   6.315   6.085  10.764  0.1444 -0.5205 -0.6852
 6904TIP3    H142127   6.227   6.070  10.727  0.1384  0.9856 -1.3222
 6904TIP3    H242128   6.353   5.998  10.772 -1.0789 -1.1161 -1.2594
 6905TIP3   OH242129   1.480   0.963   5.887  0.0029 -0.4934 -0.0380
 6905TIP3    H142130   1.554   0.917   5.926  2.0052  2.0340 -0.6791
 6905TIP3    H242131   1.439   1.010   5.959 -1.3794 -2.3548  0.4211
 6906TIP3   OH242132   3.501   6.640   6.480 -0.0606 -0.3379  0.0468
 6906TIP3    H142133   3.561   6.596   6.420  1.0929  1.9529 -0.5388
 6906TIP3    H242134   3.433   6.676   6.423 -0.1165  0.0354  0.3511
 6907TIP3   OH242135   5.054   1.806   2.734 -0.2229  0.1737 -0.8013
 6907TIP3    H142136   4.966   1.782   2.704 -0.4498  1.1532 -0.9151
 6907TIP3    H242137   5.046   1.813   2.830 -0.7500  2.2025 -0.9745
 6908TIP3   OH242138   2.402   4.831   5.128  0.0539 -0.3520 -0.2200
 6908TIP3    H142139   2.406   4.916   5.084 -0.1847  0.0651  0.5560
 6908TIP3    H242140   2.479   4.830   5.185  0.2696 -0.8200 -0.5211
 6909TIP3   OH242141   2.975   3.533   5.849 -0.1040 -0.2522  0.0423
 6909TIP3    H142142   3.067   3.525   5.824 -0.1789  1.4930 -0.8406
 6909TIP3    H242143   2.929   3.554   5.768 -1.0591  0.4258  0.7518
 6910TIP3   OH242144   6.071   0.606   4.883  0.0180  0.2494 -0.5863
 6910TIP3    H142145   6.003   0.632   4.944 -0.0941  0.9856 -1.0154
 6910TIP3    H242146   6.066   0.511   4.879  0.6879  0.1219  1.3040
 6911TIP3   OH242147   0.158   6.371  13.658 -0.0777  0.2674  0.5519
 6911TIP3    H142148   0.241   6.333  13.631  0.5877  0.0447  2.8322
 6911TIP3    H242149   0.183   6.452  13.704 -1.3083  1.9276 -1.5755
 6912TIP3   OH242150   3.449   0.873  11.496  0.0879  0.1385 -0.5331
 6912TIP3    H142151   3.389   0.845  11.565 -0.9699 -0.2897 -1.6245
 6912TIP3    H242152   3.501   0.795  11.476  0.7737  0.4066  0.1367
 6913TIP3   OH242153   6.068   3.620   4.955  0.1558 -0.0640  0.1397
 6913TIP3    H142154   6.072   3.714   4.934 -0.3695  0.0979  0.7684
 6913TIP3    H242155   6.140   3.606   5.017 -0.6232  0.1988  1.1093
 6914TIP3   OH242156   6.642   4.489   3.154 -0.0341  0.5339  0.2057
 6914TIP3    H142157   6.696   4.411   3.163 -0.3866  0.2701  0.0822
 6914TIP3    H242158   6.611   4.508   3.243 -2.0151 -0.9780 -0.1308
 6915TIP3   OH242159   5.005   0.659   4.119  0.3648  0.1315 -0.1938
 6915TIP3    H142160   4.910   0.649   4.125  0.2123 -1.5639 -3.8701
 6915TIP3    H242161   5.017   0.739   4.067  0.9892  0.5859  0.6333
 6916TIP3   OH242162   4.919   0.299  13.166 -0.0093 -0.0732 -0.7206
 6916TIP3    H142163   4.893   0.209  13.145 -1.4886  0.8941 -3.3200
 6916TIP3    H242164   4.873   0.353  13.101  4.1393  2.2271 -1.9322
 6917TIP3   OH242165   0.256   2.151  17.088 -0.5556 -0.2642 -0.3637
 6917TIP3    H142166   0.286   2.131  17.000 -1.8068 -2.1532 -0.3712
 6917TIP3    H242167   0.217   2.070  17.120  0.2550  0.2523  2.0953
 6918TIP3   OH242168   0.411   5.727  13.078  0.4197 -0.1399 -0.5065
 6918TIP3    H142169   0.442   5.670  13.149  1.2382  0.1859 -0.6055
 6918TIP3    H242170   0.323   5.694  13.059 -0.6308  1.0769  2.0628
 6919TIP3   OH242171   5.838   1.697  12.184 -0.5480 -0.0850 -0.2662
 6919TIP3    H142172   5.912   1.636  12.185 -0.9919 -0.7288 -2.9575
 6919TIP3    H242173   5.796   1.685  12.269  2.6425  0.5838  1.4500
 6920TIP3   OH242174   1.993   3.775   3.451 -0.1811 -0.2895 -0.3922
 6920TIP3    H142175   2.044   3.702   3.416 -0.4867 -1.3206  1.2389
 6920TIP3    H242176   1.904   3.760   3.419 -0.8557 -2.2604  2.2619
 6921TIP3   OH242177   6.730   6.332  14.810  0.0491 -0.0476 -0.3991
 6921TIP3    H142178   6.661   6.288  14.859  0.1850 -0.6422 -0.7307
 6921TIP3    H242179   6.703   6.424  14.807 -1.0251 -0.3669 -1.0076
 6922TIP3   OH242180   4.484   4.026   5.241 -0.2600  0.4980  0.5065
 6922TIP3    H142181   4.389   4.016   5.252 -0.4170  0.4172 -0.7815
 6922TIP3    H242182   4.492   4.088   5.168  0.6663 -1.0054 -0.6907
 6923TIP3   OH242183   1.042   6.197  13.985 -0.2813  0.3052 -0.6218
 6923TIP3    H142184   1.040   6.249  13.904  1.4293  0.3669 -0.6408
 6923TIP3    H242185   1.130   6.210  14.020 -1.6900  2.0594  2.4546
 6924TIP3   OH242186   3.993   1.283   5.789  0.1294  0.4653 -0.2681
 6924TIP3    H142187   3.975   1.376   5.792 -1.9352  0.1847 -2.6848
 6924TIP3    H242188   3.984   1.259   5.697  0.6228 -2.1181  0.3072
 6925TIP3   OH242189   2.452   4.452  14.633  0.2225 -0.1310 -0.0780
 6925TIP3    H142190   2.385   4.479  14.570  0.1572  2.1954  0.9349
 6925TIP3    H242191   2.520   4.411  14.579 -0.6782  0.1163 -1.4304
 6926TIP3   OH242192   4.456   6.410   4.749 -0.7060 -0.0851  0.1574
 6926TIP3    H142193   4.427   6.481   4.806  0.6518 -0.0131  0.7670
 6926TIP3    H242194   4.467   6.450   4.663 -1.2842  0.1322  0.1828
 6927TIP3   OH242195   1.959   0.310  16.404  0.1403 -0.4423  0.2313
 6927TIP3    H142196   1.893   0.352  16.458 -1.0609 -0.2279 -1.3698
 6927TIP3    H242197   2.020   0.270  16.467 -1.7785 -1.0949  1.7201
 6928TIP3   OH242198   5.847   0.632  13.896 -0.2133  0.2946 -0.1887
 6928TIP3    H142199   5.865   0.704  13.955  0.5337  0.0609 -0.1253
 6928TIP3    H242200   5.924   0.627  13.840 -0.2095 -0.5228 -0.1150
 6929TIP3   OH242201   0.861   0.821  11.611  0.1371  0.4748  0.3863
 6929TIP3    H142202   0.797   0.803  11.680 -2.2762 -1.6828 -2.2955
 6929TIP3    H242203   0.892   0.734  11.584  4.0689  1.4751  1.4530
 6930TIP3   OH242204   1.862   1.429  15.070 -0.1285  0.6173  0.3002
 6930TIP3    H142205   1.921   1.504  15.056  0.6173 -0.1352 -0.6348
 6930TIP3    H242206   1.808   1.426  14.991 -0.0248  0.0430  0.2554
 6931TIP3   OH242207   2.759   2.597   3.141 -0.0071  0.4239 -0.2263
 6931TIP3    H142208   2.694   2.596   3.211 -1.0477 -0.5119 -1.1913
 6931TIP3    H242209   2.807   2.515   3.152 -0.0774  0.3427 -0.5297
 6932TIP3   OH242210   5.403   0.712   4.718 -0.1684  0.5856 -0.2073
 6932TIP3    H142211   5.386   0.635   4.772  0.3334 -0.8248 -1.9905
 6932TIP3    H242212   5.378   0.786   4.773 -0.2718 -0.8229  1.7024
 6933TIP3   OH242213   1.630   5.627   4.307 -0.0777  0.3878  0.2921
 6933TIP3    H142214   1.663   5.606   4.219 -0.5688 -0.3768  0.2812
 6933TIP3    H242215   1.689   5.582   4.367 -0.9356 -0.7850  0.2790
 6934TIP3   OH242216   1.558   3.200   2.878  0.0519 -1.0722  0.5734
 6934TIP3    H142217   1.561   3.251   2.797  0.2858 -1.6015  0.2487
 6934TIP3    H242218   1.550   3.109   2.849  0.1298 -1.2631  1.1451
 6935TIP3   OH242219   5.471   3.700   4.114  0.4596 -0.1759  0.4922
 6935TIP3    H142220   5.525   3.767   4.072  0.0137  0.4157  0.8565
 6935TIP3    H242221   5.390   3.746   4.138  0.4100 -0.6941  1.3173
 6936TIP3   OH242222   5.480   5.100   1.421 -0.6110  0.4183  0.2216
 6936TIP3    H142223   5.421   5.057   1.360  0.0948  1.6603 -1.3489
 6936TIP3    H242224   5.451   5.191   1.424 -0.2953  0.4978  1.3158
 6937TIP3   OH242225   2.896   2.276   1.524  0.1337 -0.0074 -0.8553
 6937TIP3    H142226   2.969   2.302   1.579 -1.2932  0.7085  0.7290
 6937TIP3    H242227   2.818   2.297   1.575 -1.2080 -0.0534 -2.8141
 6938TIP3   OH242228   1.674   4.250  12.714  0.1635 -0.4402  0.6968
 6938TIP3    H142229   1.614   4.177  12.728 -3.0807  1.8955 -0.2060
 6938TIP3    H242230   1.685   4.255  12.619 -0.0890  0.5359  0.7059
 6939TIP3   OH242231   3.403   5.122  14.037  0.2720  0.5967 -0.8069
 6939TIP3    H142232   3.446   5.040  14.064 -0.8600  0.3644  0.3088
 6939TIP3    H242233   3.318   5.120  14.080 -0.2359  1.8189 -1.7254
 6940TIP3   OH242234   3.206   6.164  12.189  0.4126 -0.3533 -0.7206
 6940TIP3    H142235   3.150   6.201  12.257 -0.8409 -2.2174 -0.6975
 6940TIP3    H242236   3.241   6.241  12.143 -2.5813  0.8905 -1.0755
 6941TIP3   OH242237   4.725   6.618   5.614  0.0449  0.3329 -0.1672
 6941TIP3    H142238   4.654   6.587   5.669 -0.7591 -1.4967 -2.1528
 6941TIP3    H242239   4.754   6.541   5.566  4.2108  0.7954  1.4374
 6942TIP3   OH242240   2.638   5.873   4.359  0.4871 -0.5198 -0.0214
 6942TIP3    H142241   2.706   5.876   4.293  0.4712  2.3257  0.0392
 6942TIP3    H242242   2.563   5.834   4.314  0.8261  0.3369 -1.3505
 6943TIP3   OH242243   6.736   4.344  14.743 -0.5630  0.1597  0.3001
 6943TIP3    H142244   6.704   4.434  14.743  0.6575  0.6113  0.9012
 6943TIP3    H242245   6.809   4.345  14.681  1.2683  0.2698  2.4042
 6944TIP3   OH242246   6.471   1.899  16.829 -0.0722 -0.1821  0.4560
 6944TIP3    H142247   6.565   1.902  16.814 -0.0279  0.2373  0.7990
 6944TIP3    H242248   6.444   1.812  16.799  0.4820 -0.4345  0.6816
 6945TIP3   OH242249   2.397   6.546  16.373 -0.0731 -0.2849  0.2162
 6945TIP3    H142250   2.471   6.599  16.403  0.3030 -1.6962  1.8336
 6945TIP3    H242251   2.393   6.563  16.278  2.4427 -0.3477  0.0556
 6946TIP3   OH242252   1.037   5.954  15.208 -0.0319 -0.6193 -0.1441
 6946TIP3    H142253   0.993   5.887  15.156 -0.0406 -0.8919  0.2141
 6946TIP3    H242254   1.122   5.916  15.231  0.4518 -0.0311 -0.9641
 6947TIP3   OH242255   2.831   5.314   0.989  0.4769 -0.2075 -0.7398
 6947TIP3    H142256   2.885   5.354   1.058 -0.2408  0.1199 -0.3606
 6947TIP3    H242257   2.830   5.379   0.919 -1.3606  0.8160  0.2037
 6948TIP3   OH242258   1.904   0.040   5.194  0.3741 -0.2384  0.2752
 6948TIP3    H142259   1.991   0.028   5.233  0.5599  0.7701  0.1718
 6948TIP3    H242260   1.843   0.027   5.266  0.6744  0.6005  0.6795
 6949TIP3   OH242261   5.901   4.075   4.876 -0.4278 -0.3284 -0.0278
 6949TIP3    H142262   5.951   4.153   4.900  0.5308 -0.9510  0.0578
 6949TIP3    H242263   5.815   4.088   4.915  0.5848 -0.5560  2.4069
 6950TIP3   OH242264   1.137   1.302  14.448  0.4418 -0.4607 -0.3470
 6950TIP3    H142265   1.062   1.282  14.392  0.1931 -1.2564  0.2477
 6950TIP3    H242266   1.113   1.383  14.493  0.3800 -0.1594 -0.9299
 6951TIP3   OH242267   0.377   6.394  16.102  0.4526 -0.5719 -0.3610
 6951TIP3    H142268   0.467   6.397  16.134  0.5419  1.1013 -0.7198
 6951TIP3    H242269   0.382   6.426  16.012 -0.6707  0.8947  0.0612
 6952TIP3   OH242270   2.737   1.215   4.588  0.5908 -0.3269  0.7491
 6952TIP3    H142271   2.809   1.276   4.605 -0.3221  1.1283 -0.5392
 6952TIP3    H242272   2.752   1.186   4.498  1.6601 -2.9110  1.7067
 6953TIP3   OH242273   3.397   6.410   0.131  0.1140  0.0324 -0.1358
 6953TIP3    H142274   3.473   6.384   0.079  0.7223  0.5169  0.4967
 6953TIP3    H242275   3.339   6.334   0.130  0.1878 -0.0090 -1.3923
 6954TIP3   OH242276   5.541   6.193   6.430  0.2423  0.5978  0.0094
 6954TIP3    H142277   5.626   6.200   6.387  1.2643  0.5838  1.9811
 6954TIP3    H242278   5.478   6.193   6.358  2.0452 -2.3760 -1.6777
 6955TIP3   OH242279   5.187   2.767   1.410  0.1408 -0.0939 -0.0367
 6955TIP3    H142280   5.127   2.776   1.336  0.8088  1.4023 -0.4155
 6955TIP3    H242281   5.267   2.729   1.373 -0.0731 -0.8029  0.2149
 6956TIP3   OH242282   6.559   4.871  14.984 -0.0051  0.1400  0.2768
 6956TIP3    H142283   6.491   4.901  15.045 -2.1641  0.9870 -2.4086
 6956TIP3    H242284   6.557   4.935  14.913  2.9418 -0.4056 -0.3518
 6957TIP3   OH242285   2.210   3.542  10.454 -0.2473  0.3319 -0.3973
 6957TIP3    H142286   2.260   3.623  10.458 -1.2654  0.8935  1.1717
 6957TIP3    H242287   2.137   3.555  10.514 -1.1199 -1.2780 -1.0660
 6958TIP3   OH242288   4.389   1.697   2.420  0.1215 -0.7452 -0.1165
 6958TIP3    H142289   4.450   1.715   2.349  1.8645 -1.3064  1.1899
 6958TIP3    H242290   4.429   1.626   2.469 -0.8307 -0.1131  1.6598
 6959TIP3   OH242291   2.024   2.754  16.166 -0.3176 -0.0352 -0.5498
 6959TIP3    H142292   2.012   2.666  16.131  3.4874 -0.4407 -1.1446
 6959TIP3    H242293   1.987   2.751  16.254  1.1307 -2.7211  0.0116
 6960TIP3   OH242294   0.188   2.543  15.903  0.2200  0.0305 -0.2298
 6960TIP3    H142295   0.201   2.473  15.838  1.0627  0.6142 -0.6942
 6960TIP3    H242296   0.174   2.496  15.985  1.2829 -0.6864 -0.4432
 6961TIP3   OH242297   3.293   5.630  15.187 -0.1406 -0.5932 -0.0165
 6961TIP3    H142298   3.360   5.566  15.208  0.7706 -0.5509 -2.5987
 6961TIP3    H242299   3.335   5.715  15.202 -1.1765 -0.5292  2.8865
 6962TIP3   OH242300   0.127   0.461   3.642  0.6222  0.3420  0.4563
 6962TIP3    H142301   0.137   0.453   3.547  2.1432 -1.1100  0.7083
 6962TIP3    H242302   0.089   0.547   3.655 -2.6511 -0.7151 -1.6490
 6963TIP3   OH242303   2.713   5.766  13.362  0.0708 -0.4355  0.5418
 6963TIP3    H142304   2.761   5.831  13.412  0.8985  0.3867 -1.2627
 6963TIP3    H242305   2.755   5.683  13.383  2.5696  0.2940 -1.2328
 6964TIP3   OH242306   4.956   0.020   0.390  0.8431  0.2237 -0.0561
 6964TIP3    H142307   4.906   0.016   0.309  1.3315  0.2893 -0.3621
 6964TIP3    H242308   4.891   0.038   0.458 -0.0839 -3.3541  0.0731
 6965TIP3   OH242309   1.841   4.465   0.313  0.9703  0.3102 -0.4944
 6965TIP3    H142310   1.851   4.535   0.378 -0.3533 -2.0490  2.3787
 6965TIP3    H242311   1.916   4.408   0.327  0.3569 -0.5321 -0.6224
 6966TIP3   OH242312   3.553   4.284  12.903 -0.4757 -0.3528 -0.5660
 6966TIP3    H142313   3.584   4.195  12.885 -0.8080 -0.8131  1.0769
 6966TIP3    H242314   3.520   4.315  12.819  1.9144 -0.8645 -1.7147
 6967TIP3   OH242315   3.447   1.784  15.911  0.1274  0.3583 -0.6064
 6967TIP3    H142316   3.465   1.699  15.953 -0.3837  0.6878  0.2884
 6967TIP3    H242317   3.490   1.848  15.968 -3.3238  1.1225  1.2827
 6968TIP3   OH242318   2.907   3.614  13.378 -0.3864  0.4811  0.3842
 6968TIP3    H142319   2.983   3.608  13.320 -1.0858  0.8176 -0.5861
 6968TIP3    H242320   2.868   3.527  13.376 -1.6981  1.0726 -1.4652
 6969TIP3   OH242321   0.707   1.090  15.579 -0.4282  0.3145 -0.2290
 6969TIP3    H142322   0.763   1.013  15.594  0.3959  1.1645  1.1763
 6969TIP3    H242323   0.761   1.148  15.525 -0.2755  0.7661  0.4041
 6970TIP3   OH242324   2.766   6.520  14.609 -0.2662  0.8399  0.3732
 6970TIP3    H142325   2.695   6.467  14.574 -0.8787  2.4842 -0.9165
 6970TIP3    H242326   2.723   6.596  14.648  0.7944  1.9914 -0.6672
 6971TIP3   OH242327   0.674   5.912  11.809  0.2680 -0.3408 -0.0783
 6971TIP3    H142328   0.762   5.949  11.809  0.5305 -0.9289 -0.8004
 6971TIP3    H242329   0.620   5.976  11.763  0.2120  0.2522  0.8088
 6972TIP3   OH242330   3.859   5.076  12.626  1.2165  0.1093 -0.5381
 6972TIP3    H142331   3.946   5.036  12.636  1.7182  1.4023  0.4172
 6972TIP3    H242332   3.814   5.056  12.708  2.1543  3.0673  0.7743
 6973TIP3   OH242333   1.227   3.013  12.578  0.0163 -0.2610 -0.3006
 6973TIP3    H142334   1.182   3.067  12.514 -1.6544 -0.4035  0.7232
 6973TIP3    H242335   1.210   2.923  12.550  0.4356 -0.3062 -0.4184
 6974TIP3   OH242336   5.170   2.884   1.676  0.3691  0.4352  0.4062
 6974TIP3    H142337   5.122   2.839   1.607 -0.9016  2.5582 -0.1580
 6974TIP3    H242338   5.121   2.965   1.690  3.3826  2.3382  0.3400
 6975TIP3   OH242339   5.909   4.570  16.589 -0.0669  0.1212 -0.6700
 6975TIP3    H142340   5.900   4.579  16.495 -0.7043 -1.7911 -0.8099
 6975TIP3    H242341   5.826   4.605  16.624 -1.0225 -1.7637 -0.9936
 6976TIP3   OH242342   0.667   1.946  12.697  0.3439  0.4952  0.1193
 6976TIP3    H142343   0.595   1.998  12.664  2.0125  1.5043 -2.0905
 6976TIP3    H242344   0.712   2.003  12.759  0.3638  0.5563  0.0481
 6977TIP3   OH242345   6.383   6.345   0.714 -0.4236  0.0695 -0.3396
 6977TIP3    H142346   6.391   6.299   0.630  0.0539  2.9851 -1.9677
 6977TIP3    H242347   6.290   6.345   0.733 -0.6349  0.1473 -1.3309
 6978TIP3   OH242348   2.938   0.096  16.803 -0.0282 -0.0430 -0.3728
 6978TIP3    H142349   2.920   0.038  16.877 -0.3428  0.4109 -0.0878
 6978TIP3    H242350   3.031   0.117  16.811 -0.6020  2.0459  1.4081
 6979TIP3   OH242351   6.394   6.746  12.610  0.0470  0.7470  0.5627
 6979TIP3    H142352   6.423   6.734  12.519  0.0050  1.5534  0.4423
 6979TIP3    H242353   6.421   6.835  12.632 -0.0495  0.5923  1.3081
 6980TIP3   OH242354   6.329   3.430  10.308  0.7297 -0.3245  0.1851
 6980TIP3    H142355   6.239   3.461  10.307  0.7956 -0.1410  0.0336
 6980TIP3    H242356   6.381   3.503  10.273  0.9942 -0.2383  0.7366
 6981TIP3   OH242357   3.709   2.680   5.285 -0.1075 -0.2107  0.6003
 6981TIP3    H142358   3.670   2.664   5.372  0.2595 -0.1195  0.7822
 6981TIP3    H242359   3.679   2.769   5.262 -0.4578 -0.3543  0.4962
 6982TIP3   OH242360   2.283   2.157  11.788  0.4089 -0.1599 -0.4324
 6982TIP3    H142361   2.377   2.174  11.785 -0.0792  2.9981  0.3600
 6982TIP3    H242362   2.248   2.206  11.714 -0.5719 -1.6586 -0.9667
 6983TIP3   OH242363   4.751   5.786   2.580  0.0752  0.1980 -0.5007
 6983TIP3    H142364   4.742   5.798   2.675  0.4740 -0.5270 -0.3679
 6983TIP3    H242365   4.836   5.825   2.559  0.4568 -0.5661 -0.3910
 6984TIP3   OH242366   6.233   5.146  13.995  0.0276 -0.0329  0.5718
 6984TIP3    H142367   6.274   5.069  14.035  0.6414 -0.8980 -1.6137
 6984TIP3    H242368   6.243   5.215  14.060  2.6149 -0.9047  1.1906
 6985TIP3   OH242369   0.470   4.668  11.777 -0.3419  0.1452  0.5376
 6985TIP3    H142370   0.489   4.690  11.869 -1.6051  2.5824  0.2561
 6985TIP3    H242371   0.386   4.711  11.760 -0.6702 -1.2462 -1.4483
 6986TIP3   OH242372   3.627   2.837   2.942 -0.0559 -0.0531  0.1365
 6986TIP3    H142373   3.710   2.835   2.988  0.6866  0.8651 -1.1331
 6986TIP3    H242374   3.562   2.810   3.007  0.8266  2.1408  2.0074
 6987TIP3   OH242375   5.509   0.089   6.551  0.0759  0.6854  0.5418
 6987TIP3    H142376   5.545   0.028   6.486 -0.3315  1.5319 -0.5027
 6987TIP3    H242377   5.510   0.040   6.633  1.0711 -0.2340 -0.0016
 6988TIP3   OH242378   5.716   1.090  12.694  0.5241 -0.1094  0.2902
 6988TIP3    H142379   5.663   1.015  12.666  1.4302 -0.8299  0.4984
 6988TIP3    H242380   5.657   1.141  12.750 -0.8556  0.5958 -1.6952
 6989TIP3   OH242381   3.465   0.815  15.786  0.0304 -0.4352 -0.4422
 6989TIP3    H142382   3.472   0.823  15.881 -0.5301  1.3947 -0.5367
 6989TIP3    H242383   3.410   0.737  15.772 -0.5224 -0.2692  0.7368
 6990TIP3   OH242384   0.147   5.958   0.186 -0.5626 -0.3111 -0.0820
 6990TIP3    H142385   0.071   5.959   0.129  1.7372 -0.0790 -3.2342
 6990TIP3    H242386   0.190   6.042   0.172  0.7788 -0.7948  0.9365
 6991TIP3   OH242387   0.155   5.056   1.590 -0.0720  0.3594  0.1352
 6991TIP3    H142388   0.185   5.096   1.508 -0.2298 -3.1351 -1.6933
 6991TIP3    H242389   0.066   5.090   1.601  0.6038  2.2933 -0.1254
 6992TIP3   OH242390   2.596   4.671  11.714 -0.3892 -0.0612  0.0551
 6992TIP3    H142391   2.534   4.676  11.641 -0.3931 -1.0578 -0.0181
 6992TIP3    H242392   2.546   4.701  11.790 -0.1767  1.6767 -0.4605
 6993TIP3   OH242393   0.499   3.345   4.853  0.2596  0.1802  0.0551
 6993TIP3    H142394   0.451   3.356   4.770  0.2144  0.3492  0.1035
 6993TIP3    H242395   0.573   3.289   4.831 -0.5382 -0.9669  0.1970
 6994TIP3   OH242396   3.773   4.544  14.068 -0.7839  0.4635 -0.2657
 6994TIP3    H142397   3.770   4.451  14.044 -1.9631  0.5587 -0.4839
 6994TIP3    H242398   3.862   4.571  14.045 -0.0192 -0.9168  0.9321
 6995TIP3   OH242399   3.527   1.349  16.258 -0.5911  0.0427  0.2107
 6995TIP3    H142400   3.553   1.283  16.323  1.3361 -1.2167 -1.7570
 6995TIP3    H242401   3.541   1.433  16.303  1.5156 -0.7818  1.1886
 6996TIP3   OH242402   3.875   6.534  13.918 -0.0762 -0.4001  0.3326
 6996TIP3    H142403   3.822   6.494  13.987 -1.5771 -0.5606 -0.8975
 6996TIP3    H242404   3.866   6.628  13.931  2.1059 -0.3901  2.1956
 6997TIP3   OH242405   6.769   0.039  15.038 -0.4428 -0.3483  0.2230
 6997TIP3    H142406   6.857   0.026  15.003 -0.0328  0.4946  0.9173
 6997TIP3    H242407   6.738  -0.049  15.059  0.7884 -0.5337  1.3049
 6998TIP3   OH242408   2.530   2.531  12.758 -0.5879  0.2237 -0.4395
 6998TIP3    H142409   2.542   2.445  12.718 -1.6841 -0.9518  1.7000
 6998TIP3    H242410   2.556   2.592  12.689  0.3117 -1.7966 -1.9705
 6999TIP3   OH242411   6.215   0.188  13.396  0.3934  0.6329  0.1426
 6999TIP3    H142412   6.230   0.196  13.302  1.7546  1.5496  0.4341
 6999TIP3    H242413   6.129   0.229  13.410  0.0278  0.1916 -0.7295
 7000TIP3   OH242414   1.384   3.907  13.270 -0.6495  0.2844  0.0451
 7000TIP3    H142415   1.386   3.978  13.206 -0.3433  0.5667  0.3625
 7000TIP3    H242416   1.475   3.894  13.294 -0.8287  0.7903  1.0814
 7001TIP3   OH242417   4.589   4.552   2.005 -0.1134 -0.0851  0.1572
 7001TIP3    H142418   4.676   4.548   1.964 -0.0295  1.2042  0.1731
 7001TIP3    H242419   4.607   4.574   2.097 -0.4825  1.0947 -0.0417
 7002TIP3   OH242420   2.055   0.805  11.468  0.0565 -0.0608  0.2219
 7002TIP3    H142421   2.102   0.736  11.516  0.8304  0.2639 -0.0536
 7002TIP3    H242422   2.119   0.875  11.458  0.4095 -0.7040 -2.5628
 7003TIP3   OH242423   1.979   6.542   3.577 -0.2816 -0.1331  0.2465
 7003TIP3    H142424   1.940   6.606   3.516 -1.3147 -2.0169 -1.1274
 7003TIP3    H242425   2.034   6.595   3.635  0.0445  1.8358 -1.7654
 7004TIP3   OH242426   6.338   6.606   4.631  0.0825  0.1594  0.1251
 7004TIP3    H142427   6.389   6.661   4.689 -0.9533 -0.2250  1.4150
 7004TIP3    H242428   6.400   6.580   4.562  1.2881  0.6784  0.9983
 7005TIP3   OH242429   0.258   2.757  13.265  0.3252  0.1053  0.3429
 7005TIP3    H142430   0.196   2.710  13.209 -0.6819  0.9076  0.7540
 7005TIP3    H242431   0.222   2.747  13.353  0.9786  0.2772  0.6261
 7006TIP3   OH242432   1.680   5.996   1.096 -0.2537  0.4393  0.5345
 7006TIP3    H142433   1.669   6.068   1.157  0.9011  0.2459  0.9794
 7006TIP3    H242434   1.769   5.965   1.111 -0.7034 -1.0178  0.2922
 7007TIP3   OH242435   2.600   5.270  15.981 -0.0677 -0.5306  0.5268
 7007TIP3    H142436   2.694   5.281  15.968 -0.0721 -1.5569 -0.4205
 7007TIP3    H242437   2.560   5.330  15.918 -0.0429 -0.0932  0.9307
 7008TIP3   OH242438   0.885   1.223   6.289  0.5720 -0.6467 -0.1529
 7008TIP3    H142439   0.835   1.170   6.352  1.3863 -1.0115  0.2001
 7008TIP3    H242440   0.974   1.188   6.295  0.6380 -0.7251 -1.5634
 7009TIP3   OH242441   4.688   3.917  11.261 -0.2227 -0.1164  0.5609
 7009TIP3    H142442   4.655   3.828  11.245  0.7285 -0.5950  1.2206
 7009TIP3    H242443   4.612   3.973  11.245 -1.7103 -1.2832  3.1424
 7010TIP3   OH242444   4.448   4.584  14.530  0.6387 -0.2466  0.0492
 7010TIP3    H142445   4.493   4.526  14.469  0.4242 -0.5853  0.2097
 7010TIP3    H242446   4.505   4.661  14.537  1.3553 -0.8066  0.4945
 7011TIP3   OH242447   0.489   6.150   2.826  0.0751  0.7521 -0.3696
 7011TIP3    H142448   0.424   6.140   2.756  2.0295 -0.8977 -1.9853
 7011TIP3    H242449   0.552   6.213   2.791  0.9138  0.1312  0.0220
 7012TIP3   OH242450   0.297   5.788  12.348 -0.1495  0.0649  0.0202
 7012TIP3    H142451   0.346   5.868  12.331 -0.4016  0.3873  0.7630
 7012TIP3    H242452   0.352   5.739  12.408 -0.3191  0.0164  0.1377
 7013TIP3   OH242453   6.583   6.101  12.882  0.3968  0.9164  0.3345
 7013TIP3    H142454   6.631   6.019  12.873 -0.0538  0.3492  2.8825
 7013TIP3    H242455   6.651   6.169  12.876  1.0259  0.2823  0.2621
 7014TIP3   OH242456   6.242   6.264   2.201 -0.3650  0.8050  0.3719
 7014TIP3    H142457   6.306   6.193   2.203 -1.7792 -0.4873  0.5311
 7014TIP3    H242458   6.294   6.343   2.187  1.2266 -0.2587  0.2033
 7015TIP3   OH242459   2.712   0.758   5.695  0.2805 -0.1084  0.1775
 7015TIP3    H142460   2.667   0.834   5.658  0.7594  0.1172  0.0646
 7015TIP3    H242461   2.657   0.684   5.669 -1.1262  0.3481  1.7757
 7016TIP3   OH242462   0.050   6.646   3.090  0.3702 -0.0532  0.6343
 7016TIP3    H142463   0.113   6.595   3.039 -0.1678 -1.0111  0.9164
 7016TIP3    H242464  -0.035   6.620   3.055  0.0507  0.0903  1.3004
 7017TIP3   OH242465   6.780   6.247  13.477  0.5528 -0.4384  0.2130
 7017TIP3    H142466   6.700   6.283  13.515  0.0464 -2.6616  1.3081
 7017TIP3    H242467   6.850   6.277  13.535  0.3144  0.0058  0.2737
 7018TIP3   OH242468   4.850   3.124  15.990 -0.5566 -0.2277  0.6431
 7018TIP3    H142469   4.800   3.179  15.929 -0.0140  0.3743  0.7411
 7018TIP3    H242470   4.937   3.118  15.950  0.2457  1.4065  2.1219
 7019TIP3   OH242471   4.943   2.675  16.697 -0.6413  0.2229  0.0325
 7019TIP3    H142472   4.977   2.764  16.707 -1.2098  0.5024 -0.4701
 7019TIP3    H242473   4.851   2.681  16.724 -0.6611 -0.2248  0.0723
 7020TIP3   OH242474   5.357   2.813   4.380 -0.1115  0.1292  0.1071
 7020TIP3    H142475   5.409   2.880   4.337  0.5918 -0.2287  0.3879
 7020TIP3    H242476   5.420   2.744   4.402 -0.8145 -0.6001 -0.1302
 7021TIP3   OH242477   6.165   5.946  14.157 -0.2881  0.8112 -0.0130
 7021TIP3    H142478   6.135   6.035  14.137  0.0468  0.6387 -1.3290
 7021TIP3    H242479   6.258   5.946  14.136 -0.4028 -0.0060 -0.5683
 7022TIP3   OH242480   0.743   4.792  14.153 -0.1099 -0.3069  0.2205
 7022TIP3    H142481   0.710   4.850  14.222  0.2009 -0.8234  0.8112
 7022TIP3    H242482   0.831   4.826  14.135 -0.7433  0.7294 -0.9600
 7023TIP3   OH242483   3.059   3.390   0.967  0.1677  0.0275  0.2940
 7023TIP3    H142484   3.076   3.484   0.953  1.4856  0.1189  2.2916
 7023TIP3    H242485   3.141   3.347   0.942 -0.4822 -0.6356 -0.7529
 7024TIP3   OH242486   1.355   0.382   5.636 -0.0032  0.4458 -0.1835
 7024TIP3    H142487   1.319   0.346   5.717  0.6086 -0.1521 -0.1638
 7024TIP3    H242488   1.310   0.465   5.624 -0.3304  0.3876  0.6027
 7025TIP3   OH242489   3.818   0.685  15.822 -0.7641  0.1024 -0.0184
 7025TIP3    H142490   3.779   0.740  15.889  0.3848  0.7068  0.1795
 7025TIP3    H242491   3.873   0.623  15.871  1.0697  1.3543 -0.4413
 7026TIP3   OH242492   0.020   3.839   2.180  0.4585 -0.3576  0.0719
 7026TIP3    H142493   0.037   3.843   2.274  0.5812 -1.8797  0.1230
 7026TIP3    H242494  -0.021   3.923   2.160 -0.7658 -0.5358  1.7244
 7027TIP3   OH242495   3.345   5.314  14.934 -0.4537  0.3118 -0.1415
 7027TIP3    H142496   3.267   5.370  14.932 -0.6310  0.0206 -1.6068
 7027TIP3    H242497   3.376   5.320  15.025 -3.1692 -0.9740  0.9236
 7028TIP3   OH242498   1.772   2.929   0.210 -0.8378  0.0534  0.1108
 7028TIP3    H142499   1.856   2.941   0.255 -1.3421  0.5731  0.9222
 7028TIP3    H242500   1.794   2.879   0.132  0.5713  2.0266 -0.8040
 7029TIP3   OH242501   0.042   5.208  12.180 -0.3005  0.1214 -0.3269
 7029TIP3    H142502  -0.012   5.137  12.214  0.1972 -0.1410 -0.0784
 7029TIP3    H242503   0.121   5.207  12.235 -0.4381  1.0809 -0.1131
 7030TIP3   OH242504   0.159   2.906  15.144  0.3717  0.4805 -0.0013
 7030TIP3    H142505   0.153   2.991  15.100 -0.6219  1.1458  1.3874
 7030TIP3    H242506   0.247   2.905  15.180  0.2669  1.0823  0.2850
 7031TIP3   OH242507   1.691   4.406  13.732 -0.0682  0.4013  0.0517
 7031TIP3    H142508   1.726   4.492  13.758 -0.0901  0.7464 -1.0281
 7031TIP3    H242509   1.607   4.400  13.776  1.2125 -0.3249  2.4738
 7032TIP3   OH242510   2.704   4.772   0.636 -0.2023 -0.2813 -0.3671
 7032TIP3    H142511   2.755   4.848   0.606 -0.2326  0.4731  1.3967
 7032TIP3    H242512   2.614   4.805   0.642 -0.5486 -1.0221 -1.4958
 7033TIP3   OH242513   1.403   3.197  16.478 -0.5918 -0.1131 -0.5528
 7033TIP3    H142514   1.424   3.106  16.454  1.1679 -0.2407  1.3882
 7033TIP3    H242515   1.308   3.198  16.484 -0.6902 -1.5993 -1.4503
 7034TIP3   OH242516   6.273   1.875   2.558 -0.2679 -0.5285 -0.3457
 7034TIP3    H142517   6.210   1.907   2.494 -0.4542 -2.9015 -1.4236
 7034TIP3    H242518   6.219   1.833   2.625  0.0075  0.5119  0.5357
 7035TIP3   OH242519   3.420   5.872  11.832 -0.0008  0.2349  0.9012
 7035TIP3    H142520   3.353   5.821  11.786 -0.0193 -1.0775  2.3057
 7035TIP3    H242521   3.392   5.963  11.822 -0.7541 -0.1311 -0.4645
 7036TIP3   OH242522   2.441   1.571  13.883 -0.1266 -0.3296 -0.9438
 7036TIP3    H142523   2.347   1.580  13.869  0.0535 -0.0172 -2.0072
 7036TIP3    H242524   2.450   1.547  13.975 -1.2445 -0.3369 -0.8363
 7037TIP3   OH242525   4.779   3.036   3.395  0.7405  0.0574  0.2849
 7037TIP3    H142526   4.855   2.978   3.392  0.5304 -0.1946 -0.3251
 7037TIP3    H242527   4.745   3.035   3.305 -0.2513 -0.1894  0.6550
 7038TIP3   OH242528   5.365   0.583   2.216 -0.2049  0.1794 -0.0795
 7038TIP3    H142529   5.442   0.564   2.162  0.3187  1.8701  0.0332
 7038TIP3    H242530   5.333   0.497   2.243  2.8328 -0.5382  1.5270
 7039TIP3   OH242531   4.355   0.244  13.533 -0.5246 -0.1007  0.1536
 7039TIP3    H142532   4.444   0.274  13.518  0.2196 -2.3497 -0.0955
 7039TIP3    H242533   4.343   0.251  13.628  0.2345 -0.6409  0.2930
 7040TIP3   OH242534   4.746   6.027  16.486 -0.6302 -0.5462  0.4416
 7040TIP3    H142535   4.785   6.076  16.559 -0.0440  0.2924 -0.4330
 7040TIP3    H242536   4.654   6.052  16.488 -0.3943  0.3426  0.1963
 7041TIP3   OH242537   3.546   0.915  15.556 -1.1075 -0.0199 -0.1919
 7041TIP3    H142538   3.515   1.004  15.573 -0.0489  0.0773  1.2986
 7041TIP3    H242539   3.516   0.864  15.632  1.3196 -0.1638  0.7185
 7042TIP3   OH242540   0.228   1.951  12.699 -0.0427 -0.0970 -0.3078
 7042TIP3    H142541   0.297   1.904  12.745  0.6082  0.1939 -0.9717
 7042TIP3    H242542   0.262   2.040  12.687 -0.3026 -0.0937 -1.1010
 7043TIP3   OH242543   5.237   5.014  13.147 -0.2810 -0.6908  0.3430
 7043TIP3    H142544   5.251   4.943  13.084  1.3139 -0.7481  0.7566
 7043TIP3    H242545   5.303   5.000  13.214  0.0649  1.2102  0.4219
 7044TIP3   OH242546   0.023   2.192   5.286 -0.3126  0.1657  0.0918
 7044TIP3    H142547  -0.021   2.109   5.270 -0.7185  0.4552 -0.2773
 7044TIP3    H242548   0.018   2.204   5.381  1.3363 -1.1163  0.3762
 7045TIP3   OH242549   5.840   3.853   3.661  0.0503  0.0736  0.0131
 7045TIP3    H142550   5.754   3.860   3.618 -0.5592  0.5377  1.2825
 7045TIP3    H242551   5.854   3.939   3.701  0.9013 -0.1478  0.2072
 7046TIP3   OH242552   4.268   5.557   0.886  0.5395  0.9267 -0.1831
 7046TIP3    H142553   4.271   5.507   0.968 -0.6645 -3.3403 -2.5760
 7046TIP3    H242554   4.175   5.573   0.871  0.7164  1.2917 -0.9273
 7047TIP3   OH242555   1.777   6.724   2.915  0.0903  0.3682 -0.2978
 7047TIP3    H142556   1.736   6.680   2.841 -0.1771  2.3036 -1.3272
 7047TIP3    H242557   1.784   6.816   2.888  2.4249  0.6226  1.0056
 7048TIP3   OH242558   2.948   1.301   3.567 -0.2471  0.1826 -0.2584
 7048TIP3    H142559   2.976   1.386   3.533  0.6659 -0.2404 -0.6039
 7048TIP3    H242560   3.028   1.248   3.566 -0.5919 -0.3679  0.9227
 7049TIP3   OH242561   2.940   4.965   5.756  0.1169 -0.7446  0.2390
 7049TIP3    H142562   2.997   4.923   5.692  1.6557  0.6574  0.6088
 7049TIP3    H242563   2.907   5.043   5.711 -2.0061 -1.8339 -0.1563
 7050TIP3   OH242564   4.172   1.342   4.127  0.0928  0.5948  0.3058
 7050TIP3    H142565   4.250   1.327   4.074  0.3807  0.2067  0.8442
 7050TIP3    H242566   4.104   1.364   4.063  0.1318 -1.0832 -0.3337
 7051TIP3   OH242567   2.837   1.865  11.813 -0.1339 -0.2802  0.3087
 7051TIP3    H142568   2.855   1.951  11.776  0.7367  0.2798  1.9762
 7051TIP3    H242569   2.864   1.803  11.746  1.5406  0.7101  0.0469
 7052TIP3   OH242570   2.845   2.706  12.739  0.1765  0.4167 -0.1299
 7052TIP3    H142571   2.913   2.669  12.683  0.5109  0.9490 -0.0790
 7052TIP3    H242572   2.893   2.746  12.811 -0.1613  1.2078 -0.3365
 7053TIP3   OH242573   1.477   3.586   1.458  0.1901  0.4946 -0.3688
 7053TIP3    H142574   1.499   3.626   1.542  0.0899  1.0154 -0.5866
 7053TIP3    H242575   1.511   3.497   1.464 -1.0513  0.0739  0.7726
 7054TIP3   OH242576   0.727   1.923   3.189 -0.0774  0.5889  0.1850
 7054TIP3    H142577   0.817   1.939   3.219  0.4663  0.2108 -1.2046
 7054TIP3    H242578   0.685   2.009   3.194  0.3576  0.7685  0.8573
 7055TIP3   OH242579   2.839   0.647  13.448 -0.2959 -0.0117 -0.1066
 7055TIP3    H142580   2.869   0.731  13.414  0.0810 -0.5063 -1.0195
 7055TIP3    H242581   2.748   0.662  13.473 -0.6902  0.2887 -1.6492
 7056TIP3   OH242582   5.463   5.069   2.410  0.0158 -0.0928  0.3076
 7056TIP3    H142583   5.551   5.104   2.397 -0.2519  0.2828 -0.5269
 7056TIP3    H242584   5.413   5.142   2.444 -1.0135  0.9566 -3.1899
 7057TIP3   OH242585   3.533   4.566  16.756  0.1890  0.8805  0.1879
 7057TIP3    H142586   3.575   4.558  16.670 -1.1824 -1.4763 -0.3056
 7057TIP3    H242587   3.595   4.524  16.816 -0.1789 -0.1331 -0.1253
 7058TIP3   OH242588   2.538   0.504   0.021  0.5209 -0.0095 -0.3699
 7058TIP3    H142589   2.616   0.559   0.011  2.0827 -1.8842  1.2028
 7058TIP3    H242590   2.494   0.540   0.098  1.3540 -0.7359  0.4485
 7059TIP3   OH242591   2.555   5.927  17.154 -0.6908  0.7234  0.3702
 7059TIP3    H142592   2.543   5.834  17.135 -0.1544  0.9918 -1.4037
 7059TIP3    H242593   2.473   5.955  17.194  0.4157 -1.2979  4.2460
 7060TIP3   OH242594   1.727   4.251  15.915  0.3312 -0.1342 -0.2098
 7060TIP3    H142595   1.817   4.279  15.899 -0.2642  1.8524 -0.2682
 7060TIP3    H242596   1.674   4.324  15.884 -1.2614 -0.8192  0.8412
 7061TIP3   OH242597   2.526   1.985  11.952 -0.4725 -0.8870  0.4517
 7061TIP3    H142598   2.499   2.060  12.005 -0.5094  1.1761 -2.3057
 7061TIP3    H242599   2.619   2.002  11.933 -0.7915 -0.8416 -1.1959
 7062TIP3   OH242600   0.151   2.769   0.385 -0.2623  0.4146  0.1968
 7062TIP3    H142601   0.148   2.818   0.302 -2.8993  1.2368  0.7172
 7062TIP3    H242602   0.110   2.685   0.365  1.8331 -0.5808 -0.0355
 7063TIP3   OH242603   1.151   2.287   2.443  0.4398 -0.2792  0.1259
 7063TIP3    H142604   1.120   2.222   2.380 -1.3132  0.3526  0.3035
 7063TIP3    H242605   1.203   2.237   2.506 -1.8852 -1.7282  0.9620
 7064TIP3   OH242606   4.858   0.448  15.561 -0.2243 -0.5167 -0.1233
 7064TIP3    H142607   4.942   0.486  15.534 -0.5784  0.0734 -0.4003
 7064TIP3    H242608   4.858   0.361  15.521  0.4156 -0.6620  0.1799
 7065TIP3   OH242609   1.891   3.806   0.981 -0.0412 -0.0441  0.8830
 7065TIP3    H142610   1.890   3.874   0.913 -0.3270  0.2920  1.2229
 7065TIP3    H242611   1.806   3.762   0.973  0.0351 -0.1872  0.8450
 7066TIP3   OH242612   3.798   5.794  16.326 -0.3371  0.4076  0.1870
 7066TIP3    H142613   3.787   5.842  16.243  0.3148  0.6406  0.2276
 7066TIP3    H242614   3.730   5.828  16.383 -1.7747 -0.8611 -0.7598
 7067TIP3   OH242615   1.129   6.076  13.359  0.4367 -0.1987 -0.1223
 7067TIP3    H142616   1.221   6.102  13.369  0.4439 -0.0932 -0.4647
 7067TIP3    H242617   1.118   6.064  13.265 -0.3774  1.4980 -0.2614
 7068TIP3   OH242618   4.733   3.288  11.608  0.8416  0.7682 -0.0485
 7068TIP3    H142619   4.799   3.252  11.549  0.5939  0.8561 -0.3766
 7068TIP3    H242620   4.672   3.216  11.624 -0.1487  1.2925 -1.4057
 7069TIP3   OH242621   4.685   0.798  11.579 -0.0092 -0.0380 -0.3865
 7069TIP3    H142622   4.766   0.820  11.533 -0.9810  0.7051 -1.7797
 7069TIP3    H242623   4.714   0.763  11.663  1.7306  1.4458 -0.3348
 7070TIP3   OH242624   5.019   5.149  10.978 -0.4959 -0.0012 -0.4100
 7070TIP3    H142625   4.955   5.115  10.915  0.5728  1.5565 -2.3713
 7070TIP3    H242626   4.972   5.218  11.024 -0.9027 -0.3207 -0.3411
 7071TIP3   OH242627   4.305   6.537   2.138  0.0313 -0.0863 -0.9807
 7071TIP3    H142628   4.229   6.479   2.140  0.1394 -0.2312 -0.9860
 7071TIP3    H242629   4.339   6.536   2.227 -0.2742  0.3858 -0.8619
 7072TIP3   OH242630   1.403   6.443  10.846  0.2019 -0.1501 -0.6186
 7072TIP3    H142631   1.493   6.424  10.819  1.0684 -2.1695  3.3295
 7072TIP3    H242632   1.359   6.358  10.847  0.4370 -0.3810  4.6461
 7073TIP3   OH242633   6.527   0.582   6.524  0.4921  0.4385  0.3131
 7073TIP3    H142634   6.449   0.546   6.566  1.1468 -0.4654  0.7759
 7073TIP3    H242635   6.585   0.507   6.514  1.6920  1.2848  0.8599
 7074TIP3   OH242636   3.524   2.237  16.237  0.0776 -0.2402 -0.7888
 7074TIP3    H142637   3.493   2.241  16.327 -4.5314 -3.0639 -2.0704
 7074TIP3    H242638   3.456   2.280  16.186  1.3770 -0.8881 -3.1560
 7075TIP3   OH242639   6.048   1.506   3.179 -0.3361  0.0331 -1.0994
 7075TIP3    H142640   6.057   1.426   3.127 -0.1106  0.9475 -2.4848
 7075TIP3    H242641   5.995   1.479   3.254  0.9331 -1.7496 -0.7996
 7076TIP3   OH242642   0.766   3.945  11.494 -0.1420 -0.0397  0.3778
 7076TIP3    H142643   0.819   3.897  11.431  0.9976 -0.8982  1.9506
 7076TIP3    H242644   0.725   3.877  11.548 -1.2177  0.6739  0.4873
 7077TIP3   OH242645   3.428   1.654  15.486 -0.0849  0.4200  0.3423
 7077TIP3    H142646   3.397   1.726  15.431 -1.0782 -0.1678  0.1333
 7077TIP3    H242647   3.399   1.677  15.574 -0.1176  0.4303  0.3283
 7078TIP3   OH242648   2.762   0.202  11.630  0.0737  0.6680 -0.3756
 7078TIP3    H142649   2.738   0.173  11.718  0.5943  1.5028  0.0408
 7078TIP3    H242650   2.714   0.143  11.572  0.7168 -0.7132  0.4697
 7079TIP3   OH242651   4.566   4.022  16.642  0.2756 -0.5427 -0.5509
 7079TIP3    H142652   4.561   4.067  16.558 -0.8543  0.4803  0.0512
 7079TIP3    H242653   4.516   3.941  16.630 -1.2451  0.3518 -0.4110
 7080TIP3   OH242654   1.376   2.988  12.285  0.2758  0.4896 -0.2431
 7080TIP3    H142655   1.369   2.939  12.203 -0.0673  1.0613 -0.5617
 7080TIP3    H242656   1.301   3.048  12.283  1.2138  1.6774 -0.2937
 7081TIP3   OH242657   5.234   0.717  16.257 -0.0692  0.4123 -0.2160
 7081TIP3    H142658   5.180   0.708  16.336  0.0783  0.2697 -0.1302
 7081TIP3    H242659   5.321   0.742  16.290 -0.3084  1.5110 -0.4110
 7082TIP3   OH242660   5.108   3.799  11.885  0.3080 -0.1395  0.3874
 7082TIP3    H142661   5.109   3.706  11.904  0.5591 -0.0009  1.0545
 7082TIP3    H242662   5.049   3.837  11.949  0.4307  0.1978  0.3029
 7083TIP3   OH242663   4.964   2.078   1.010 -0.2673  0.1970 -0.1378
 7083TIP3    H142664   5.006   2.159   1.039 -0.2102  0.2174 -0.2795
 7083TIP3    H242665   5.028   2.037   0.952 -0.0495 -0.2409  0.4014
 7084TIP3   OH242666   0.264   2.566  10.149 -0.3656  0.4958  1.0915
 7084TIP3    H142667   0.204   2.640  10.156 -1.3022 -0.1554  0.0244
 7084TIP3    H242668   0.208   2.489  10.155  0.4874 -0.1288  1.1252
 7085TIP3   OH242669   5.935   1.632   2.203 -0.6438  0.3863 -0.4914
 7085TIP3    H142670   6.023   1.667   2.188 -0.6199  0.3678 -0.3941
 7085TIP3    H242671   5.880   1.680   2.141 -0.2900 -0.8428 -1.7829
 7086TIP3   OH242672   3.090   0.440   3.784  0.1407 -0.3874 -0.0151
 7086TIP3    H142673   3.130   0.451   3.870 -0.3310  2.1123 -0.0882
 7086TIP3    H242674   2.999   0.467   3.796 -0.9602 -3.7124 -0.4205
 7087TIP3   OH242675   0.451   1.689  16.891  0.6854  0.5499  0.3624
 7087TIP3    H142676   0.360   1.695  16.921  1.0254  1.0152  1.3467
 7087TIP3    H242677   0.465   1.596  16.874  0.4107  0.3014  1.4582
 7088TIP3   OH242678   3.449   4.054   4.971 -0.1770  0.2319  0.5034
 7088TIP3    H142679   3.483   4.144   4.969  0.7588 -0.1106  0.5005
 7088TIP3    H242680   3.450   4.026   4.880 -2.0012  0.7724  0.3113
 7089TIP3   OH242681   4.220   4.258  12.866 -0.1471  0.4207 -0.2990
 7089TIP3    H142682   4.156   4.269  12.937  1.1503  1.4388  0.7331
 7089TIP3    H242683   4.183   4.189  12.811 -0.8803 -0.8188  1.6964
 7090TIP3   OH242684   1.935   5.178  13.119  0.8055 -0.5871  0.3416
 7090TIP3    H142685   1.927   5.269  13.091  1.1483 -0.6232  0.1123
 7090TIP3    H242686   1.905   5.177  13.209  0.7994 -0.2461  0.3437
 7091TIP3   OH242687   2.441   1.397  13.155  0.2402 -0.7968 -0.0587
 7091TIP3    H142688   2.435   1.329  13.088  0.0759  1.3414 -2.2565
 7091TIP3    H242689   2.361   1.448  13.145  1.3367  0.9985  0.1559
 7092TIP3   OH242690   0.113   0.358   2.857 -0.2185 -0.2161 -0.6270
 7092TIP3    H142691   0.192   0.306   2.868 -0.0062 -0.1225 -1.6217
 7092TIP3    H242692   0.136   0.423   2.790 -1.2316 -0.4082 -1.1732
 7093TIP3   OH242693   6.565   6.123   4.277  0.1569 -0.3529  0.5387
 7093TIP3    H142694   6.473   6.107   4.255  0.6860  0.0446 -2.1073
 7093TIP3    H242695   6.614   6.068   4.216  1.7008 -0.4879  1.8683
 7094TIP3   OH242696   1.753   4.895   0.319 -0.3364 -0.1080  0.1285
 7094TIP3    H142697   1.670   4.856   0.292 -0.1602 -0.1605 -0.3450
 7094TIP3    H242698   1.732   4.942   0.400 -1.2374  1.4108 -0.9529
 7095TIP3   OH242699   3.241   2.105   0.655  1.1366 -0.1169  0.1150
 7095TIP3    H142700   3.322   2.151   0.631  0.3283  2.5339  2.2426
 7095TIP3    H242701   3.188   2.106   0.575  1.7771  1.3175 -0.3129
 7096TIP3   OH242702   5.844   5.698   6.616 -0.3963 -0.1747 -0.7558
 7096TIP3    H142703   5.935   5.695   6.586  0.1710 -0.3085  0.9467
 7096TIP3    H242704   5.820   5.790   6.612 -0.4149 -0.2137 -1.8267
 7097TIP3   OH242705   6.000   3.763   2.195  0.4403  0.4328  0.3808
 7097TIP3    H142706   5.971   3.675   2.217  0.0409  0.2989 -0.6464
 7097TIP3    H242707   5.944   3.789   2.122  1.7535  0.8384 -0.4990
 7098TIP3   OH242708   6.402   0.938  13.570  0.2221 -0.1159 -0.3831
 7098TIP3    H142709   6.395   0.960  13.663  1.2137  1.3826 -0.6380
 7098TIP3    H242710   6.344   0.863  13.558 -0.4844  0.1442  1.2937
 7099TIP3   OH242711   2.507   2.129  16.156  0.3609 -0.5570  0.2461
 7099TIP3    H142712   2.591   2.102  16.192  1.2212  0.2233 -1.1683
 7099TIP3    H242713   2.485   2.060  16.092 -0.9782 -1.7341  1.9158
 7100TIP3   OH242714   1.496   5.700  13.331 -0.0425  0.1801  0.4932
 7100TIP3    H142715   1.419   5.732  13.378 -0.4544 -1.5948  1.0682
 7100TIP3    H242716   1.546   5.650  13.397  0.1730 -1.0043 -0.5450
 7101TIP3   OH242717   4.758   1.546   1.976 -0.3531 -0.3487 -0.3906
 7101TIP3    H142718   4.754   1.480   1.907 -1.2863 -0.5897 -0.1060
 7101TIP3    H242719   4.723   1.625   1.936 -0.5771 -0.3996 -0.2941
 7102TIP3   OH242720   1.958   4.759  16.144  0.3302  0.6194  0.4673
 7102TIP3    H142721   1.946   4.719  16.230 -0.0819  2.9219  1.5190
 7102TIP3    H242722   1.870   4.758  16.105  0.0144  1.8528  1.1210
 7103TIP3   OH242723   0.811   4.584  11.935  0.1914 -0.2691 -0.0886
 7103TIP3    H142724   0.846   4.587  11.846  0.5052  1.0022  0.0597
 7103TIP3    H242725   0.750   4.658  11.939  1.6085  0.8533  1.3188
 7104TIP3   OH242726   3.711   4.045   5.878  0.3334 -0.2878  0.1529
 7104TIP3    H142727   3.750   4.111   5.935  4.8650 -2.4919 -0.1721
 7104TIP3    H242728   3.740   4.069   5.790 -2.6993  0.4037 -0.7241
 7105TIP3   OH242729   0.212   6.423   1.783 -0.2588  0.0292 -0.2764
 7105TIP3    H142730   0.303   6.398   1.799 -0.5470 -0.0359  1.3270
 7105TIP3    H242731   0.217   6.515   1.758  0.1003  0.5572  1.6442
 7106TIP3   OH242732   2.207   4.460   5.218 -0.0009  0.0958  0.0933
 7106TIP3    H142733   2.248   4.544   5.197  0.7139  0.6694  3.4718
 7106TIP3    H242734   2.217   4.452   5.313 -0.7390 -3.4720 -0.0722
 7107TIP3   OH242735   1.515   3.368  13.109 -0.3566  0.3111  0.0788
 7107TIP3    H142736   1.565   3.290  13.086  0.4345  0.7514  0.3221
 7107TIP3    H242737   1.425   3.336  13.121  0.0291 -0.6129  0.5226
 7108TIP3   OH242738   4.507   2.449  15.431 -0.1570  0.0748  0.0318
 7108TIP3    H142739   4.420   2.441  15.470 -0.6625 -0.4224 -1.1658
 7108TIP3    H242740   4.502   2.399  15.350  0.9653  0.8240 -0.5218
 7109TIP3   OH242741   3.940   4.844  14.476 -0.3261  0.4365  0.4911
 7109TIP3    H142742   4.036   4.836  14.474 -0.2928  0.3488  2.1297
 7109TIP3    H242743   3.923   4.914  14.539 -1.3113  1.2751 -0.6731
 7110TIP3   OH242744   6.001   0.813  15.719 -0.0763 -0.3066  0.6302
 7110TIP3    H142745   5.978   0.732  15.764  0.1149  0.0040  1.2915
 7110TIP3    H242746   6.071   0.851  15.772 -1.1383  1.0060  1.1220
 7111TIP3   OH242747   0.288   5.197   1.392 -0.1367 -0.0457 -0.0578
 7111TIP3    H142748   0.355   5.174   1.327 -0.2203 -1.6669  0.4051
 7111TIP3    H242749   0.266   5.288   1.372  0.6896 -0.1496 -1.5546
 7112TIP3   OH242750   4.293   5.040   4.182 -0.4157  0.1417 -0.0893
 7112TIP3    H142751   4.382   5.056   4.212  0.1447  1.1911 -2.2113
 7112TIP3    H242752   4.273   5.114   4.125 -1.2098 -2.0053 -2.6873
 7113TIP3   OH242753   5.855   1.466   5.852  0.4282 -0.1640  0.7335
 7113TIP3    H142754   5.793   1.539   5.846  2.1977  1.4693  1.6468
 7113TIP3    H242755   5.874   1.458   5.946  0.1705 -1.8824  0.6531
 7114TIP3   OH242756   4.500   5.878   3.993 -0.2470  1.0702  0.3758
 7114TIP3    H142757   4.441   5.945   3.959 -0.4032  0.5766 -0.3239
 7114TIP3    H242758   4.523   5.825   3.917 -0.1867  0.2810  0.9415
 7115TIP3   OH242759   2.151   3.899   2.162  0.3100  0.4386  0.9243
 7115TIP3    H142760   2.177   3.875   2.073  0.6842  1.8712  0.6408
 7115TIP3    H242761   2.070   3.950   2.151  0.9283  1.5291  1.3054
 7116TIP3   OH242762   4.504   3.315   1.891  0.5883 -0.6656 -0.0798
 7116TIP3    H142763   4.450   3.237   1.906 -0.5738  0.1416  0.0089
 7116TIP3    H242764   4.452   3.387   1.926  0.9476  0.3583 -1.5961
 7117TIP3   OH242765   1.476   2.195   3.726  0.4843 -0.0790  0.5424
 7117TIP3    H142766   1.562   2.191   3.767  1.3228  0.2800 -1.1292
 7117TIP3    H242767   1.428   2.259   3.778  1.4818  0.2743  1.0497
 7118TIP3   OH242768   3.167   0.960   0.179  0.2967 -0.0363  0.1885
 7118TIP3    H142769   3.139   0.928   0.265 -1.1279 -0.6829 -0.4904
 7118TIP3    H242770   3.171   0.881   0.124  0.3354  0.4737 -0.5540
 7119TIP3   OH242771   0.291   3.678   6.185  0.8101  0.1220  0.2429
 7119TIP3    H142772   0.238   3.757   6.191  0.9749  0.3921 -1.6352
 7119TIP3    H242773   0.323   3.663   6.274 -2.2262  0.0668  1.3720
 7120TIP3   OH242774   2.943   6.581  12.244  0.1729  0.7341  0.3346
 7120TIP3    H142775   3.035   6.608  12.236  0.5327  0.1512  2.3604
 7120TIP3    H242776   2.921   6.596  12.336 -1.3974 -0.2853  0.1400
 7121TIP3   OH242777   6.021   1.160  13.772 -0.1717 -0.3419  0.2211
 7121TIP3    H142778   5.937   1.145  13.815 -0.4176 -0.4230 -0.2924
 7121TIP3    H242779   6.061   1.074  13.766 -0.8176 -0.5580 -1.1258
 7122TIP3   OH242780   1.999   4.424  13.320  0.0910 -0.1050  1.2683
 7122TIP3    H142781   2.076   4.477  13.299 -0.3518  0.3326  0.7347
 7122TIP3    H242782   1.949   4.477  13.381 -0.7836  0.4706  0.0686
 7123TIP3   OH242783   2.741   2.701  13.344 -0.2651 -0.0781 -0.2134
 7123TIP3    H142784   2.762   2.607  13.341 -0.7490 -0.1567 -1.5845
 7123TIP3    H242785   2.814   2.744  13.300 -0.4501  0.1261 -0.3187
 7124TIP3   OH242786   6.706   3.809  14.118  0.1571 -0.5266  0.0745
 7124TIP3    H142787   6.707   3.789  14.024 -0.9767  0.9443 -0.2691
 7124TIP3    H242788   6.627   3.766  14.151  0.3115 -0.6602  0.2709
 7125TIP3   OH242789   5.008   2.782  14.520 -0.0114  0.3378 -0.1265
 7125TIP3    H142790   4.935   2.841  14.501 -0.1300 -0.0625 -0.9129
 7125TIP3    H242791   5.083   2.840  14.533 -0.5434  0.7787  1.1214
 7126TIP3   OH242792   5.206   2.142  13.869  0.6998 -0.6189 -0.1882
 7126TIP3    H142793   5.184   2.179  13.783  2.1124 -0.4751 -0.4883
 7126TIP3    H242794   5.294   2.175  13.888  0.1257 -0.0735  1.6391
 7127TIP3   OH242795   1.714   3.484   3.303  0.0594 -0.9438  0.1456
 7127TIP3    H142796   1.745   3.483   3.212  1.8613 -0.4802  0.7420
 7127TIP3    H242797   1.727   3.395   3.334 -0.0856 -0.9757  0.1174
 7128TIP3   OH242798   0.292   1.491  16.063  0.3433 -0.8253  0.3236
 7128TIP3    H142799   0.202   1.476  16.036  0.8304  1.6277 -2.9931
 7128TIP3    H242800   0.338   1.411  16.036 -0.1531 -0.4996 -1.5836
 7129TIP3   OH242801   4.590   2.990  13.312 -0.1480  0.1766 -0.6163
 7129TIP3    H142802   4.584   2.894  13.315 -0.3734  0.1364 -2.2777
 7129TIP3    H242803   4.530   3.019  13.381  0.1177 -0.8806  0.0780
 7130TIP3   OH242804   5.972   2.789   1.572 -0.4412  0.8834 -0.1778
 7130TIP3    H142805   5.969   2.885   1.567 -0.8433  0.8059 -2.2183
 7130TIP3    H242806   6.040   2.764   1.509 -0.3170 -0.1831  0.3629
 7131TIP3   OH242807   3.517   0.762   0.941  0.3720 -0.4036  0.0210
 7131TIP3    H142808   3.428   0.763   0.976 -0.0607 -0.5547 -1.0593
 7131TIP3    H242809   3.508   0.790   0.850  1.5234  0.3106  0.1064
 7132TIP3   OH242810   0.391   0.462  11.670 -0.1377 -0.3848  0.3757
 7132TIP3    H142811   0.446   0.446  11.747 -0.3348 -0.2189  0.5516
 7132TIP3    H242812   0.448   0.508  11.608  0.4540 -1.8228 -0.1632
 7133TIP3   OH242813   4.652   2.782  12.092 -0.1766 -0.0653 -0.5275
 7133TIP3    H142814   4.622   2.737  12.013 -0.1747  0.1763 -0.6680
 7133TIP3    H242815   4.670   2.871  12.063 -1.5947  0.4284  0.0405
 7134TIP3   OH242816   1.546   0.745  15.670  0.6061  0.5257  0.3854
 7134TIP3    H142817   1.569   0.834  15.642  1.4123  0.6133  1.2706
 7134TIP3    H242818   1.613   0.689  15.629  0.2436  0.3573  0.0253
 7135TIP3   OH242819   5.228   6.627  13.872 -0.2636 -0.3885 -0.6343
 7135TIP3    H142820   5.205   6.543  13.833 -1.4410 -0.0412 -0.6982
 7135TIP3    H242821   5.242   6.607  13.965  0.9836 -0.9201 -0.9188
 7136TIP3   OH242822   4.300   5.426   4.311  0.0084  0.3015  0.1182
 7136TIP3    H142823   4.280   5.435   4.404  1.3589 -0.2004  0.4659
 7136TIP3    H242824   4.394   5.439   4.304  0.1776 -1.2600 -0.9500
 7137TIP3   OH242825   5.040   5.336  11.600  1.1182 -0.2723 -0.7809
 7137TIP3    H142826   5.008   5.251  11.629 -0.0366  1.0908  2.0177
 7137TIP3    H242827   5.069   5.380  11.679  1.1902  2.1896 -2.1213
 7138TIP3   OH242828   3.520   0.070   1.338 -0.0767 -0.3508  0.0707
 7138TIP3    H142829   3.470   0.056   1.418  0.7629  0.8182  0.8236
 7138TIP3    H242830   3.611   0.079   1.368  0.3154 -0.4606 -1.0670
 7139TIP3   OH242831   3.782   3.193  10.815 -0.1589  0.0869 -0.5793
 7139TIP3    H142832   3.756   3.153  10.732 -0.5835  2.3066 -1.5585
 7139TIP3    H242833   3.876   3.207  10.806  0.4878 -2.9416  0.7904
 7140TIP3   OH242834   4.963   3.570   2.713 -0.6840 -0.3615 -0.5759
 7140TIP3    H142835   4.991   3.560   2.804  1.6064  2.2838 -0.8934
 7140TIP3    H242836   4.925   3.658   2.710 -0.5978 -0.3694 -2.1944
 7141TIP3   OH242837   2.790   0.579   6.604 -0.3246  0.0528 -0.3987
 7141TIP3    H142838   2.874   0.621   6.586  0.5723 -1.3550  0.4569
 7141TIP3    H242839   2.737   0.597   6.525  0.9056  0.5636 -1.1190
 7142TIP3   OH242840   0.893   0.555   0.528 -0.2392 -0.2372 -0.6340
 7142TIP3    H142841   0.891   0.532   0.621 -1.3935  0.1338 -0.5636
 7142TIP3    H242842   0.812   0.603   0.514  0.7600  1.2534 -1.4342
 7143TIP3   OH242843   3.157   3.981   0.555 -0.0327 -0.3309  0.0211
 7143TIP3    H142844   3.224   3.929   0.512  0.6977  0.6818 -0.0965
 7143TIP3    H242845   3.156   3.951   0.645  1.1080  0.1627  0.1982
 7144TIP3   OH242846   5.176   0.034   1.890  0.2593  0.1836  0.2724
 7144TIP3    H142847   5.111   0.041   1.960  0.8848 -0.6081  0.9463
 7144TIP3    H242848   5.147   0.096   1.824 -0.2210  1.1035  1.3277
 7145TIP3   OH242849   0.605   4.158  16.062 -0.0969 -0.0576 -0.4456
 7145TIP3    H142850   0.591   4.112  16.144 -0.7428 -1.7775 -1.5015
 7145TIP3    H242851   0.591   4.251  16.083  0.6193 -0.3831  1.5576
 7146TIP3   OH242852   3.266   4.803  16.467  0.0972  0.2750  0.0446
 7146TIP3    H142853   3.346   4.757  16.443  0.3135  0.7584 -0.1529
 7146TIP3    H242854   3.291   4.858  16.542  0.4948  2.0969 -1.3874
 7147TIP3   OH242855   2.650   0.933  14.454  0.6730  0.7777  0.3725
 7147TIP3    H142856   2.586   0.885  14.402  0.1827  1.6845  0.1262
 7147TIP3    H242857   2.734   0.895  14.429  0.3705  0.6688 -0.5092
 7148TIP3   OH242858   0.326   3.297   0.422  0.2009  0.0298  0.1498
 7148TIP3    H142859   0.244   3.284   0.469  0.7679  0.0056  1.1498
 7148TIP3    H242860   0.387   3.235   0.462  1.1480  1.1702  0.5063
 7149TIP3   OH242861   5.313   3.272  13.022 -0.3719 -0.0752  0.7685
 7149TIP3    H142862   5.352   3.206  12.965 -1.0619 -1.0123  1.3768
 7149TIP3    H242863   5.386   3.327  13.049  0.0994 -0.1733 -0.2918
 7150TIP3   OH242864   0.479   4.973  15.431 -0.1344  0.1927  0.3744
 7150TIP3    H142865   0.491   4.961  15.337  1.4785  2.0350  0.3237
 7150TIP3    H242866   0.559   4.938  15.470 -0.4668  0.1356  1.0144
 7151TIP3   OH242867   5.347   4.353   2.604  0.2450  0.3000 -0.0454
 7151TIP3    H142868   5.295   4.293   2.657  0.6856 -0.1163 -0.0753
 7151TIP3    H242869   5.368   4.425   2.663 -2.0956  1.4938 -0.6160
 7152TIP3   OH242870   3.538   5.122  16.735  0.0799  0.3734 -0.2706
 7152TIP3    H142871   3.456   5.074  16.746  0.7043 -0.8136 -0.6233
 7152TIP3    H242872   3.594   5.062  16.685  0.6726  1.7214 -1.2735
 7153TIP3   OH242873   1.131   0.881  11.543 -0.2029 -0.3485  0.6327
 7153TIP3    H142874   1.045   0.841  11.557  0.5639 -2.0460  0.7200
 7153TIP3    H242875   1.187   0.807  11.520  1.5459  0.5212  1.9677
 7154TIP3   OH242876   2.025   1.857  14.131  0.0955 -0.2557  0.2105
 7154TIP3    H142877   2.049   1.947  14.110 -0.5727  0.0150  0.5966
 7154TIP3    H242878   1.962   1.865  14.202  1.1664 -1.0946  1.2804
 7155TIP3   OH242879   4.654   4.416  13.347 -0.1595 -0.7690  0.5451
 7155TIP3    H142880   4.721   4.384  13.406  1.5531  0.1049 -0.8579
 7155TIP3    H242881   4.635   4.505  13.378  1.0673 -0.1418 -0.4451
 7156TIP3   OH242882   5.763   2.542  16.004 -0.2602  0.1356  0.2946
 7156TIP3    H142883   5.752   2.637  16.011  0.4265  0.2579 -0.2751
 7156TIP3    H242884   5.739   2.521  15.914 -0.4717 -0.2448  0.4350
 7157TIP3   OH242885   2.108   6.113   1.106 -0.5873  0.4725  0.1777
 7157TIP3    H142886   2.146   6.164   1.035 -0.9806  0.8062  0.2035
 7157TIP3    H242887   2.175   6.111   1.173 -0.1990  0.1282 -0.2165
 7158TIP3   OH242888   1.702   5.019  10.986 -0.4577  0.2046  0.1865
 7158TIP3    H142889   1.757   5.088  10.950 -0.9165 -0.0189 -0.9824
 7158TIP3    H242890   1.709   5.029  11.081  1.7895  0.0300  0.0684
 7159TIP3   OH242891   2.710   2.863   1.388  0.2319 -0.4708 -0.3077
 7159TIP3    H142892   2.650   2.820   1.448  0.8845 -1.6489 -0.4939
 7159TIP3    H242893   2.687   2.828   1.302 -0.7572  1.2702 -0.7747
 7160TIP3   OH242894   2.780   3.947   6.070 -0.4748 -0.6522  0.1345
 7160TIP3    H142895   2.782   3.869   6.125  0.7085  0.2012  1.3431
 7160TIP3    H242896   2.872   3.964   6.049 -0.6929  0.6393  0.2006
 7161TIP3   OH242897   2.958   6.230  14.649  0.2277  0.4457 -0.1201
 7161TIP3    H142898   3.022   6.282  14.601  2.5576 -0.2300  2.1552
 7161TIP3    H242899   2.984   6.139  14.633 -1.4411  0.0818 -0.8717
 7162TIP3   OH242900   3.675   4.997  13.651  0.0766 -0.2251  0.5014
 7162TIP3    H142901   3.675   5.092  13.660 -0.3850 -0.2744  1.0953
 7162TIP3    H242902   3.716   4.966  13.732 -1.7217 -0.6052  1.2856
 7163TIP3   OH242903   5.022   3.858  11.399  0.3680 -0.6250 -0.7062
 7163TIP3    H142904   4.956   3.796  11.369  0.5446 -0.2089 -2.0015
 7163TIP3    H242905   5.032   3.840  11.492 -0.7404 -1.4568 -0.7425
 7164TIP3   OH242906   5.569   2.228   4.069 -0.1117 -0.0607 -0.1375
 7164TIP3    H142907   5.588   2.256   4.159  1.0112  2.3219 -1.0810
 7164TIP3    H242908   5.654   2.199   4.034 -0.3472 -0.0446 -0.7315
 7165TIP3   OH242909   2.516   0.430  16.564 -0.0046 -0.0057  0.3175
 7165TIP3    H142910   2.586   0.487  16.596 -0.2311  1.2049 -1.2960
 7165TIP3    H242911   2.439   0.487  16.559 -0.4240 -0.6449 -0.5749
 7166TIP3   OH242912   3.041   2.263   0.771  0.1110  0.0101  0.6473
 7166TIP3    H142913   3.083   2.315   0.840  0.1529  0.1580  0.5114
 7166TIP3    H242914   3.068   2.173   0.788 -0.6271 -0.0796  1.3737
 7167TIP3   OH242915   5.503   2.885  12.677  0.1842  0.1412  0.0179
 7167TIP3    H142916   5.550   2.859  12.598  0.2926  0.9357 -0.1814
 7167TIP3    H242917   5.412   2.861  12.660  0.1960  0.3844 -0.3736
 7168TIP3   OH242918   5.415   5.755   1.330  0.4600 -0.3398  0.3872
 7168TIP3    H142919   5.482   5.711   1.277 -0.2227 -1.6681  0.5975
 7168TIP3    H242920   5.332   5.730   1.290  0.0264  0.2358  0.9182
 7169TIP3   OH242921   1.463   5.291   2.973 -0.1740  0.1786 -0.4966
 7169TIP3    H142922   1.462   5.207   2.926 -0.0373 -0.7206  1.0643
 7169TIP3    H242923   1.528   5.344   2.927 -0.6544 -0.3710 -1.8367
 7170TIP3   OH242924   5.089   6.012  14.193 -0.1795 -0.4161  0.2321
 7170TIP3    H142925   5.000   6.000  14.226 -0.2936 -3.1622 -0.9614
 7170TIP3    H242926   5.077   6.033  14.100  0.4145 -0.4894  0.1359
 7171TIP3   OH242927   2.970   4.287   3.384 -0.0369 -0.6061  0.4747
 7171TIP3    H142928   2.900   4.329   3.434 -1.0774  0.5783 -1.8633
 7171TIP3    H242929   3.051   4.326   3.417 -0.7373  0.4448  0.9568
 7172TIP3   OH242930   0.451   6.546  15.514 -0.2152 -0.2616 -0.0620
 7172TIP3    H142931   0.371   6.515  15.557 -1.8876  0.3257 -2.6374
 7172TIP3    H242932   0.464   6.486  15.441  0.1686  1.2452 -1.2523
 7173TIP3   OH242933   1.688   0.793   2.420  0.0148  0.4610  0.3029
 7173TIP3    H142934   1.643   0.807   2.337  1.9960  0.5360 -0.7865
 7173TIP3    H242935   1.618   0.792   2.486 -1.8020 -1.7024 -1.5747
 7174TIP3   OH242936   5.541   2.765  13.834  0.1522 -0.0862 -0.9855
 7174TIP3    H142937   5.449   2.737  13.838  0.2361 -0.3249 -0.7276
 7174TIP3    H242938   5.545   2.842  13.891  0.1318 -0.1315 -0.9231
 7175TIP3   OH242939   1.295   2.120   2.614 -0.6838 -0.1969  0.2382
 7175TIP3    H142940   1.271   2.056   2.682 -2.9221  0.4198  0.0769
 7175TIP3    H242941   1.359   2.177   2.657 -0.2634 -1.2524  1.0504
 7176TIP3   OH242942   5.319   5.002  15.109 -0.6790  0.0048  0.6446
 7176TIP3    H142943   5.373   5.057  15.052 -0.6964  0.1948  0.8116
 7176TIP3    H242944   5.338   5.033  15.197  0.0223 -0.8962  0.8104
 7177TIP3   OH242945   3.343   2.040  13.873  0.0088  0.1949 -0.0307
 7177TIP3    H142946   3.261   2.011  13.834  0.1044  0.4925 -0.4641
 7177TIP3    H242947   3.317   2.099  13.943 -0.1268  1.2949 -0.9904
 7178TIP3   OH242948   1.250   2.956  14.937  0.2189 -0.6938  0.3345
 7178TIP3    H142949   1.187   2.915  14.877 -0.3377  0.2852  0.2513
 7178TIP3    H242950   1.321   2.986  14.880  0.0433 -0.4362  0.2510
 7179TIP3   OH242951   4.448   4.329  17.236 -0.5096  0.5113  0.0276
 7179TIP3    H142952   4.542   4.313  17.227 -1.1406 -2.7295 -1.2512
 7179TIP3    H242953   4.424   4.283  17.317 -1.0472  1.1103  0.2132
 7180TIP3   OH242954   0.302   0.137  14.041  0.0262  0.9535  0.2858
 7180TIP3    H142955   0.279   0.149  14.133 -0.4019 -0.4917  0.3860
 7180TIP3    H242956   0.222   0.102  14.001  0.7837 -0.2452 -0.2245
 7181TIP3   OH242957   0.834   1.715   4.566  0.3052  0.3494 -0.0432
 7181TIP3    H142958   0.775   1.739   4.495 -0.2473 -0.0453  0.2733
 7181TIP3    H242959   0.860   1.798   4.606  1.3757  0.6267 -1.2991
 7182TIP3   OH242960   5.998   0.366   2.667 -0.0451 -0.1880 -0.0847
 7182TIP3    H142961   6.044   0.285   2.688  1.8357  0.6535 -0.8746
 7182TIP3    H242962   6.048   0.404   2.595 -2.0401  0.7115 -1.0481
 7183TIP3   OH242963   5.437   2.839   0.667  0.4276  0.6913 -0.0179
 7183TIP3    H142964   5.351   2.862   0.632  1.0371  2.3251 -0.4463
 7183TIP3    H242965   5.421   2.824   0.760 -0.4109  0.4790 -0.1877
 7184TIP3   OH242966   1.288   2.012  16.342 -0.0710 -0.9089  0.7176
 7184TIP3    H142967   1.368   1.962  16.357 -1.5010 -3.0471  1.3556
 7184TIP3    H242968   1.251   2.026  16.430 -0.0812  0.6583  0.4857
 7185TIP3   OH242969   4.927   2.557  10.594 -0.4567 -0.5510  0.0480
 7185TIP3    H142970   4.971   2.521  10.517  0.2791 -1.2877  0.7982
 7185TIP3    H242971   4.833   2.550  10.574 -0.2484  0.2453 -1.2116
 7186TIP3   OH242972   4.403   0.459  16.348  0.1770  0.3007 -0.3212
 7186TIP3    H142973   4.417   0.385  16.407 -1.0913 -1.0786 -1.7046
 7186TIP3    H242974   4.453   0.437  16.270  1.2465  1.7695 -0.0743
 7187TIP3   OH242975   4.833   2.529   2.029  0.5231 -0.3842  0.2966
 7187TIP3    H142976   4.905   2.470   2.051  1.1408  0.2705  0.0537
 7187TIP3    H242977   4.754   2.479   2.049  1.0364 -0.0968  3.3464
 7188TIP3   OH242978   5.284   3.613  15.538  0.2948 -0.1077  0.2722
 7188TIP3    H142979   5.284   3.614  15.634  0.3422  0.5062  0.2713
 7188TIP3    H242980   5.368   3.573  15.515 -0.4515 -1.8431  0.4855
 7189TIP3   OH242981   2.278   6.738   2.995  0.1310 -0.2441 -0.2591
 7189TIP3    H142982   2.280   6.643   3.003 -0.6718 -0.2271  0.2700
 7189TIP3    H242983   2.323   6.757   2.913 -0.1664 -1.1128 -0.6262
 7190TIP3   OH242984   4.760   4.055   6.690  0.3659  0.1506 -0.6626
 7190TIP3    H142985   4.669   4.082   6.683  0.3575  0.4107  0.3467
 7190TIP3    H242986   4.756   3.968   6.730  0.4295 -1.0587 -3.2266
 7191TIP3   OH242987   1.920   0.547  11.870 -0.3032  0.0325  0.2421
 7191TIP3    H142988   1.957   0.548  11.959 -0.4954  0.5706  0.3205
 7191TIP3    H242989   1.972   0.482  11.823  0.7938  0.8473  0.3271
 7192TIP3   OH242990   5.376   5.999  12.715  0.0588 -0.5457 -0.0428
 7192TIP3    H142991   5.317   5.944  12.767 -1.5377  1.1121 -0.0177
 7192TIP3    H242992   5.320   6.033  12.645  1.5557 -0.6911 -1.3232
 7193TIP3   OH242993   1.760   3.581   3.552  0.0309 -0.1171  0.2651
 7193TIP3    H142994   1.665   3.594   3.547 -0.0588 -0.6801  0.4899
 7193TIP3    H242995   1.784   3.545   3.467  0.3908  2.1828 -0.6319
 7194TIP3   OH242996   3.426   1.085   0.941  0.0497  0.5997  0.4400
 7194TIP3    H142997   3.470   1.047   0.866 -0.2476  0.6344  0.2481
 7194TIP3    H242998   3.484   1.065   1.015  0.8272  1.4071  0.0657
 7195TIP3   OH242999   1.661   5.301   0.603  0.3421 -0.0835 -0.4305
 7195TIP3    H143000   1.728   5.269   0.665 -0.3992 -0.3937  0.2170
 7195TIP3    H243001   1.618   5.373   0.649 -0.6681 -0.7557 -0.3186
 7196TIP3   OH243002   1.660   3.838   4.539 -0.3363  0.5588 -0.4953
 7196TIP3    H143003   1.754   3.857   4.543 -0.1228 -0.6893  0.7853
 7196TIP3    H243004   1.618   3.918   4.573  0.3257  0.6765  0.0623
 7197TIP3   OH243005   1.758   0.444  15.010  0.2931  0.0487  0.0627
 7197TIP3    H143006   1.830   0.456  15.072  0.5051 -1.5960  0.1626
 7197TIP3    H243007   1.744   0.349  15.008 -3.4357  0.4756  1.8156
 7198TIP3   OH243008   3.264   5.696  12.062  0.4533 -0.2251 -0.0827
 7198TIP3    H143009   3.239   5.787  12.044 -1.2697 -0.4244  1.2521
 7198TIP3    H243010   3.208   5.644  12.005 -0.9486 -0.5944  1.6145
 7199TIP3   OH243011   3.561   3.791  11.305  0.2174 -0.8381  0.1753
 7199TIP3    H143012   3.487   3.833  11.261 -1.2495 -3.3046  0.2129
 7199TIP3    H243013   3.555   3.820  11.396  0.2086  0.1371 -0.1230
 7200TIP3   OH243014   3.524   4.050   5.460 -0.5597  0.4437 -0.5986
 7200TIP3    H143015   3.461   4.065   5.389 -2.0229 -0.3052  0.5282
 7200TIP3    H243016   3.477   4.074   5.540  1.1120  1.3761  0.1320
 7201TIP3   OH243017   4.604   5.306   2.448  0.5794  0.1276 -0.6879
 7201TIP3    H143018   4.509   5.299   2.456  0.8006 -1.0310  1.0439
 7201TIP3    H243019   4.617   5.360   2.370 -1.4856 -0.2240 -1.3076
 7202TIP3   OH243020   1.589   1.180  10.730 -0.0555  0.4550  0.3852
 7202TIP3    H143021   1.639   1.139  10.800 -1.7750 -0.8500  0.8796
 7202TIP3    H243022   1.523   1.233  10.775  0.3198  1.5001 -0.2629
 7203TIP3   OH243023   5.664   5.140  15.096 -0.5588 -0.0566  0.6910
 7203TIP3    H143024   5.592   5.177  15.047 -1.1886 -0.7556  1.0802
 7203TIP3    H243025   5.680   5.203  15.167 -0.0045  0.6780 -0.0814
 7204TIP3   OH243026   4.147   6.596   3.798  0.5882  0.1512  0.5749
 7204TIP3    H143027   4.173   6.619   3.887  0.6378  1.3844  0.2400
 7204TIP3    H243028   4.056   6.625   3.791 -0.1350 -1.8969  0.9175
 7205TIP3   OH243029   0.700   3.705  14.586 -0.5130 -0.4002 -0.0217
 7205TIP3    H143030   0.635   3.710  14.655 -1.0728  0.0416 -0.5724
 7205TIP3    H243031   0.689   3.618  14.548 -0.2623 -0.6102  0.3891
 7206TIP3   OH243032   5.149   3.214  15.013  0.0449 -0.2046  0.2981
 7206TIP3    H143033   5.204   3.161  15.071 -0.7600 -1.8533 -0.4261
 7206TIP3    H243034   5.204   3.228  14.936 -0.4084 -1.5606 -0.2829
 7207TIP3   OH243035   1.792   4.858   1.989  0.4192 -0.2086  0.0259
 7207TIP3    H143036   1.705   4.863   1.950  0.5558 -3.4452 -0.8500
 7207TIP3    H243037   1.778   4.821   2.076  0.7879  0.4263  0.3558
 7208TIP3   OH243038   0.563   6.009   4.536  0.0212  0.3977  0.2931
 7208TIP3    H143039   0.649   6.000   4.576 -0.7771  0.3656  2.0408
 7208TIP3    H243040   0.501   5.993   4.607 -1.4377  2.1010 -0.5523
 7209TIP3   OH243041   3.754   5.805   3.338  0.0403  0.3137 -0.0924
 7209TIP3    H143042   3.848   5.821   3.348  0.2714 -0.4597 -0.8882
 7209TIP3    H243043   3.748   5.712   3.317 -1.0245  0.0295  1.3888
 7210TIP3   OH243044   0.573   1.860  16.521  0.4978 -0.3741 -0.5643
 7210TIP3    H143045   0.628   1.874  16.444  0.7843 -1.5008 -0.5723
 7210TIP3    H243046   0.567   1.765  16.530 -2.0388 -0.2854 -0.9667
 7211TIP3   OH243047   5.304   4.500   4.509  0.4337  0.4346  1.0247
 7211TIP3    H143048   5.345   4.464   4.587  0.0697  0.7382  1.3589
 7211TIP3    H243049   5.377   4.530   4.455  0.7038 -0.1330  1.0678
 7212TIP3   OH243050   1.714   4.213   4.965 -0.0324 -0.4173  0.1422
 7212TIP3    H143051   1.675   4.129   4.989 -2.3734  0.6537  0.2373
 7212TIP3    H243052   1.668   4.277   5.020  0.2177  1.1590 -1.4471
 7213TIP3   OH243053   5.304   4.394   4.768  0.1219 -0.3268 -0.1201
 7213TIP3    H143054   5.233   4.374   4.829 -0.6922 -0.0707 -0.9759
 7213TIP3    H243055   5.335   4.308   4.738  0.3324 -0.4445  0.4257
 7214TIP3   OH243056   4.200   2.002  12.575  0.3762 -0.2615  0.2820
 7214TIP3    H143057   4.234   1.925  12.621  0.0124 -0.3403  0.4196
 7214TIP3    H243058   4.112   2.013  12.609  1.3357  1.8008  2.2294
 7215TIP3   OH243059   1.997   0.287  17.068  0.0087  0.0883  0.5781
 7215TIP3    H143060   1.972   0.302  16.977 -0.6014  2.5680  1.1276
 7215TIP3    H243061   1.924   0.235  17.104 -0.4813  0.4019  0.0546
 7216TIP3   OH243062   0.715   6.061   1.154 -0.1264  0.4788 -0.6809
 7216TIP3    H143063   0.670   6.064   1.238 -0.0518 -1.3471 -0.5566
 7216TIP3    H243064   0.796   6.013   1.171 -0.0371  0.2281 -1.7539
 7217TIP3   OH243065   3.680   2.874   6.092  0.3989 -0.0546  0.7385
 7217TIP3    H143066   3.649   2.895   6.181 -0.6045 -0.9122  0.5972
 7217TIP3    H243067   3.776   2.871   6.100  0.3600  0.7445  1.5986
 7218TIP3   OH243068   6.684   5.646  14.499 -0.1537 -0.0333  0.3207
 7218TIP3    H143069   6.599   5.691  14.500  0.6379  1.4999  0.5142
 7218TIP3    H243070   6.712   5.650  14.408 -0.3529 -0.6745  0.2296
 7219TIP3   OH243071   1.053   5.360   2.398 -0.1986  0.5759  0.2205
 7219TIP3    H143072   1.028   5.375   2.307 -1.2402  1.4230  0.6294
 7219TIP3    H243073   1.107   5.281   2.396 -1.2427 -0.1215 -0.9732
 7220TIP3   OH243074   1.046   3.060   1.401 -0.2027 -0.1152  0.3602
 7220TIP3    H143075   1.017   2.969   1.399  0.8815 -0.4618  0.2182
 7220TIP3    H243076   1.131   3.059   1.357 -1.0366  1.2801 -1.3504
 7221TIP3   OH243077   1.413   5.802   4.096 -0.3435  0.2192 -0.0212
 7221TIP3    H143078   1.355   5.863   4.141 -0.9264  0.0770 -0.5677
 7221TIP3    H243079   1.501   5.833   4.115 -0.5800  0.0268  1.3969
 7222TIP3   OH243080   5.113   0.393   2.559  0.1925  0.3542  0.6821
 7222TIP3    H143081   5.085   0.328   2.623  4.1642 -1.7576  0.4611
 7222TIP3    H243082   5.063   0.372   2.480 -0.3233 -0.9107  1.3266
 7223TIP3   OH243083   0.874   3.354  14.428  0.5926  0.1195 -0.1583
 7223TIP3    H143084   0.937   3.417  14.464 -0.1857  1.5672 -1.2755
 7223TIP3    H243085   0.789   3.386  14.458  0.3274 -1.5837  0.9754
 7224TIP3   OH243086   5.194   0.822   5.393 -0.0762  0.9667  0.2025
 7224TIP3    H143087   5.131   0.794   5.327 -0.6615  1.2159  0.6464
 7224TIP3    H243088   5.278   0.828   5.346  0.0617 -1.4552  0.0969
 7225TIP3   OH243089   6.012   0.868   3.806  0.0090 -0.0243  0.4299
 7225TIP3    H143090   5.919   0.877   3.786  0.2940 -0.1525 -1.0163
 7225TIP3    H243091   6.027   0.773   3.808  0.3039  0.0017 -0.3355
 7226TIP3   OH243092   1.257   0.766  14.471 -0.2622  0.1738 -0.3383
 7226TIP3    H143093   1.209   0.736  14.395  3.1427 -2.3904 -1.6220
 7226TIP3    H243094   1.318   0.832  14.437 -0.6273  1.0555  0.6833
 7227TIP3   OH243095   3.367   2.026   5.974  0.1758  0.0830  0.3739
 7227TIP3    H143096   3.334   1.952   6.025  1.3740  0.5272  1.8392
 7227TIP3    H243097   3.410   1.987   5.899  1.6914 -0.7741  1.6648
 7228TIP3   OH243098   5.352   5.090   5.842  0.4012 -0.3526 -0.5193
 7228TIP3    H143099   5.343   5.144   5.920  3.1746  0.2894 -0.5842
 7228TIP3    H243100   5.298   5.134   5.776  0.2182  0.6553  0.2886
 7229TIP3   OH243101   4.925   4.911   0.168 -0.0105  0.0350 -0.4810
 7229TIP3    H143102   4.939   4.818   0.183 -1.1759  0.0121  0.5084
 7229TIP3    H243103   4.834   4.926   0.190  0.3774  1.5700  0.1349
 7230TIP3   OH243104   4.404   3.328  16.796 -0.5058  0.1395 -0.1134
 7230TIP3    H143105   4.419   3.268  16.723  1.1682 -0.3181  0.5832
 7230TIP3    H243106   4.482   3.319  16.851 -1.5600  0.7606  1.5319
 7231TIP3   OH243107   1.667   2.740   4.076 -0.4083 -0.2007 -0.2785
 7231TIP3    H143108   1.655   2.745   3.981 -1.0397  0.6619 -0.1619
 7231TIP3    H243109   1.735   2.806   4.095 -0.3617 -0.2946 -0.1188
 7232TIP3   OH243110   4.088   3.940   5.529 -0.1480  0.0889  0.5693
 7232TIP3    H143111   4.028   4.013   5.516 -0.3111  0.6535  3.9122
 7232TIP3    H243112   4.145   3.940   5.452 -3.0422  0.8541 -1.6376
 7233TIP3   OH243113   5.374   3.153   2.271 -0.1834 -0.4087 -0.4326
 7233TIP3    H143114   5.437   3.219   2.242  0.2783 -0.7185 -0.1461
 7233TIP3    H243115   5.390   3.078   2.213 -0.2490 -0.5056 -0.3257
 7234TIP3   OH243116   5.059   5.612   3.291  0.2336 -0.1880  0.1721
 7234TIP3    H143117   4.973   5.618   3.249 -0.5527 -0.1391  1.7528
 7234TIP3    H243118   5.114   5.568   3.226 -0.5101  1.3444 -1.5631
 7235TIP3   OH243119   0.086   2.649   5.042  0.3533 -0.5931  0.2347
 7235TIP3    H143120   0.008   2.692   5.079  1.2116  1.3186 -0.1038
 7235TIP3    H243121   0.123   2.601   5.116 -0.2662 -0.1968  0.8165
 7236TIP3   OH243122   2.444   4.012  14.609 -0.0968 -0.3918 -0.3226
 7236TIP3    H143123   2.474   4.052  14.690  0.2532  1.1981 -1.2220
 7236TIP3    H243124   2.518   3.960  14.579  0.6918  1.0563 -0.9339
 7237TIP3   OH243125   6.565   5.073  13.648 -0.8042  0.3017 -0.2802
 7237TIP3    H143126   6.512   5.145  13.682  0.4078  0.1153  2.1252
 7237TIP3    H243127   6.655   5.095  13.675 -0.1870 -1.2530 -0.9922
 7238TIP3   OH243128   1.471   3.576   3.609  0.0859  0.0596 -0.5963
 7238TIP3    H143129   1.454   3.494   3.656 -0.0009  0.7951  0.6852
 7238TIP3    H243130   1.491   3.640   3.678  0.0885  1.1347 -1.5705
 7239TIP3   OH243131   4.612   5.698   3.416 -0.3247 -0.0558  0.1882
 7239TIP3    H143132   4.524   5.736   3.418  0.4503  1.7260  1.1931
 7239TIP3    H243133   4.670   5.770   3.442  1.2637 -1.7031  1.2804
 7240TIP3   OH243134   1.749   5.837   3.920 -0.4696  0.5689  0.1221
 7240TIP3    H143135   1.688   5.910   3.930 -0.6454  0.6776 -1.5889
 7240TIP3    H243136   1.835   5.878   3.918 -0.6473  0.8960 -2.2038
 7241TIP3   OH243137   4.813   1.013   5.475 -0.1893 -0.1932  0.0633
 7241TIP3    H143138   4.729   0.982   5.442 -0.2192 -0.1336  0.0830
 7241TIP3    H243139   4.819   0.978   5.564 -0.8958  1.1015  0.6320
 7242TIP3   OH243140   3.375   3.151  16.128 -0.6475  0.5499 -0.4371
 7242TIP3    H143141   3.389   3.080  16.066 -0.9030  0.1759 -0.0733
 7242TIP3    H243142   3.367   3.107  16.213  0.0690  1.0833 -0.0936
 7243TIP3   OH243143   5.001   1.254   3.749  0.3702  0.3364  0.1217
 7243TIP3    H143144   5.061   1.294   3.686  1.1852 -0.8265  0.1566
 7243TIP3    H243145   4.915   1.292   3.727  0.4901 -0.6863 -2.2244
 7244TIP3   OH243146   3.097   2.440   5.007 -0.4295 -0.2280 -0.0422
 7244TIP3    H143147   3.095   2.475   4.918  1.8707  0.3973  0.1194
 7244TIP3    H243148   3.006   2.443   5.036 -1.1793 -0.2972 -2.3058
 7245TIP3   OH243149   3.761   6.637  16.667  0.3229 -0.4800  0.3766
 7245TIP3    H143150   3.823   6.672  16.602  0.3408 -0.9182  0.1510
 7245TIP3    H243151   3.731   6.713  16.716  2.2253 -0.4386  1.5251
 7246TIP3   OH243152   1.107   4.961  12.816 -0.6259 -0.5063  0.4785
 7246TIP3    H143153   1.146   4.881  12.782 -0.4212 -0.8204  1.4413
 7246TIP3    H243154   1.136   4.965  12.907 -0.6503  0.6573  0.4366
 7247TIP3   OH243155   5.732   3.648  11.240 -0.7666 -0.2281  0.2210
 7247TIP3    H143156   5.753   3.674  11.330  1.1327 -0.7631 -0.0659
 7247TIP3    H243157   5.770   3.717  11.186  1.0555 -1.6486 -0.3471
 7248TIP3   OH243158   6.157   2.129   0.042  0.8185  0.4010 -0.4869
 7248TIP3    H143159   6.132   2.166   0.126 -0.7332  0.6117 -1.0080
 7248TIP3    H243160   6.252   2.124   0.044  0.7699  0.1027  1.3913
 7249TIP3   OH243161   0.660   3.902  12.533  0.3820  0.5272  0.5590
 7249TIP3    H143162   0.722   3.866  12.596 -0.4715  0.8774  1.6013
 7249TIP3    H243163   0.635   3.987  12.569  2.8013  2.4746 -2.1363
 7250TIP3   OH243164   4.209   6.595  15.823  0.0320 -0.3265 -0.1670
 7250TIP3    H143165   4.300   6.607  15.848 -0.4683 -0.2756  1.7000
 7250TIP3    H243166   4.202   6.633  15.736  1.2673  1.7504  0.6194
 7251TIP3   OH243167   0.487   0.809  15.372 -0.0370 -0.4625  0.0889
 7251TIP3    H143168   0.485   0.772  15.284  0.6429 -0.3798  0.0382
 7251TIP3    H243169   0.520   0.898  15.360 -2.6697  0.5679  0.0696
 7252TIP3   OH243170   3.529   3.584   2.614  0.1111 -0.3121  0.0808
 7252TIP3    H143171   3.472   3.660   2.628 -0.8542 -0.8072 -1.0274
 7252TIP3    H243172   3.505   3.523   2.683 -0.3278 -0.3043 -0.0629
 7253TIP3   OH243173   5.497   1.389   4.798 -0.7249 -0.0682 -0.0209
 7253TIP3    H143174   5.563   1.452   4.827 -0.2989 -1.7351  2.8754
 7253TIP3    H243175   5.505   1.388   4.703  4.0593 -0.8364  0.2532
 7254TIP3   OH243176   3.903   4.490  11.767 -0.6457 -0.2595  0.4747
 7254TIP3    H143177   3.925   4.557  11.831 -0.5659 -0.0934  0.2758
 7254TIP3    H243178   3.958   4.511  11.691 -0.3501 -0.7722  0.5520
 7255TIP3   OH243179   2.310   3.374  10.657  0.0393  0.4357  0.1502
 7255TIP3    H143180   2.287   3.412  10.572 -0.2793 -0.0723  0.0076
 7255TIP3    H243181   2.284   3.440  10.721 -1.9253 -0.1394 -0.0029
 7256TIP3   OH243182   1.780   4.557   5.152 -0.4131 -0.1376  0.5571
 7256TIP3    H143183   1.828   4.562   5.069  0.5001  0.1665  1.0973
 7256TIP3    H243184   1.714   4.490   5.137 -0.5745  0.2637 -0.5850
 7257TIP3   OH243185   0.559   5.094   5.027 -0.5390 -0.4979 -0.0781
 7257TIP3    H143186   0.571   5.123   4.937  0.5466 -2.2680 -0.5373
 7257TIP3    H243187   0.484   5.035   5.024  1.3068 -2.9346 -0.4449
 7258TIP3   OH243188   4.992   2.761   4.022 -0.0951 -0.2642 -0.3545
 7258TIP3    H143189   4.968   2.683   3.972 -0.4243 -0.2519 -0.2191
 7258TIP3    H243190   5.022   2.823   3.955 -0.7054 -0.1841 -0.5615
 7259TIP3   OH243191   4.883   1.612  16.599  0.3840  0.0903  0.1625
 7259TIP3    H143192   4.956   1.617  16.538 -0.0566  0.0935 -0.3704
 7259TIP3    H243193   4.840   1.697  16.593 -1.6107 -1.0260 -1.9912
 7260TIP3   OH243194   5.755   0.153   3.868 -0.0320  0.5811  0.0135
 7260TIP3    H143195   5.669   0.196   3.871 -0.1978  0.5142 -2.5796
 7260TIP3    H243196   5.792   0.180   3.785  0.2641 -3.4608 -1.2934
 7261TIP3   OH243197   6.406   2.099  11.486 -0.0400  1.0388  0.0485
 7261TIP3    H143198   6.483   2.125  11.436  0.5093 -0.3585  0.1324
 7261TIP3    H243199   6.349   2.055  11.423 -0.0310  0.6384  0.3127
 7262TIP3   OH243200   0.486   0.950  16.453  0.2174 -0.3157  0.1836
 7262TIP3    H143201   0.562   0.995  16.491  0.0814 -2.4409  3.1232
 7262TIP3    H243202   0.521   0.867  16.422 -0.1912  0.3294 -2.0615
 7263TIP3   OH243203   1.349   0.393  15.844 -0.0476 -0.0963  0.2726
 7263TIP3    H143204   1.390   0.363  15.925  0.8132  1.2424  0.3532
 7263TIP3    H243205   1.255   0.379  15.858  0.1524 -0.6212  1.1742
 7264TIP3   OH243206   0.938   4.850  15.145 -0.2547  0.1161 -0.0048
 7264TIP3    H143207   1.024   4.859  15.186  0.3850 -1.8470 -0.8416
 7264TIP3    H243208   0.939   4.911  15.072  0.3422  0.2665  0.1268
 7265TIP3   OH243209   5.415   5.357   4.303 -0.0148  0.3636  0.0125
 7265TIP3    H143210   5.332   5.321   4.335  0.4236 -0.6946 -0.0154
 7265TIP3    H243211   5.391   5.407   4.226 -0.3280 -2.0937 -1.5465
 7266TIP3   OH243212   2.902   2.498  13.466  0.5800  0.3557  0.1293
 7266TIP3    H143213   2.864   2.463  13.547 -0.1158  0.5578 -0.1046
 7266TIP3    H243214   2.956   2.427  13.432  1.8351  0.6784  1.3904
 7267TIP3   OH243215   6.559   1.204   1.483  0.0993  0.1783 -0.0103
 7267TIP3    H143216   6.548   1.178   1.391  2.2212 -1.0848  0.0570
 7267TIP3    H243217   6.570   1.121   1.530  0.4114  0.8834  1.1797
 7268TIP3   OH243218   3.951   4.382   3.002  0.2731 -0.1195  0.5840
 7268TIP3    H143219   3.887   4.322   3.042 -1.2409  0.8489 -0.3560
 7268TIP3    H243220   4.007   4.325   2.949  0.0697 -0.9469  1.2427
 7269TIP3   OH243221   5.002   1.226   4.290 -0.1605  0.1982  0.4032
 7269TIP3    H143222   4.909   1.228   4.310 -0.0118  1.7161  0.9752
 7269TIP3    H243223   5.035   1.312   4.317  1.1856  0.0888 -0.8107
 7270TIP3   OH243224   1.053   4.166   4.722  0.0611 -0.1886  0.4911
 7270TIP3    H143225   1.005   4.249   4.723  1.2343  0.4974  1.3559
 7270TIP3    H243226   0.990   4.102   4.691 -0.6551  1.1588 -0.9046
 7271TIP3   OH243227   3.345   1.781   5.283 -0.7379  0.2583 -0.5548
 7271TIP3    H143228   3.410   1.753   5.218 -0.7379  0.5368 -0.6741
 7271TIP3    H243229   3.354   1.718   5.354 -0.3396  0.2936 -0.5717
 7272TIP3   OH243230   4.672   1.037  12.015  0.1367  0.5545 -0.2836
 7272TIP3    H143231   4.579   1.053  12.001  0.4420  0.9963 -1.9583
 7272TIP3    H243232   4.712   1.058  11.930  1.7820  0.6080  0.5019
 7273TIP3   OH243233   3.557   3.350  14.947 -0.1626 -0.1622 -0.0181
 7273TIP3    H143234   3.549   3.426  14.890 -0.4320  0.0205  0.2553
 7273TIP3    H243235   3.511   3.280  14.901  1.0811 -0.4742 -0.8044
 7274TIP3   OH243236   4.420   4.764   2.054 -0.3541  0.1313 -0.2344
 7274TIP3    H143237   4.461   4.678   2.068  1.9213  1.3387  0.8027
 7274TIP3    H243238   4.407   4.769   1.959 -0.2360 -1.2284 -0.3400
 7275TIP3   OH243239   4.915   6.114  13.631  0.7311 -0.1906  1.0422
 7275TIP3    H143240   5.004   6.103  13.597  0.7746 -1.1623  1.4720
 7275TIP3    H243241   4.905   6.209  13.638  1.3634 -0.0303  0.0297
 7276TIP3   OH243242   5.679   1.177   1.011  0.7774  0.4517 -0.5132
 7276TIP3    H143243   5.727   1.222   1.080  0.5095 -0.8282  0.5330
 7276TIP3    H243244   5.747   1.146   0.950  1.4786 -2.5275  1.6493
 7277TIP3   OH243245   0.726   5.301  17.002  0.1782 -0.3509  0.1564
 7277TIP3    H143246   0.743   5.290  16.909  0.9398 -0.8524  0.3478
 7277TIP3    H243247   0.796   5.358  17.033 -0.2709  0.0925  0.3517
 7278TIP3   OH243248   5.791   5.990   4.065  0.0037 -0.5228  0.1124
 7278TIP3    H143249   5.728   5.943   4.120 -0.6330  1.0128  0.7288
 7278TIP3    H243250   5.860   6.018   4.125 -0.7178  1.2014  0.1832
 7279TIP3   OH243251   1.011   2.975  11.895 -0.2642  0.4408 -0.3667
 7279TIP3    H143252   0.927   3.007  11.863 -0.1144 -0.2917 -1.5097
 7279TIP3    H243253   0.999   2.967  11.990 -1.5439  0.1533 -0.5491
 7280TIP3   OH243254   1.205   2.503  16.372 -0.1169  0.0395 -0.4044
 7280TIP3    H143255   1.289   2.468  16.341 -0.3454 -0.0866 -0.8882
 7280TIP3    H243256   1.150   2.425  16.384 -0.3576  0.1698 -0.6697
 7281TIP3   OH243257   0.724   0.669  15.886  0.0030 -0.3461 -0.0218
 7281TIP3    H143258   0.739   0.707  15.799 -0.3978 -1.0226 -0.3917
 7281TIP3    H243259   0.812   0.659  15.923  0.0552  2.3997  0.7286
 7282TIP3   OH243260   5.204   0.324   3.567  0.1882 -0.7184 -0.3502
 7282TIP3    H143261   5.293   0.296   3.543 -0.6626 -2.5074 -1.4912
 7282TIP3    H243262   5.170   0.252   3.621 -1.4048 -1.1348 -1.8683
 7283TIP3   OH243263   1.700   5.026   2.586  0.1788 -0.1373 -0.1631
 7283TIP3    H143264   1.652   5.065   2.513 -0.2617 -1.5257 -0.6357
 7283TIP3    H243265   1.636   4.970   2.630  0.7775 -0.2897  0.5351
 7284TIP3   OH243266   0.442   6.355  16.416  0.0307  0.4117 -0.6354
 7284TIP3    H143267   0.486   6.391  16.338 -1.0702 -0.9288 -1.9128
 7284TIP3    H243268   0.432   6.430  16.474 -0.7378  1.8586 -2.5527
 7285TIP3   OH243269   0.046   4.569   2.554 -0.0688 -0.2337  0.5138
 7285TIP3    H143270  -0.028   4.617   2.590 -1.4940 -0.8620 -1.5305
 7285TIP3    H243271   0.072   4.509   2.624 -2.1709 -0.7750  0.8582
 7286TIP3   OH243272   0.642   4.748  14.949  0.0858 -0.2695  0.2192
 7286TIP3    H143273   0.720   4.751  14.895  1.3640 -1.7855  1.9101
 7286TIP3    H243274   0.577   4.701  14.896  0.6818  0.0218 -0.7666
 7287TIP3   OH243275   3.154   0.879   3.448 -0.1616  0.0382 -0.1794
 7287TIP3    H143276   3.238   0.904   3.409  0.6378 -0.1319  1.3850
 7287TIP3    H243277   3.135   0.948   3.511 -0.6949 -0.4441  0.1925
 7288TIP3   OH243278   2.816   2.398  13.701 -0.1150 -0.3596 -0.1755
 7288TIP3    H143279   2.740   2.342  13.688 -0.7901  0.8474 -1.7048
 7288TIP3    H243280   2.795   2.449  13.780 -1.1125  0.2897 -0.8473
 7289TIP3   OH243281   4.324   4.030  15.077  0.3987 -0.0267  0.3656
 7289TIP3    H143282   4.309   3.947  15.122  2.7191 -0.0054  1.2211
 7289TIP3    H243283   4.243   4.080  15.092 -0.8169 -1.9096  0.2683
 7290TIP3   OH243284   5.405   3.015  17.079 -0.0043 -0.0653  0.1765
 7290TIP3    H143285   5.440   3.101  17.103  0.4701  0.0601 -0.9379
 7290TIP3    H243286   5.425   2.959  17.154 -0.2928  0.7796  0.8980
 7291TIP3   OH243287   6.490   1.304  13.642 -0.0227 -0.7711  0.2762
 7291TIP3    H143288   6.475   1.354  13.722  3.7444 -0.1024  0.6485
 7291TIP3    H243289   6.405   1.264  13.623 -2.0269  2.2672  2.3478
 7292TIP3   OH243290   1.573   4.053   0.035 -0.2143  0.9268  0.2269
 7292TIP3    H143291   1.618   4.023   0.114  0.1554 -1.0947 -0.7212
 7292TIP3    H243292   1.614   4.138   0.015  4.0800 -1.3360 -1.2414
 7293TIP3   OH243293   3.334   1.521  12.504  0.0643 -0.1526 -0.2414
 7293TIP3    H143294   3.298   1.555  12.586 -0.1474  0.3051 -0.5242
 7293TIP3    H243295   3.359   1.599  12.454 -0.5596 -0.4072 -0.9599
 7294TIP3   OH243296   3.054   6.398  13.552 -0.0506 -0.0183 -0.6737
 7294TIP3    H143297   3.091   6.457  13.487 -1.7402  1.9329  0.0934
 7294TIP3    H243298   3.102   6.418  13.632  1.2464 -1.6353 -1.0033
 7295TIP3   OH243299   4.083   5.517   6.340 -0.2665 -0.0037  0.5060
 7295TIP3    H143300   4.101   5.427   6.369 -0.2236  0.5214  2.1919
 7295TIP3    H243301   4.165   5.547   6.300  0.1330 -0.2860  1.1014
 7296TIP3   OH243302   5.597   5.405  14.992  0.3443 -0.2330 -0.2507
 7296TIP3    H143303   5.692   5.412  14.994  0.3316 -0.1707  0.7807
 7296TIP3    H243304   5.575   5.395  14.900  1.2251  1.4961 -0.6826
 7297TIP3   OH243305   2.459   0.857   1.347 -0.1829 -0.5372 -0.3345
 7297TIP3    H143306   2.509   0.920   1.399  0.2621  0.0131 -1.4178
 7297TIP3    H243307   2.522   0.788   1.326 -0.6696 -1.3634  0.8522
 7298TIP3   OH243308   0.696   3.590  13.033  0.1023 -0.2045 -0.6995
 7298TIP3    H143309   0.650   3.550  12.959 -0.1098 -0.6045 -0.3489
 7298TIP3    H243310   0.690   3.526  13.103  0.3174  0.1696 -0.3354
 7299TIP3   OH243311   1.234   2.854   1.570 -0.5059 -0.0843  0.3693
 7299TIP3    H143312   1.230   2.946   1.543  1.1202 -0.4524 -1.1876
 7299TIP3    H243313   1.147   2.820   1.552 -0.3906  0.5186 -1.4321
 7300TIP3   OH243314   3.275   0.947  10.997 -1.1167 -0.2307  0.0478
 7300TIP3    H143315   3.270   0.994  10.913 -2.3039 -0.9854 -0.3115
 7300TIP3    H243316   3.217   0.996  11.055 -2.3279 -1.2223 -0.3165
 7301TIP3   OH243317   4.760   5.269  10.851 -0.5236 -0.1608 -0.0666
 7301TIP3    H143318   4.767   5.292  10.943  0.0081  0.7394 -0.3268
 7301TIP3    H243319   4.665   5.268  10.834 -0.6686 -1.6229  0.7968
 7302TIP3   OH243320   2.067   4.603   5.598  0.5121  0.0546  0.0865
 7302TIP3    H143321   2.109   4.523   5.566 -0.8044 -1.3171  1.6576
 7302TIP3    H243322   2.001   4.571   5.659 -1.4495  2.2624 -0.8361
 7303TIP3   OH243323   5.373   5.913   0.469  0.1528 -0.0674 -0.9254
 7303TIP3    H143324   5.468   5.902   0.470  0.2693  0.7914 -1.7205
 7303TIP3    H243325   5.358   5.995   0.516 -0.2254 -0.4457 -0.3918
 7304TIP3   OH243326   4.856   1.782   0.239 -0.1285  0.3185  0.0518
 7304TIP3    H143327   4.939   1.795   0.285 -1.1958  0.4541  1.9430
 7304TIP3    H243328   4.808   1.719   0.292 -1.1989  0.1520 -1.0917
 7305TIP3   OH243329   1.222   5.252   2.034  0.5847  0.1346  0.0123
 7305TIP3    H143330   1.133   5.284   2.045  0.4933 -0.4826  1.1655
 7305TIP3    H243331   1.271   5.326   2.000 -0.7778 -0.0658 -2.4394
 7306TIP3   OH243332   2.082   2.024  12.212 -0.1765  0.0824  0.3999
 7306TIP3    H143333   2.080   2.078  12.291 -0.8785 -0.0311  0.4659
 7306TIP3    H243334   2.053   2.083  12.142 -0.7798 -0.1644  0.4430
 7307TIP3   OH243335   1.270   5.354  15.458  0.3291 -0.0329  0.3421
 7307TIP3    H143336   1.331   5.401  15.514  0.3978 -1.0161  1.1052
 7307TIP3    H243337   1.274   5.264  15.488 -1.1177 -0.2085  0.0646
 7308TIP3   OH243338   0.313   2.255  16.136 -0.4270 -0.1143  0.5409
 7308TIP3    H143339   0.360   2.197  16.076 -0.4067 -0.8067  1.2320
 7308TIP3    H243340   0.242   2.202  16.171 -1.4063  0.7605 -0.0635
 7309TIP3   OH243341   0.852   2.209   2.225  0.5173 -0.0752  0.7894
 7309TIP3    H143342   0.775   2.165   2.260 -1.7071  0.8834 -2.6289
 7309TIP3    H243343   0.885   2.151   2.156  1.5409  0.5272  0.7434
 7310TIP3   OH243344   1.843   5.136  16.095 -0.4844  0.0290  0.7418
 7310TIP3    H143345   1.827   5.070  16.027 -1.5700  1.2858 -0.2665
 7310TIP3    H243346   1.938   5.147  16.097 -0.3011 -1.4662  0.8416
 7311TIP3   OH243347   4.900   3.225  15.561  0.2413  0.5754  0.1232
 7311TIP3    H143348   4.806   3.209  15.546  0.1265  2.4656 -1.4067
 7311TIP3    H243349   4.943   3.181  15.487  0.4435  1.0643 -0.0515
 7312TIP3   OH243350   0.883   5.999  14.042 -0.2468  0.7680  0.1133
 7312TIP3    H143351   0.927   6.080  14.015 -0.6126  0.8658 -0.1931
 7312TIP3    H243352   0.897   5.995  14.137 -1.6830  2.0717  0.3998
 7313TIP3   OH243353   0.583   4.718  12.049 -0.0454 -0.7416 -0.3774
 7313TIP3    H143354   0.535   4.636  12.046  2.2320 -2.1971  0.8463
 7313TIP3    H243355   0.633   4.713  12.131 -0.3575  2.1561  0.0449
 7314TIP3   OH243356   3.268   6.174  15.821 -0.0708 -0.2800 -1.1810
 7314TIP3    H143357   3.296   6.243  15.880  0.0083 -0.0312 -1.5036
 7314TIP3    H243358   3.340   6.166  15.757 -0.4776 -0.0334 -1.6758
 7315TIP3   OH243359   3.290   2.460   2.275  0.0904  0.1623 -0.4396
 7315TIP3    H143360   3.220   2.525   2.283 -3.7376 -3.7187  0.0325
 7315TIP3    H243361   3.298   2.446   2.180 -0.8945 -0.4553 -0.4411
 7316TIP3   OH243362   3.849   3.804  16.383 -0.3841  0.1628  0.0425
 7316TIP3    H143363   3.896   3.780  16.463 -0.4877  1.5130  0.5026
 7316TIP3    H243364   3.849   3.723  16.330 -1.0125 -0.9732  1.7310
 7317TIP3   OH243365   1.858   0.752  11.686 -0.7868 -0.0441  0.1307
 7317TIP3    H143366   1.855   0.675  11.743  2.9612  1.5446  2.6468
 7317TIP3    H243367   1.935   0.737  11.631 -0.3877  1.6609  0.2221
 7318TIP3   OH243368   6.681   1.372   1.133  0.8150  0.5676 -0.1288
 7318TIP3    H143369   6.723   1.306   1.078  1.6442 -0.4457  1.6810
 7318TIP3    H243370   6.692   1.340   1.222 -0.7189  2.0664  0.6312
 7319TIP3   OH243371   0.059   1.925   5.420 -0.2916 -0.1380  0.7432
 7319TIP3    H143372   0.114   1.900   5.345 -0.1379 -0.0871  0.8379
 7319TIP3    H243373   0.114   1.985   5.471  0.6374 -2.2359  2.3140
 7320TIP3   OH243374   6.478   3.619   4.009  0.6453 -0.0953  0.0661
 7320TIP3    H143375   6.539   3.693   4.013  0.0424  0.3880  0.3111
 7320TIP3    H243376   6.527   3.551   3.963  0.3738  1.2323 -2.2444
 7321TIP3   OH243377   5.767   3.677  15.446 -0.0331 -0.8522  0.1632
 7321TIP3    H143378   5.740   3.614  15.512  0.0929 -1.9463 -0.8135
 7321TIP3    H243379   5.862   3.670  15.443 -0.0453 -0.8883 -0.2032
 7322TIP3   OH243380   0.373   3.695   3.042  0.0739  0.0488 -0.6188
 7322TIP3    H143381   0.379   3.770   2.984  0.0843 -0.3484 -1.1353
 7322TIP3    H243382   0.319   3.632   2.995  1.6968 -1.0519 -1.0482
 7323TIP3   OH243383   5.962   1.808  15.742 -1.0630  0.3224 -0.0502
 7323TIP3    H143384   5.948   1.854  15.825  0.4163  1.0502 -0.1835
 7323TIP3    H243385   5.954   1.715  15.764  0.8382  0.4430  1.2262
 7324TIP3   OH243386   1.363   5.072   4.613 -0.1812 -0.7055  0.3879
 7324TIP3    H143387   1.398   5.088   4.701 -0.6742 -0.5284  0.5562
 7324TIP3    H243388   1.440   5.058   4.559  0.1949  0.4617  0.5990
 7325TIP3   OH243389   5.764   1.290   2.925  0.2603 -0.4622  0.1452
 7325TIP3    H143390   5.760   1.291   3.020 -0.3302 -1.2994  0.1276
 7325TIP3    H243391   5.825   1.361   2.903  0.2521 -0.1464  1.1301
 7326TIP3   OH243392   3.097   1.670  11.680 -0.2193  0.0811  1.0234
 7326TIP3    H143393   3.166   1.704  11.623 -1.5531 -1.0105 -1.3267
 7326TIP3    H243394   3.138   1.665  11.767  2.0605  1.2041  0.0534
 7327TIP3   OH243395   3.605   3.789  11.559  0.2554 -0.4989  0.0123
 7327TIP3    H143396   3.588   3.796  11.652  1.2092  2.3486  0.0244
 7327TIP3    H243397   3.690   3.746  11.553  0.6328  0.1956  0.4675
 7328TIP3   OH243398   1.697   4.365   2.046 -0.0652  0.2169  0.1399
 7328TIP3    H143399   1.617   4.378   1.996  0.7984  0.6247 -1.1623
 7328TIP3    H243400   1.704   4.269   2.055 -1.7434  0.2523  2.0208
 7329TIP3   OH243401   3.849   0.643   6.841 -0.2944  0.4549 -0.5435
 7329TIP3    H143402   3.908   0.591   6.896 -0.7971 -0.2148 -0.6266
 7329TIP3    H243403   3.843   0.728   6.885  0.6560  0.4984 -0.4853
 7330TIP3   OH243404   3.893   6.689   0.728  0.3680 -0.3352 -0.0433
 7330TIP3    H143405   3.848   6.685   0.813  0.3124  0.7802 -0.0119
 7330TIP3    H243406   3.827   6.723   0.667  0.4859 -0.8887 -0.4815
 7331TIP3   OH243407   2.060   6.594  16.057  0.0436 -0.1361 -0.1702
 7331TIP3    H143408   2.125   6.524  16.049  0.3198 -0.2115  2.3129
 7331TIP3    H243409   2.041   6.620  15.967  0.6861 -2.7206 -1.0832
 7332TIP3   OH243410   1.534   3.688  15.764  0.1075 -0.2045 -0.0570
 7332TIP3    H143411   1.501   3.628  15.698  0.5568  0.8595 -1.2712
 7332TIP3    H243412   1.550   3.770  15.716  1.1575  0.3529  1.2207
 7333TIP3   OH243413   4.136   2.186  15.586 -0.2679 -0.6616 -0.1525
 7333TIP3    H143414   4.113   2.123  15.654  0.2406 -0.3428  0.3186
 7333TIP3    H243415   4.216   2.150  15.547 -0.3183 -0.6207 -0.2936
 7334TIP3   OH243416   6.627   3.017  16.557 -0.2824 -0.1137  0.6985
 7334TIP3    H143417   6.628   3.032  16.462  1.6350 -2.0267  0.3686
 7334TIP3    H243418   6.695   3.075  16.591 -0.1775 -0.2732  0.7604
 7335TIP3   OH243419   4.241   3.795  14.596  0.0429 -0.4000 -0.6954
 7335TIP3    H143420   4.267   3.876  14.639 -0.5661  0.0941 -1.2630
 7335TIP3    H243421   4.322   3.764  14.553  0.5312 -0.6465  0.3865
 7336TIP3   OH243422   4.361   5.549   3.705 -0.2417 -0.1737 -0.0725
 7336TIP3    H143423   4.367   5.540   3.800 -2.4274 -0.1946  0.0823
 7336TIP3    H243424   4.374   5.643   3.689  0.9944 -0.2988  0.1573
 7337TIP3   OH243425   5.500   3.930   0.596 -0.4514  0.5497 -0.0522
 7337TIP3    H143426   5.535   3.898   0.513 -0.4202 -0.1204  0.2123
 7337TIP3    H243427   5.423   3.875   0.611  0.3550 -0.2807  1.0642
 7338TIP3   OH243428   6.237   4.768  11.244 -0.0970  0.1252 -0.6340
 7338TIP3    H143429   6.326   4.733  11.234 -0.1059  0.4075 -1.7594
 7338TIP3    H243430   6.240   4.852  11.199 -0.4094  1.0367  1.0128
 7339TIP3   OH243431   4.912   2.833  11.372 -0.3021  0.1627 -0.7818
 7339TIP3    H143432   4.946   2.902  11.315 -0.4904 -0.6358 -1.8883
 7339TIP3    H243433   4.819   2.853  11.382  0.4192  2.3308  2.2206
 7340TIP3   OH243434   0.391   2.761  16.169  0.7071 -0.0488 -0.3511
 7340TIP3    H143435   0.340   2.814  16.231  0.0591 -1.1783  0.1062
 7340TIP3    H243436   0.471   2.811  16.154  0.9532  0.1747  1.5613
 7341TIP3   OH243437   5.971   5.239  12.568 -0.1187  0.4949 -0.3682
 7341TIP3    H143438   6.005   5.166  12.518  1.3379  0.4874  0.6138
 7341TIP3    H243439   5.930   5.199  12.645  1.3355  0.7374  0.5470
 7342TIP3   OH243440   0.347   2.331  10.468  0.0226  0.2831  0.4225
 7342TIP3    H143441   0.305   2.246  10.481  2.9499 -1.3352 -0.4076
 7342TIP3    H243442   0.288   2.378  10.409 -1.2857 -1.4048  0.3537
 7343TIP3   OH243443   2.326   1.116  15.406  0.1359 -0.1523  0.5452
 7343TIP3    H143444   2.266   1.053  15.445  0.4131 -0.4427  0.5060
 7343TIP3    H243445   2.326   1.190  15.467  2.1956 -1.4857  2.2217
 7344TIP3   OH243446   2.487   2.919  15.190  0.3660 -0.5466  0.7709
 7344TIP3    H143447   2.577   2.933  15.220 -0.0092  0.7363  1.3193
 7344TIP3    H243448   2.471   2.990  15.128 -0.1652 -0.9754  0.4100
 7345TIP3   OH243449   2.089   2.731   0.183  0.3036  0.3278  0.0185
 7345TIP3    H143450   2.159   2.796   0.187  0.0585  0.6694 -1.0297
 7345TIP3    H243451   2.124   2.655   0.230  1.0221  0.8193  0.2875
 7346TIP3   OH243452   1.990   3.514  14.130  0.0813 -0.0841  0.7478
 7346TIP3    H143453   2.012   3.600  14.166 -1.7175  2.0608 -2.9354
 7346TIP3    H243454   1.898   3.502  14.152  0.1157 -0.6948  0.5624
 7347TIP3   OH243455   2.152   1.462   3.943  0.5971 -0.0211 -0.0831
 7347TIP3    H143456   2.129   1.491   4.031  0.3764  1.7473 -0.6897
 7347TIP3    H243457   2.085   1.398   3.921 -1.4268  2.0638 -0.2511
 7348TIP3   OH243458   1.279   5.803  14.965 -0.1356 -0.4738 -0.0843
 7348TIP3    H143459   1.297   5.868  15.032 -1.1258  0.5129 -0.7498
 7348TIP3    H243460   1.288   5.851  14.882  0.2475 -1.4599 -0.6228
 7349TIP3   OH243461   4.369   5.002   5.871 -0.2673  0.3543 -0.1443
 7349TIP3    H143462   4.284   5.044   5.860  0.8634  2.0355 -2.8763
 7349TIP3    H243463   4.432   5.074   5.868  1.4732 -1.1879 -1.5206
 7350TIP3   OH243464   0.528   6.224  14.675 -0.6063  0.1166  0.5382
 7350TIP3    H143465   0.613   6.262  14.654 -0.6407  0.4470  0.9995
 7350TIP3    H243466   0.485   6.213  14.589 -0.6965  1.3666  0.4132
 7351TIP3   OH243467   3.030   4.484  14.315 -0.3531 -0.3223  0.4787
 7351TIP3    H143468   2.940   4.471  14.344 -0.1572 -0.6973  0.9102
 7351TIP3    H243469   3.022   4.543  14.240 -1.1122 -1.6298 -0.5065
 7352TIP3   OH243470   2.710   2.220  12.147 -0.0047 -0.1278 -0.5596
 7352TIP3    H143471   2.733   2.224  12.240  1.3176 -0.6931 -0.8481
 7352TIP3    H243472   2.656   2.142  12.139 -0.1847 -0.0369 -0.2496
 7353TIP3   OH243473   2.576   5.874  13.870 -0.4603  0.5611 -0.4806
 7353TIP3    H143474   2.524   5.841  13.797 -0.6191  0.6936 -0.4286
 7353TIP3    H243475   2.656   5.908  13.829 -0.6302  0.8047 -0.6102
 7354TIP3   OH243476   1.506   1.465   3.166 -0.0461  0.4963 -0.0446
 7354TIP3    H143477   1.503   1.504   3.079 -0.0207  0.1713 -0.1899
 7354TIP3    H243478   1.487   1.372   3.152  1.0344  0.2355  0.1664
 7355TIP3   OH243479   2.493   2.681  15.343 -0.2004  0.0846  0.0988
 7355TIP3    H143480   2.398   2.694  15.346 -0.1022  0.5456  1.6500
 7355TIP3    H243481   2.529   2.767  15.323 -0.0988 -0.0812 -0.4454
 7356TIP3   OH243482   1.973   6.385   4.611 -0.2223 -0.1111  0.0360
 7356TIP3    H143483   1.980   6.440   4.688 -2.1898 -0.1471  0.2547
 7356TIP3    H243484   1.935   6.303   4.643 -1.7892  0.1539 -1.0786
 7357TIP3   OH243485   6.727   4.293  13.162  0.0244  0.3903  0.1583
 7357TIP3    H143486   6.646   4.342  13.144 -1.3481 -2.0212 -0.4212
 7357TIP3    H243487   6.797   4.355  13.143 -1.6433  1.7460 -1.8032
 7358TIP3   OH243488   1.443   0.072   0.835  0.2363 -0.7689 -0.2604
 7358TIP3    H143489   1.431   0.076   0.740 -1.7178 -1.3765 -0.0646
 7358TIP3    H243490   1.470  -0.019   0.851  2.1453 -0.2386 -0.3805
 7359TIP3   OH243491   2.828   4.756   0.216 -0.5613 -0.1028 -0.3880
 7359TIP3    H143492   2.871   4.671   0.226  2.2274  0.7379 -4.0833
 7359TIP3    H243493   2.881   4.816   0.268  0.9763  0.3576 -2.4180
 7360TIP3   OH243494   1.865   2.773  17.235  0.2661  0.2604  0.0260
 7360TIP3    H143495   1.884   2.858  17.196 -1.3738  0.1652 -1.0589
 7360TIP3    H243496   1.938   2.757  17.295  0.8117  2.2262 -0.0643
 7361TIP3   OH243497   1.520   3.815  12.973 -0.3994  0.2471  0.2440
 7361TIP3    H143498   1.427   3.806  12.992 -0.2140 -0.7928  0.6868
 7361TIP3    H243499   1.564   3.791  13.055  0.3257 -1.7961 -0.6904
 7362TIP3   OH243500   4.214   3.185   4.220  0.7128 -0.0568  0.0851
 7362TIP3    H143501   4.212   3.091   4.207  1.6491  0.0691 -1.1233
 7362TIP3    H243502   4.168   3.221   4.145 -0.0836  0.4363  0.7981
 7363TIP3   OH243503   4.316   5.814  14.609  0.3081  0.0515  0.7997
 7363TIP3    H143504   4.404   5.843  14.634  0.2530  1.8231 -0.9472
 7363TIP3    H243505   4.296   5.864  14.529 -2.2463 -0.3950  1.1210
 7364TIP3   OH243506   2.941   2.152   5.912  0.1544  0.0450  0.0557
 7364TIP3    H143507   3.018   2.203   5.889  0.5522 -0.3400  0.5489
 7364TIP3    H243508   2.937   2.084   5.845 -0.6871  1.0307 -0.9271
 7365TIP3   OH243509   2.155   1.681   0.944  0.1535  0.5813  0.4176
 7365TIP3    H143510   2.141   1.591   0.972  1.6628 -0.0837 -0.8752
 7365TIP3    H243511   2.080   1.729   0.978 -1.1786 -1.3612  0.2791
 7366TIP3   OH243512   4.590   6.094  17.235 -1.0607  0.2880 -0.0362
 7366TIP3    H143513   4.682   6.118  17.234 -0.8805 -0.3961 -0.2158
 7366TIP3    H243514   4.543   6.177  17.249 -0.4591  0.7424 -0.6898
 7367TIP3   OH243515   1.755   3.853   3.330 -0.1468  0.3520  0.6625
 7367TIP3    H143516   1.764   3.908   3.252  1.0207 -1.0630 -0.2087
 7367TIP3    H243517   1.756   3.915   3.403  0.4634  1.5442 -0.3418
 7368TIP3   OH243518   0.953   6.274   2.819 -0.3433  0.2452  0.1984
 7368TIP3    H143519   1.009   6.341   2.780  0.4726 -0.1300  0.7167
 7368TIP3    H243520   0.869   6.285   2.776 -0.0295  1.1920 -0.1725
 7369TIP3   OH243521   6.040   4.407  12.843  0.1058 -0.9656 -0.3805
 7369TIP3    H143522   6.121   4.376  12.802  2.6427  1.8724  2.1838
 7369TIP3    H243523   6.015   4.484  12.792  0.2793 -0.5495  0.1544
 7370TIP3   OH243524   0.629   0.340   0.537  0.2980 -0.0046 -1.1211
 7370TIP3    H143525   0.671   0.366   0.619 -0.2158 -0.0814 -0.8316
 7370TIP3    H243526   0.535   0.341   0.557  0.2714 -2.4982 -0.9557
 7371TIP3   OH243527   6.422   6.326  12.764 -0.0052 -1.0135 -0.2837
 7371TIP3    H143528   6.394   6.240  12.796  0.0132 -1.1367 -0.5966
 7371TIP3    H243529   6.480   6.306  12.690  0.6400 -0.7559  0.1432
 7372TIP3   OH243530   4.241   6.401   0.212  0.5412 -0.0163  0.4072
 7372TIP3    H143531   4.271   6.453   0.137 -0.1541 -0.3308 -0.0859
 7372TIP3    H243532   4.273   6.313   0.194  1.3632  0.1462  1.0440
 7373TIP3   OH243533   2.614   3.590  14.746 -0.3323  0.3006 -0.1286
 7373TIP3    H143534   2.587   3.530  14.676  0.7153 -1.4964  0.9705
 7373TIP3    H243535   2.532   3.612  14.791 -0.7898  0.0618 -0.8427
 7374TIP3   OH243536   3.660   5.381   1.023 -0.3190  0.7616  0.1693
 7374TIP3    H143537   3.634   5.472   1.038 -0.9287  0.4733  0.8738
 7374TIP3    H243538   3.733   5.387   0.961  0.7438  1.8343  1.4804
 7375TIP3   OH243539   5.210   1.708  15.130  0.6437  0.2334  0.1579
 7375TIP3    H143540   5.153   1.632  15.144 -1.8458  2.4627  2.7244
 7375TIP3    H243541   5.260   1.715  15.211  0.9346  1.2639 -0.1099
 7376TIP3   OH243542   0.651   5.278  16.034 -0.3646 -0.7789  0.4498
 7376TIP3    H143543   0.602   5.351  15.997  0.9026 -0.0054  0.2928
 7376TIP3    H243544   0.597   5.248  16.107 -1.7818 -0.8855 -0.6172
 7377TIP3   OH243545   6.646   0.409   5.988 -0.4352 -0.4815  0.4953
 7377TIP3    H143546   6.661   0.409   5.893  1.7826 -0.3245  0.8307
 7377TIP3    H243547   6.638   0.502   6.011 -0.0949 -0.4786  0.5991
 7378TIP3   OH243548   0.662   2.382  12.926 -0.6407 -0.1357  0.3583
 7378TIP3    H143549   0.737   2.384  12.986  0.0821  0.0836 -0.5370
 7378TIP3    H243550   0.623   2.469  12.935 -0.4858 -0.0758  0.4647
 7379TIP3   OH243551   6.697   5.060   2.394  0.0211  0.3073  0.0007
 7379TIP3    H143552   6.614   5.053   2.440  0.7723  1.4393  1.5862
 7379TIP3    H243553   6.678   5.111   2.316 -1.3744 -2.0503 -1.2318
 7380TIP3   OH243554   3.951   2.192  15.314  0.0211 -0.5324  0.2487
 7380TIP3    H143555   3.989   2.213  15.229 -0.2296  2.4262  0.7950
 7380TIP3    H243556   4.024   2.158  15.365  0.6554 -0.2873 -0.4899
 7381TIP3   OH243557   4.009   3.431   6.190  0.3468 -0.8900 -0.3167
 7381TIP3    H143558   4.000   3.506   6.131  0.3900  0.7584  1.7322
 7381TIP3    H243559   3.939   3.371   6.163 -1.1502  0.8910 -0.5113
 7382TIP3   OH243560   2.758   5.742  13.086 -0.2259 -0.2892 -0.5693
 7382TIP3    H143561   2.681   5.701  13.045  0.0826  0.4381 -1.8921
 7382TIP3    H243562   2.731   5.756  13.177 -1.3202 -0.9064 -0.7793
 7383TIP3   OH243563   0.712   1.083  13.757  0.2637  0.3856  0.2329
 7383TIP3    H143564   0.720   1.140  13.680 -1.0255  0.4466  0.1341
 7383TIP3    H243565   0.794   1.096  13.805  0.9745  0.5428 -0.9981
 7384TIP3   OH243566   4.163   1.747  13.374  0.1889 -0.2390 -0.2774
 7384TIP3    H143567   4.087   1.764  13.430 -0.6406 -2.0968 -0.7718
 7384TIP3    H243568   4.126   1.701  13.298  1.6227  0.0986 -1.1873
 7385TIP3   OH243569   6.035   3.899   5.937  0.2986 -0.1506 -0.4681
 7385TIP3    H143570   6.102   3.925   5.999 -0.9508  0.3616  0.6846
 7385TIP3    H243571   6.027   3.974   5.877 -0.0346  0.2390  0.0633
 7386TIP3   OH243572   6.257   4.184  14.168  0.5482  0.6006 -0.3887
 7386TIP3    H143573   6.288   4.201  14.079  2.5720 -0.9607 -0.0252
 7386TIP3    H243574   6.262   4.089  14.177  3.3000  0.9421  2.3788
 7387TIP3   OH243575   0.034   6.260  14.503 -0.2584 -0.1357  0.3021
 7387TIP3    H143576   0.041   6.225  14.414  0.5027  3.1097 -0.9880
 7387TIP3    H243577   0.125   6.280  14.527 -0.6146  0.4013  1.2031
 7388TIP3   OH243578   1.280   0.543  14.006 -0.6098  0.0492 -0.0419
 7388TIP3    H143579   1.372   0.562  13.989 -1.1129  0.6289 -2.3201
 7388TIP3    H243580   1.235   0.627  13.994 -1.5678 -0.4584 -0.1124
 7389TIP3   OH243581   1.514   1.231   3.015 -0.2605  0.0792  0.5144
 7389TIP3    H143582   1.568   1.160   3.049  0.5319  1.5067  2.3042
 7389TIP3    H243583   1.546   1.245   2.926  1.7997  0.3616  1.2750
 7390TIP3   OH243584   0.297   0.574   1.856 -0.1700  0.4345 -0.8207
 7390TIP3    H143585   0.336   0.491   1.882  0.4443  1.4326  1.6648
 7390TIP3    H243586   0.203   0.561   1.866 -0.2240 -0.6320 -2.6027
 7391TIP3   OH243587   1.128   4.965  15.948  0.1964 -0.7187  0.3115
 7391TIP3    H143588   1.209   5.001  15.985 -0.6267  1.0570  0.4426
 7391TIP3    H243589   1.112   5.017  15.870 -0.1061 -1.9750 -0.4828
 7392TIP3   OH243590   0.028   0.956   1.463 -0.0075  0.5450  0.0151
 7392TIP3    H143591   0.071   0.993   1.540  1.0981  1.1354 -0.8762
 7392TIP3    H243592  -0.062   0.939   1.492  0.1901  1.4655  1.2074
 7393TIP3   OH243593   3.723   1.051   3.420  0.5752 -0.5129 -0.1950
 7393TIP3    H143594   3.741   1.100   3.340 -1.6228 -1.2395 -1.1652
 7393TIP3    H243595   3.633   1.074   3.443  1.2099 -0.2227  2.1624
 7394TIP3   OH243596   3.343   2.854   3.629 -0.0280  0.2846 -0.2290
 7394TIP3    H143597   3.283   2.866   3.703  0.2826  0.0504  0.0574
 7394TIP3    H243598   3.323   2.767   3.596  1.1558 -0.3660  0.7613
 7395TIP3   OH243599   2.470   4.073   4.723  0.2179  0.1845 -0.6423
 7395TIP3    H143600   2.521   3.999   4.754  0.5554  1.0467  0.9145
 7395TIP3    H243601   2.535   4.135   4.690  0.1306  0.8408  0.3841
 7396TIP3   OH243602   5.185   6.349   4.967 -0.5246 -0.5759  0.6006
 7396TIP3    H143603   5.105   6.376   4.922  0.2139  2.2269  0.8796
 7396TIP3    H243604   5.155   6.293   5.039 -2.3260  1.0892  1.1793
 7397TIP3   OH243605   5.798   1.296   5.498 -0.1664  0.1673 -0.3032
 7397TIP3    H143606   5.811   1.244   5.577  0.3021 -0.5400 -0.8279
 7397TIP3    H243607   5.713   1.268   5.464 -0.3973  0.5189 -0.0148
 7398TIP3   OH243608   1.384   5.369   3.827 -0.1363 -0.0686  0.2210
 7398TIP3    H143609   1.333   5.444   3.795  0.5274  0.3512  0.1211
 7398TIP3    H243610   1.433   5.339   3.751 -0.3474 -0.5591  0.2812
 7399TIP3   OH243611   4.762   4.593  15.838 -0.1073  0.2278  0.1410
 7399TIP3    H143612   4.772   4.509  15.795 -0.3241  0.5414 -0.5306
 7399TIP3    H243613   4.707   4.575  15.914  0.0904 -0.2900  0.1606
 7400TIP3   OH243614   4.099   0.496  12.289  0.0875 -0.0741  0.1338
 7400TIP3    H143615   4.145   0.419  12.256 -0.3164 -0.2594  0.0029
 7400TIP3    H243616   4.163   0.539  12.346  0.0055 -1.0194  0.9595
 7401TIP3   OH243617   3.598   3.983  14.327  0.2931 -0.3036  0.0585
 7401TIP3    H143618   3.648   3.917  14.374  0.8108  0.2210  0.2354
 7401TIP3    H243619   3.634   4.067  14.355  1.3343 -0.0037 -2.0357
 7402TIP3   OH243620   4.230   5.947  13.793  0.4128 -0.5794  0.1102
 7402TIP3    H143621   4.155   5.949  13.734 -0.3711  0.5091  1.0884
 7402TIP3    H243622   4.280   6.026  13.771  0.7433 -0.7863  0.1137
 7403TIP3   OH243623   0.011   4.722  15.072  0.0057  0.0184  0.5986
 7403TIP3    H143624  -0.076   4.718  15.031 -0.4470  2.2029  1.3196
 7403TIP3    H243625   0.026   4.815  15.088  3.6348 -0.0220 -1.9421
 7404TIP3   OH243626   6.458   1.378   4.326 -0.3458  0.4180  0.3301
 7404TIP3    H143627   6.428   1.422   4.406 -2.3204 -0.9107  0.3314
 7404TIP3    H243628   6.472   1.288   4.353 -0.1705  0.1587 -0.6345
 7405TIP3   OH243629   6.658   4.662   3.923 -0.3586 -0.0038  0.0513
 7405TIP3    H143630   6.641   4.567   3.924 -1.2517  0.1409 -0.6122
 7405TIP3    H243631   6.719   4.675   3.851  1.3427 -0.3131  1.3936
 7406TIP3   OH243632   3.732   0.645   3.711  0.8188  0.0841  0.1746
 7406TIP3    H143633   3.641   0.657   3.736 -0.9869  0.7624 -6.0146
 7406TIP3    H243634   3.765   0.734   3.695  2.7776 -0.1226  2.6650
 7407TIP3   OH243635   4.079   5.195   0.665 -0.8844 -0.1401 -0.0230
 7407TIP3    H143636   4.039   5.217   0.749  0.5409  0.1258  0.6022
 7407TIP3    H243637   4.074   5.099   0.660  1.1612 -0.3608  1.4793
 7408TIP3   OH243638   0.776   0.351  15.918 -0.2229  0.3224  0.2119
 7408TIP3    H143639   0.684   0.344  15.944 -0.3597  1.4517  0.0880
 7408TIP3    H243640   0.823   0.360  16.001  0.0261 -2.4934  0.4082
 7409TIP3   OH243641   4.321   6.630  12.258 -0.3239  0.6893  0.1522
 7409TIP3    H143642   4.253   6.698  12.262 -1.7934 -0.8127  1.2890
 7409TIP3    H243643   4.387   6.666  12.199 -1.7547  2.5138 -0.3873
 7410TIP3   OH243644   1.415   5.961  14.058 -0.1069 -0.0978 -0.2855
 7410TIP3    H143645   1.324   5.934  14.076  0.1103 -1.7960 -1.5763
 7410TIP3    H243646   1.423   5.955  13.963  1.0295  1.1901 -0.2791
 7411TIP3   OH243647   0.199   3.893   4.831  0.3296  0.0708  0.3350
 7411TIP3    H143648   0.217   3.886   4.737 -0.1032 -0.6255  0.2992
 7411TIP3    H243649   0.148   3.973   4.839 -0.4148 -0.3449 -0.1473
 7412TIP3   OH243650   2.183   5.201   4.326  0.4093 -0.3678 -0.4421
 7412TIP3    H143651   2.156   5.274   4.383  0.9382 -0.3725 -0.1866
 7412TIP3    H243652   2.268   5.227   4.292  0.0423 -0.3138 -1.3301
 7413TIP3   OH243653   4.904   4.330   3.767  0.1341 -0.7687 -0.2869
 7413TIP3    H143654   4.830   4.371   3.813  1.3810  0.1597  0.9289
 7413TIP3    H243655   4.949   4.279   3.835  1.2408 -0.4418 -0.7597
 7414TIP3   OH243656   0.838   2.577   5.573  0.1617  0.0240 -0.6773
 7414TIP3    H143657   0.762   2.533   5.611  0.6712 -0.9513 -0.7708
 7414TIP3    H243658   0.900   2.507   5.555  1.3329  0.8792 -0.0607
 7415TIP3   OH243659   2.704   0.129  11.879 -0.1912  0.1947 -0.0159
 7415TIP3    H143660   2.708   0.101  11.970  2.9499  1.4824  0.3226
 7415TIP3    H243661   2.674   0.220  11.883 -0.6351  0.0623 -0.3139
 7416TIP3   OH243662   4.944   0.801  12.033 -0.5479  0.3803  0.2111
 7416TIP3    H143663   4.992   0.736  11.982 -0.7709  1.0852 -0.9175
 7416TIP3    H243664   4.912   0.753  12.109 -0.5941 -0.8054 -0.5401
 7417TIP3   OH243665   6.075   1.130  12.945 -0.4724  0.4159 -0.4293
 7417TIP3    H143666   6.144   1.127  13.011 -1.4217  1.4904  0.6159
 7417TIP3    H243667   5.997   1.098  12.989 -0.8471 -0.0190 -1.3853
 7418TIP3   OH243668   6.336   1.614   4.814 -0.4993  0.2461  0.1376
 7418TIP3    H143669   6.302   1.633   4.727 -2.1225  1.7625  1.0569
 7418TIP3    H243670   6.283   1.540   4.845 -1.1562  0.8759  0.5295
 7419TIP3   OH243671   2.138   0.575  11.546  0.2752 -0.1561  0.4289
 7419TIP3    H143672   2.186   0.535  11.474  1.2000  0.7350  0.5310
 7419TIP3    H243673   2.090   0.503  11.587 -0.3591 -0.6469 -1.1551
 7420TIP3   OH243674   6.127   6.714  12.720 -0.3952 -0.2076  0.3600
 7420TIP3    H143675   6.223   6.706  12.718 -0.3615 -0.0640  1.2066
 7420TIP3    H243676   6.102   6.724  12.628  0.2753 -1.7152 -0.0061
 7421TIP3   OH243677   6.342   5.038  16.452  0.2899 -0.7323  0.5548
 7421TIP3    H143678   6.298   5.096  16.390  1.1545 -1.9932 -1.2708
 7421TIP3    H243679   6.271   4.999  16.503 -0.6473 -1.7608 -1.4876
 7422TIP3   OH243680   5.963   2.007  10.961  0.7177  0.0617 -0.4347
 7422TIP3    H143681   6.045   1.976  11.000  0.7124 -0.1830 -0.6187
 7422TIP3    H243682   5.967   2.103  10.970  0.5889 -0.0121  0.4148
 7423TIP3   OH243683   0.005   6.486   0.711  0.2800 -0.2418 -0.8538
 7423TIP3    H143684  -0.036   6.409   0.672  1.4241 -0.3058 -1.9566
 7423TIP3    H243685   0.045   6.532   0.638  1.2050  0.4215  0.0509
 7424TIP3   OH243686   0.544   2.719  15.013 -0.0801  0.1000 -0.0886
 7424TIP3    H143687   0.611   2.750  14.951 -1.7725  2.0483 -1.0254
 7424TIP3    H243688   0.518   2.634  14.978 -0.0857  0.5936 -1.3380
 7425TIP3   OH243689   1.506   4.894  11.352 -0.6629  0.7040 -0.3118
 7425TIP3    H143690   1.599   4.889  11.330 -0.5172 -0.3390  0.4628
 7425TIP3    H243691   1.504   4.940  11.436 -0.8170  0.4051 -0.1516
 7426TIP3   OH243692   1.700   4.982   5.579 -0.1444  0.5142 -0.0930
 7426TIP3    H143693   1.710   4.887   5.571 -1.0587  0.1301  2.7129
 7426TIP3    H243694   1.658   5.009   5.497  1.0947 -1.3332 -1.3761
 7427TIP3   OH243695   3.556   4.874  13.206 -0.2968 -0.4356  0.3126
 7427TIP3    H143696   3.484   4.937  13.195  1.1046  1.7792  3.1035
 7427TIP3    H243697   3.561   4.861  13.301  0.6711 -3.3580 -0.1127
 7428TIP3   OH243698   1.905   6.088  16.133 -0.0428  0.5397 -0.2582
 7428TIP3    H143699   1.908   6.044  16.218  0.4698 -0.0524 -0.5823
 7428TIP3    H243700   1.996   6.086  16.102 -0.3080  0.3649 -1.0242
 7429TIP3   OH243701   2.034   2.369   3.027  0.0272 -0.5412  0.0889
 7429TIP3    H143702   1.993   2.282   3.026 -0.0389 -0.5099 -0.4439
 7429TIP3    H243703   2.069   2.379   3.115  0.3355 -1.2534  0.0524
 7430TIP3   OH243704   2.940   2.599   1.870  0.5478 -0.1296  0.2706
 7430TIP3    H143705   2.874   2.663   1.844 -0.1420  0.4721  3.2657
 7430TIP3    H243706   3.022   2.632   1.833 -0.2793  0.9941 -0.5566
 7431TIP3   OH243707   1.278   1.211   6.006 -0.0858  0.4130 -0.3158
 7431TIP3    H143708   1.245   1.160   6.081 -2.5696  1.3349 -0.7350
 7431TIP3    H243709   1.357   1.252   6.039  0.1328 -1.0451  1.0845
 7432TIP3   OH243710   5.427   2.937   2.905  0.1812  0.2770  0.1599
 7432TIP3    H143711   5.405   2.857   2.953 -1.2270 -1.0125 -2.5414
 7432TIP3    H243712   5.396   3.008   2.961 -2.1867 -1.2130  0.8244
 7433TIP3   OH243713   0.729   3.229   0.241 -0.3553 -1.0151 -0.0311
 7433TIP3    H143714   0.664   3.264   0.180 -1.3916 -0.0362  1.5864
 7433TIP3    H243715   0.677   3.185   0.309  0.6158  0.4961  1.7283
 7434TIP3   OH243716   6.108   1.644  16.368  0.1314  0.6058  0.2077
 7434TIP3    H143717   6.016   1.635  16.343  0.5017  0.1798 -1.0400
 7434TIP3    H243718   6.109   1.630  16.463 -0.9345 -0.5140  0.0604
 7435TIP3   OH243719   3.341   1.673  16.723 -0.6045  0.2019 -0.3764
 7435TIP3    H143720   3.430   1.694  16.694 -1.0201 -0.6458 -2.3674
 7435TIP3    H243721   3.292   1.659  16.642 -2.0661 -1.3338  0.7370
 7436TIP3   OH243722   0.835   5.261  13.664  0.0752  0.0197 -0.4596
 7436TIP3    H143723   0.799   5.191  13.609 -0.4244  0.4185 -0.6541
 7436TIP3    H243724   0.887   5.313  13.603  1.6471 -1.0160 -0.0109
 7437TIP3   OH243725   6.510   3.182  10.714  0.6523 -0.9258 -0.0302
 7437TIP3    H143726   6.583   3.127  10.687  0.5434 -0.7474 -0.7009
 7437TIP3    H243727   6.489   3.234  10.637 -1.8182 -2.7644 -0.6676
 7438TIP3   OH243728   2.097   1.462   3.639 -0.8505  0.0708 -0.0874
 7438TIP3    H143729   2.129   1.492   3.724  0.2196  1.7614 -1.0592
 7438TIP3    H243730   2.127   1.371   3.632  0.5211  0.4629  0.6054
 7439TIP3   OH243731   2.821   1.000   0.334 -0.2663 -0.2016  0.5130
 7439TIP3    H143732   2.778   1.086   0.330  1.5781  0.7953  1.4016
 7439TIP3    H243733   2.775   0.954   0.404  0.7562  1.2308  2.1557
 7440TIP3   OH243734   6.675   1.295  11.251  0.1179  0.4324  0.3312
 7440TIP3    H143735   6.600   1.257  11.205  0.6862  0.6205 -0.7777
 7440TIP3    H243736   6.735   1.222  11.263  1.0704  0.8772 -1.5119
 7441TIP3   OH243737   2.118   5.518   0.518  0.3490 -0.1454 -0.2330
 7441TIP3    H143738   2.101   5.535   0.611  1.3405 -0.8692  0.0830
 7441TIP3    H243739   2.200   5.470   0.517 -1.0018 -2.5401 -1.2867
 7442TIP3   OH243740   3.380   0.925  16.907  0.0950 -0.0063 -0.4459
 7442TIP3    H143741   3.305   0.984  16.911  0.8637  1.0430 -1.0695
 7442TIP3    H243742   3.448   0.969  16.959  0.3951 -0.7554 -0.2008
 7443TIP3   OH243743   2.618   6.049   1.273  0.2326 -0.1840  0.7523
 7443TIP3    H143744   2.528   6.018   1.280  0.1733 -0.2081 -0.0801
 7443TIP3    H243745   2.667   5.995   1.335 -0.2894 -0.3068  1.0584
 7444TIP3   OH243746   3.215   1.160  16.960 -0.0402  0.4246  0.4496
 7444TIP3    H143747   3.246   1.242  16.921  0.0685 -0.0115 -0.3880
 7444TIP3    H243748   3.183   1.185  17.046  2.7438  0.8930  1.3987
 7445TIP3   OH243749   0.903   2.407  17.064  0.1254 -0.4142  0.1853
 7445TIP3    H143750   0.903   2.328  17.118 -0.7857 -0.2110  0.4925
 7445TIP3    H243751   0.946   2.473  17.117 -0.8473 -0.1920  0.7043
 7446TIP3   OH243752   4.801   0.085  10.997 -0.3824 -0.2079  0.1341
 7446TIP3    H143753   4.730   0.094  10.933 -0.3657 -0.0743  0.1328
 7446TIP3    H243754   4.776   0.010  11.051 -0.1389 -0.6478 -0.3589
 7447TIP3   OH243755   1.495   2.448  13.135  0.0690  0.2920  0.1011
 7447TIP3    H143756   1.464   2.383  13.197  0.8112 -0.0158  0.1558
 7447TIP3    H243757   1.447   2.430  13.054 -1.8330  1.4979  0.9469
 7448TIP3   OH243758   5.863   5.638  11.387  0.6223  0.2211 -0.4403
 7448TIP3    H143759   5.909   5.626  11.470  0.7954  0.3240 -0.5230
 7448TIP3    H243760   5.876   5.556  11.340 -0.0352 -0.0924 -0.0888
 7449TIP3   OH243761   6.249   1.964  16.229 -0.1307 -0.3175  0.1706
 7449TIP3    H143762   6.214   1.905  16.162 -0.0554 -0.0259 -0.1225
 7449TIP3    H243763   6.291   1.905  16.292  0.7798 -0.5257 -0.6130
 7450TIP3   OH243764   1.835   5.328  13.862 -0.0322 -0.5325  0.1896
 7450TIP3    H143765   1.842   5.306  13.955 -0.8181 -0.2359  0.3198
 7450TIP3    H243766   1.897   5.400  13.850 -1.6473  1.0420  1.0128
 7451TIP3   OH243767   0.231   5.866   6.047 -0.0200 -0.4315 -0.1513
 7451TIP3    H143768   0.150   5.818   6.033 -1.1099  0.9687  1.1575
 7451TIP3    H243769   0.211   5.957   6.024  1.1346 -0.0520  0.2517
 7452TIP3   OH243770   5.271   0.360   5.533  0.0433 -0.1435 -0.3321
 7452TIP3    H143771   5.221   0.322   5.461  1.1344 -0.8522 -0.7226
 7452TIP3    H243772   5.232   0.324   5.612  0.0366 -0.8114 -0.6421
 7453TIP3   OH243773   5.869   2.812  14.742  0.4123 -0.0542  0.3258
 7453TIP3    H143774   5.917   2.876  14.689 -0.9308 -0.4053 -1.3799
 7453TIP3    H243775   5.935   2.775  14.801  2.4640 -1.0460 -2.4266
 7454TIP3   OH243776   0.827   0.584   1.376  0.1159  0.1587 -0.3603
 7454TIP3    H143777   0.888   0.578   1.449 -0.0789  1.1530 -0.1137
 7454TIP3    H243778   0.746   0.617   1.414  0.0651  0.8434 -1.0431
 7455TIP3   OH243779   3.370   0.804   4.148 -0.4441 -0.0024 -0.1551
 7455TIP3    H143780   3.356   0.899   4.153 -2.3219 -0.3780  2.8384
 7455TIP3    H243781   3.328   0.779   4.066 -0.7125  1.6386 -0.5486
 7456TIP3   OH243782   4.202   3.063   1.466  0.2795  0.1127 -0.7131
 7456TIP3    H143783   4.288   3.049   1.426  0.8647 -0.4038  0.7117
 7456TIP3    H243784   4.157   3.122   1.405  0.2594 -2.5267 -3.3682
 7457TIP3   OH243785   1.575   4.709  16.951  0.1230 -0.1658 -0.6233
 7457TIP3    H143786   1.567   4.757  17.033  0.4730 -0.1611 -0.5895
 7457TIP3    H243787   1.486   4.706  16.916 -0.2255 -1.1971  0.3334
 7458TIP3   OH243788   2.669   6.680   1.111 -0.3334  0.0883 -0.3071
 7458TIP3    H143789   2.752   6.651   1.074  0.3036 -0.3278  1.4174
 7458TIP3    H243790   2.645   6.611   1.173 -0.4810  1.6241  1.3876
 7459TIP3   OH243791   6.510   5.993  12.051  0.0728  0.0271 -0.5961
 7459TIP3    H143792   6.509   5.918  12.111 -0.4447 -0.4505 -1.1971
 7459TIP3    H243793   6.458   6.059  12.096  1.4780  0.4609  0.4651
 7460TIP3   OH243794   3.907   0.731   1.605 -0.3128 -0.1921 -0.2536
 7460TIP3    H143795   3.840   0.768   1.662 -0.8169  1.8101 -2.0840
 7460TIP3    H243796   3.871   0.740   1.517  2.5063  1.2553 -1.3070
 7461TIP3   OH243797   3.897   4.821   2.698  0.2449  0.4631 -0.1650
 7461TIP3    H143798   3.919   4.845   2.787 -1.3684 -1.6063  0.8427
 7461TIP3    H243799   3.961   4.753   2.675  2.0886  2.5663 -1.4446
 7462TIP3   OH243800   6.438   0.021  13.179  0.3043 -0.0515 -0.1497
 7462TIP3    H143801   6.482   0.087  13.126  0.9014  0.1289  0.5562
 7462TIP3    H243802   6.447  -0.060  13.129  1.3941 -0.0052 -0.0365
 7463TIP3   OH243803   0.883   4.698  15.890 -0.1524  0.0324 -1.0058
 7463TIP3    H143804   0.849   4.677  15.977  0.3396  1.1556 -0.5332
 7463TIP3    H243805   0.827   4.649  15.830 -2.1655  1.2786 -0.2107
 7464TIP3   OH243806   3.956   3.528   5.907 -0.9328 -0.6802  0.4956
 7464TIP3    H143807   4.049   3.520   5.887 -0.1920  0.2950  3.2621
 7464TIP3    H243808   3.918   3.572   5.831  0.9056 -0.8273 -0.5243
 7465TIP3   OH243809   6.693   1.612  16.455 -0.8451  0.0780 -0.9171
 7465TIP3    H143810   6.642   1.593  16.377 -1.6242  0.3250 -0.4656
 7465TIP3    H243811   6.657   1.555  16.522 -0.4137  0.1298 -0.6378
 7466TIP3   OH243812   6.326   4.139   5.908 -0.3705 -0.2051  0.2154
 7466TIP3    H143813   6.314   4.052   5.870 -2.5913  0.1815 -0.0767
 7466TIP3    H243814   6.322   4.199   5.834 -1.6016  0.3303  0.6981
 7467TIP3   OH243815   1.581   4.607  15.394 -0.0275  0.3993  0.1533
 7467TIP3    H143816   1.529   4.534  15.360 -2.1250  2.1692 -0.6027
 7467TIP3    H243817   1.622   4.645  15.317 -1.6050  1.9932  0.0639
 7468TIP3   OH243818   0.726   3.939   4.163  0.5574  0.4669 -0.1371
 7468TIP3    H143819   0.736   4.026   4.201 -0.0893  1.6657 -2.5838
 7468TIP3    H243820   0.736   3.953   4.069 -4.1623 -1.3496 -1.0366
 7469TIP3   OH243821   4.910   5.139  16.538  0.1750  0.0564  0.2476
 7469TIP3    H143822   4.902   5.197  16.613 -0.5261  0.0849  0.1519
 7469TIP3    H243823   4.917   5.197  16.463  3.1291  0.0713  0.4759
 7470TIP3   OH243824   6.613   3.865  10.368 -0.3849  0.1298 -0.2852
 7470TIP3    H143825   6.543   3.801  10.366 -1.2800  1.0976 -0.6524
 7470TIP3    H243826   6.582   3.933  10.428  0.9833 -0.2581  0.8894
 7471TIP3   OH243827   2.497   6.441  15.170  0.0157  0.0386 -0.2605
 7471TIP3    H143828   2.492   6.528  15.130 -0.1940  0.7212  1.2131
 7471TIP3    H243829   2.503   6.381  15.096 -0.6874  1.2456 -1.3172
 7472TIP3   OH243830   3.347   3.530   1.473  0.8026 -0.0312  0.5986
 7472TIP3    H143831   3.304   3.613   1.493  1.6375  0.7028 -0.5234
 7472TIP3    H243832   3.362   3.489   1.558  4.1991  2.9138  1.5733
 7473TIP3   OH243833   5.872   5.667  14.113 -0.0922 -0.6355 -0.6586
 7473TIP3    H143834   5.812   5.738  14.089  1.3280  0.8016  0.0198
 7473TIP3    H243835   5.817   5.606  14.162 -0.7276  1.2886  1.0705
 7474TIP3   OH243836   2.076   3.646  12.987  0.0693 -0.0569 -0.3518
 7474TIP3    H143837   2.161   3.618  12.952  0.3846  0.8964 -0.3712
 7474TIP3    H243838   2.068   3.738  12.959 -1.8518 -0.7000 -2.0625
 7475TIP3   OH243839   0.009   2.148  11.337 -0.4203 -0.2849  0.0778
 7475TIP3    H143840   0.084   2.203  11.359 -1.0439 -0.5818  3.1673
 7475TIP3    H243841   0.045   2.079  11.281  2.0434 -1.5212  3.0778
 7476TIP3   OH243842   4.944   0.374   4.297  0.0823  0.6747 -0.4219
 7476TIP3    H143843   5.000   0.348   4.370  0.8407  0.7918 -0.9566
 7476TIP3    H243844   4.912   0.461   4.320 -0.3721  0.3517  0.1695
 7477TIP3   OH243845   1.020   0.202   5.284 -0.3445  0.3451  0.0666
 7477TIP3    H143846   0.962   0.260   5.234 -2.2869 -2.1324 -0.6294
 7477TIP3    H243847   1.042   0.132   5.223 -0.8236 -1.4859  1.9548
 7478TIP3   OH243848   5.204   4.813  14.912 -0.5495 -0.0515 -0.5656
 7478TIP3    H143849   5.236   4.840  14.998 -0.3889 -0.2311 -0.5680
 7478TIP3    H243850   5.190   4.895  14.864 -2.6397  0.1331  0.3420
 7479TIP3   OH243851   5.508   2.100   4.778 -0.1789 -0.6828 -0.0705
 7479TIP3    H143852   5.569   2.059   4.839  0.0044  0.1465  0.3028
 7479TIP3    H243853   5.525   2.194   4.786  0.2643 -0.6027 -1.8308
 7480TIP3   OH243854   5.775   4.453   5.633  0.6048 -0.0665  0.2037
 7480TIP3    H143855   5.771   4.448   5.537  0.1490  2.6671  0.0568
 7480TIP3    H243856   5.739   4.539   5.654 -0.0469 -0.9629  2.8977
 7481TIP3   OH243857   3.028   1.381   2.216  0.0907 -0.6926  0.1964
 7481TIP3    H143858   3.106   1.357   2.167 -0.1312 -1.9941  0.4528
 7481TIP3    H243859   3.000   1.299   2.258 -0.8191 -0.0212  0.9271
 7482TIP3   OH243860   3.953   2.855   6.454  0.1272 -0.3144 -0.1932
 7482TIP3    H143861   3.937   2.878   6.363 -2.2776  1.7355  0.6952
 7482TIP3    H243862   3.981   2.937   6.495  1.4826 -1.2817  0.8963
 7483TIP3   OH243863   3.625   1.278   6.787 -0.3452  0.3584 -0.2329
 7483TIP3    H143864   3.709   1.241   6.761 -0.0154  2.1085 -1.8031
 7483TIP3    H243865   3.559   1.216   6.755  0.2932 -0.3824 -0.1101
 7484TIP3   OH243866   0.104   1.252   4.817  0.2058  0.3464 -0.2480
 7484TIP3    H143867   0.185   1.271   4.769  1.5247 -0.8463  1.4199
 7484TIP3    H243868   0.128   1.179   4.875 -2.2544 -0.4457 -0.1920
 7485TIP3   OH243869   5.179   6.783  17.182 -0.1452 -0.0562 -0.3509
 7485TIP3    H143870   5.230   6.855  17.221 -0.6360  0.3573 -0.4734
 7485TIP3    H243871   5.213   6.775  17.093  2.1887 -2.1475  0.6660
 7486TIP3   OH243872   5.275   3.536  11.606  0.1108 -0.4835 -0.0148
 7486TIP3    H143873   5.214   3.477  11.650  1.9254 -0.7607  2.2021
 7486TIP3    H243874   5.225   3.616  11.592 -0.9024 -0.8487  1.3900
 7487TIP3   OH243875   6.206   0.125  14.079 -0.3010 -0.4994 -0.1454
 7487TIP3    H143876   6.238   0.124  13.989 -0.0066 -1.0478 -0.0335
 7487TIP3    H243877   6.228   0.213  14.111 -1.2992  0.0487 -0.9182
 7488TIP3   OH243878   2.371   6.053  15.099 -0.3056 -0.6496 -0.2068
 7488TIP3    H143879   2.433   6.105  15.049  0.2119 -1.1438 -0.0835
 7488TIP3    H243880   2.401   6.060  15.189  0.3693 -1.9824 -0.3141
 7489TIP3   OH243881   1.057   2.949  13.727  0.2746  0.3191  0.2994
 7489TIP3    H143882   1.138   2.913  13.691  1.4271  2.8163  0.2862
 7489TIP3    H243883   1.045   2.903  13.810  0.6073 -1.4981 -0.6417
 7490TIP3   OH243884   1.017   5.587   5.116 -0.5970 -0.0923  0.6425
 7490TIP3    H143885   0.936   5.568   5.068 -1.7080 -0.3105  2.5416
 7490TIP3    H243886   0.987   5.621   5.201  1.2828 -1.1059  1.7392
 7491TIP3   OH243887   0.593   2.260   5.746  0.0014  0.1584 -0.2938
 7491TIP3    H143888   0.541   2.205   5.687  0.4122 -0.0499 -0.4640
 7491TIP3    H243889   0.604   2.342   5.699 -2.8503  1.3789  1.0336
 7492TIP3   OH243890   3.711   3.141  11.944 -0.0852  0.0612  0.0238
 7492TIP3    H143891   3.730   3.234  11.931 -0.8783  0.1404 -0.6445
 7492TIP3    H243892   3.657   3.139  12.023 -3.1889  0.5976 -1.9542
 7493TIP3   OH243893   4.013   1.288   1.575 -0.6846  0.1247  0.0501
 7493TIP3    H143894   4.034   1.344   1.500 -1.6913 -2.2748 -2.0923
 7493TIP3    H243895   4.029   1.199   1.544 -1.5448 -0.9469  2.5528
 7494TIP3   OH243896   5.480   3.379   1.608 -0.2513 -0.1156  0.0399
 7494TIP3    H143897   5.399   3.388   1.559 -0.5383 -1.1438  0.3184
 7494TIP3    H243898   5.459   3.413   1.696 -0.0863  0.5574 -0.1743
 7495TIP3   OH243899   0.012   5.190   3.761 -0.0398 -0.2102 -0.0093
 7495TIP3    H143900   0.020   5.110   3.708 -1.7934 -1.4437  1.5416
 7495TIP3    H243901   0.052   5.167   3.845  2.3483  1.6098 -0.5817
 7496TIP3   OH243902   0.722   6.604  14.051  0.0797  0.2596 -0.2525
 7496TIP3    H143903   0.709   6.654  14.132  0.1646  0.7247 -0.5228
 7496TIP3    H243904   0.674   6.653  13.985  0.2519  0.0370 -0.5442
 7497TIP3   OH243905   5.449   6.108  13.696 -0.5986 -0.6313 -0.2869
 7497TIP3    H143906   5.537   6.086  13.667 -1.3541 -0.5962 -2.7271
 7497TIP3    H243907   5.451   6.202  13.708  0.0529 -0.7947  1.0109
 7498TIP3   OH243908   3.636   0.659  11.404  0.5348  0.2921 -0.4579
 7498TIP3    H143909   3.646   0.571  11.440  2.1456  0.2925 -0.8984
 7498TIP3    H243910   3.698   0.663  11.331  1.8361  2.3939  0.7110
 7499TIP3   OH243911   0.893   3.748  11.878 -0.2698  0.7517 -0.3773
 7499TIP3    H143912   0.810   3.739  11.925 -0.3753  0.0553 -0.6853
 7499TIP3    H243913   0.868   3.743  11.786  0.3708 -2.0751 -0.4662
 7500TIP3   OH243914   1.816   1.565   2.724  0.3501 -0.6950  0.0370
 7500TIP3    H143915   1.784   1.621   2.653  1.1738  1.8601  1.6153
 7500TIP3    H243916   1.911   1.578   2.723  0.3022  0.0405  2.1007
 7501TIP3   OH243917   0.902   4.882   5.124 -0.4707 -0.3773  1.0378
 7501TIP3    H143918   0.923   4.844   5.210  0.6263  1.3267  1.5425
 7501TIP3    H243919   0.855   4.962   5.144 -0.8161 -0.3245  0.0251
 7502TIP3   OH243920   0.560   5.874   4.265 -0.0232  0.2219 -0.6933
 7502TIP3    H143921   0.572   5.905   4.355 -0.5698  0.7497 -0.8053
 7502TIP3    H243922   0.541   5.781   4.275 -0.3466  0.3336 -0.2468
 7503TIP3   OH243923   0.533   5.363   0.686  0.3160 -0.0743  0.0181
 7503TIP3    H143924   0.512   5.445   0.642  0.8905 -0.2148 -0.5278
 7503TIP3    H243925   0.629   5.359   0.684  0.2867 -0.7675  0.0186
 7504TIP3   OH243926   3.376   2.940   4.929  0.0725 -0.4250 -0.4966
 7504TIP3    H143927   3.295   2.903   4.964 -0.4787 -0.6321 -1.9753
 7504TIP3    H243928   3.442   2.873   4.947 -0.0975 -0.3203  0.5805
 7505TIP3   OH243929   1.141   6.509   1.994 -0.2676  0.1958  0.5907
 7505TIP3    H143930   1.145   6.442   2.062 -0.9565 -1.6003 -1.1069
 7505TIP3    H243931   1.188   6.471   1.920 -1.7851  1.0527 -0.8523
 7506TIP3   OH243932   4.893   5.075   5.180  0.0597  0.4965  0.0178
 7506TIP3    H143933   4.954   5.003   5.163 -0.8179 -0.0078 -1.0603
 7506TIP3    H243934   4.944   5.138   5.231  1.2358 -0.2846 -0.1705
 7507TIP3   OH243935   6.390   0.775   3.092 -0.1017 -0.2429  0.3325
 7507TIP3    H143936   6.437   0.825   3.025  1.8142  1.5692  2.9048
 7507TIP3    H243937   6.416   0.684   3.077 -1.0605 -0.1122 -2.3928
 7508TIP3   OH243938   0.785   6.390   0.109 -0.3524 -0.2757 -0.4092
 7508TIP3    H143939   0.800   6.313   0.163 -1.0824  0.8629  1.4666
 7508TIP3    H243940   0.746   6.454   0.169 -1.7791  0.8021 -2.4314
 7509TIP3   OH243941   3.553   1.533   1.890 -0.0641 -0.7830  0.0796
 7509TIP3    H143942   3.590   1.445   1.897 -0.9077 -1.4230 -2.8922
 7509TIP3    H243943   3.458   1.519   1.898 -0.2089 -0.1716 -0.5682
 7510TIP3   OH243944   5.200   1.595   3.164  0.1134  0.5942  0.2572
 7510TIP3    H143945   5.284   1.623   3.128  0.9888  0.8620  2.4485
 7510TIP3    H243946   5.155   1.553   3.091  3.5503 -2.5925 -0.1521
 7511TIP3   OH243947   0.742   0.604  15.074  0.2997 -0.3059  0.2124
 7511TIP3    H143948   0.780   0.690  15.089 -0.9646  0.1435  0.9060
 7511TIP3    H243949   0.799   0.564  15.008 -0.6115  2.0895 -2.1014
 7512TIP3   OH243950   5.941   6.786  15.929  0.0678 -0.1445 -0.2315
 7512TIP3    H143951   6.014   6.725  15.940  0.8162  0.5995 -0.9395
 7512TIP3    H243952   5.953   6.850  15.999 -0.6875 -0.7836  0.4795
 7513TIP3   OH243953   2.868   6.183   1.434 -0.6055  0.2073  0.1753
 7513TIP3    H143954   2.861   6.121   1.361  0.1196 -0.8733  1.0067
 7513TIP3    H243955   2.788   6.236   1.428 -2.5041 -2.4226  0.9111
 7514TIP3   OH243956   3.706   2.368   0.866  0.5690 -0.5742 -0.3334
 7514TIP3    H143957   3.793   2.347   0.901  0.9317  0.4766 -0.6145
 7514TIP3    H243958   3.648   2.308   0.912  1.0206  0.8966  2.2231
 7515TIP3   OH243959   3.755   4.073   5.299  0.4715 -0.2663  0.0006
 7515TIP3    H143960   3.717   4.057   5.213 -0.4444  0.6638  0.2125
 7515TIP3    H243961   3.687   4.044   5.360  1.9358 -2.9212  0.4683
 7516TIP3   OH243962   0.874   2.556   1.262 -0.0760  0.1997 -0.5073
 7516TIP3    H143963   0.853   2.469   1.229 -0.2385 -0.1942  0.6262
 7516TIP3    H243964   0.847   2.615   1.191  1.3185 -0.7347 -1.8507
 7517TIP3   OH243965   4.386   1.327  16.624  0.4854  0.2267 -0.4546
 7517TIP3    H143966   4.313   1.327  16.686  1.2837 -0.9989  0.5154
 7517TIP3    H243967   4.414   1.235  16.620 -0.7886 -0.0867 -4.1442
 7518TIP3   OH243968   1.327   5.491   1.601  0.7073 -0.4675  0.6600
 7518TIP3    H143969   1.269   5.526   1.534 -0.0603  1.2124  2.1719
 7518TIP3    H243970   1.394   5.443   1.551  1.0276  1.9939 -1.4236
 7519TIP3   OH243971   6.371   1.668   0.556 -0.0961  0.2770 -0.1598
 7519TIP3    H143972   6.433   1.686   0.628  1.4055 -1.6573 -0.9366
 7519TIP3    H243973   6.302   1.734   0.568  0.2672  0.1942  2.8823
 7520TIP3   OH243974   5.016   5.347  16.367 -0.0486 -0.2008 -0.0519
 7520TIP3    H143975   4.979   5.433  16.348 -1.0486 -0.5281  0.3364
 7520TIP3    H243976   5.084   5.334  16.302 -0.2844  0.6443 -0.4667
 7521TIP3   OH243977   2.646   1.831   6.424 -0.4628  0.6795  0.2256
 7521TIP3    H143978   2.733   1.862   6.449  0.2048 -1.5155  0.8020
 7521TIP3    H243979   2.587   1.903   6.447  1.1680  2.1212 -0.0032
 7522TIP3   OH243980   1.414   3.479   2.235 -0.5394  0.1473 -0.4463
 7522TIP3    H143981   1.464   3.560   2.231  0.0173 -0.1070  0.9330
 7522TIP3    H243982   1.461   3.418   2.178  0.7648 -0.1068  0.8753
 7523TIP3   OH243983   5.040   0.569  10.802  0.1616 -0.3204  0.0686
 7523TIP3    H143984   5.110   0.512  10.770 -0.9082 -1.3985 -0.3630
 7523TIP3    H243985   4.992   0.516  10.865  1.1355  1.1810  2.1590
 7524TIP3   OH243986   2.797   3.325   4.564  0.2603  0.1675 -0.2884
 7524TIP3    H143987   2.780   3.407   4.611 -0.7943  0.9188 -1.9425
 7524TIP3    H243988   2.878   3.292   4.602  0.7987  2.0757  0.2749
 7525TIP3   OH243989   2.520   3.975   4.436 -0.3107 -0.2048  0.2613
 7525TIP3    H143990   2.557   3.898   4.478  1.6737  0.6881  0.2075
 7525TIP3    H243991   2.525   4.044   4.503  0.1812  0.4845 -0.4712
 7526TIP3   OH243992   2.643   6.064  15.772 -0.0807 -0.2785 -0.3360
 7526TIP3    H143993   2.700   6.132  15.737  2.5057 -1.6268  1.0863
 7526TIP3    H243994   2.636   5.999  15.702 -1.6328  0.8964 -1.2839
 7527TIP3   OH243995   5.258   2.571   3.897  0.2626 -0.3442  0.4764
 7527TIP3    H143996   5.186   2.510   3.909  0.8121 -1.0850  0.0365
 7527TIP3    H243997   5.229   2.651   3.941  0.7230 -1.8069  3.5003
 7528TIP3   OH243998   2.060   4.582  10.910  0.3153 -0.1805  0.1781
 7528TIP3    H143999   2.087   4.516  10.847  0.4767 -0.7087  0.7876
 7528TIP3    H244000   2.106   4.661  10.884 -0.5898 -0.0719 -1.1006
 7529TIP3   OH244001   2.362   1.821   1.078 -0.3023  0.3962  0.1043
 7529TIP3    H144002   2.410   1.738   1.080  2.4170  1.9012  0.1684
 7529TIP3    H244003   2.274   1.797   1.048  0.0131 -2.6695  1.4592
 7530TIP3   OH244004   4.427   0.153   2.591 -0.1788 -0.1048 -0.1015
 7530TIP3    H144005   4.477   0.211   2.534 -0.4653 -0.1479 -0.4002
 7530TIP3    H244006   4.340   0.193   2.596 -0.0166  0.1519  0.6849
 7531TIP3   OH244007   0.739   3.716  17.058 -0.4808 -0.0566  0.1816
 7531TIP3    H144008   0.690   3.675  16.986  2.3565 -1.2979 -1.1136
 7531TIP3    H244009   0.712   3.808  17.055 -1.8001 -0.4570 -1.2740
 7532TIP3   OH244010   4.676   6.004   5.163  0.2494 -0.0998  0.1666
 7532TIP3    H144011   4.590   6.013   5.204  0.6057 -0.0882  0.9162
 7532TIP3    H244012   4.698   5.911   5.172  0.0301 -0.2248 -0.5940
 7533TIP3   OH244013   3.978   5.190  16.631  0.6903 -0.0075 -0.3179
 7533TIP3    H144014   3.911   5.122  16.629 -0.4672  1.1160 -0.8176
 7533TIP3    H244015   3.930   5.271  16.612  1.6162  1.2804  2.5244
 7534TIP3   OH244016   1.854   3.142  16.194  0.2651 -0.5672 -0.0566
 7534TIP3    H144017   1.861   3.210  16.261  1.6806 -1.4869  0.7410
 7534TIP3    H244018   1.939   3.140  16.151 -0.6485  0.0628 -1.9666
 7535TIP3   OH244019   3.902   3.159   4.222  0.0456  0.0136  0.5356
 7535TIP3    H144020   3.970   3.091   4.226  0.5073  0.4271 -0.2314
 7535TIP3    H244021   3.888   3.173   4.128 -0.5729  0.4598  0.6938
 7536TIP3   OH244022   3.023   5.343  12.080  0.4163  0.3451 -0.1582
 7536TIP3    H144023   2.969   5.264  12.074 -0.6363  0.9521  1.2462
 7536TIP3    H244024   3.078   5.328  12.158  0.1087  1.0647  0.1983
 7537TIP3   OH244025   5.923   6.468  15.840 -0.2087 -0.0521  0.0739
 7537TIP3    H144026   5.916   6.535  15.773  0.6164  0.2786  0.3137
 7537TIP3    H244027   6.013   6.436  15.832 -0.8549 -1.7758 -0.6578
 7538TIP3   OH244028   6.762   6.427  16.701 -0.6852  0.2870  0.3298
 7538TIP3    H144029   6.781   6.338  16.732 -0.5306  0.2409  0.1072
 7538TIP3    H244030   6.697   6.414  16.632  0.1595  0.2434 -0.4739
 7539TIP3   OH244031   2.612   1.036   1.515 -0.1058  0.6530  0.0485
 7539TIP3    H144032   2.703   1.006   1.515 -1.4449 -3.8668  1.7195
 7539TIP3    H244033   2.592   1.049   1.608 -1.6484 -0.0568 -0.1810
 7540TIP3   OH244034   6.344   6.048   4.155  0.0737 -0.4415  0.1227
 7540TIP3    H144035   6.319   6.108   4.085  1.3570 -0.4704 -0.3892
 7540TIP3    H244036   6.308   5.964   4.128 -1.8108  0.1033  0.8886
 7541TIP3   OH244037   2.040   5.062   1.616  0.5461  0.6596  0.1065
 7541TIP3    H144038   1.969   5.117   1.584  0.1540 -0.6691 -1.3743
 7541TIP3    H244039   2.006   5.024   1.697  1.7176  4.3861  2.4608
 7542TIP3   OH244040   0.161   4.087  14.843  1.0764 -0.2961 -0.3292
 7542TIP3    H144041   0.128   4.123  14.925  1.2281 -2.6245  0.8071
 7542TIP3    H244042   0.211   4.158  14.804 -0.4689  1.4274  0.7144
 7543TIP3   OH244043   1.563   5.164   2.379 -0.2141 -0.3849 -0.2438
 7543TIP3    H144044   1.543   5.205   2.295  0.8198  2.1847  0.6900
 7543TIP3    H244045   1.587   5.237   2.436  0.3651 -2.1943  1.9227
 7544TIP3   OH244046   5.804   0.856   5.107 -0.0923  0.6218  0.6331
 7544TIP3    H144047   5.732   0.914   5.082 -0.6247 -0.1597  0.3288
 7544TIP3    H244048   5.833   0.889   5.192 -1.3969  0.4078  1.1737
 7545TIP3   OH244049   4.916   5.465   1.442  1.1166  0.1118  0.0735
 7545TIP3    H144050   4.894   5.377   1.473 -1.3411  1.3669  2.0298
 7545TIP3    H244051   4.833   5.513   1.444  2.7542  3.0148  0.8679
 7546TIP3   OH244052   5.429   3.550  14.001  0.2886 -0.5742 -0.8049
 7546TIP3    H144053   5.434   3.489  14.075 -0.9386  0.0965 -0.1475
 7546TIP3    H244054   5.442   3.636  14.041 -2.0376 -0.0576 -1.0992
 7547TIP3   OH244055   5.515   3.830   1.864 -0.1858 -0.0026  0.4890
 7547TIP3    H144056   5.552   3.906   1.819  1.0639 -0.5218  0.6363
 7547TIP3    H244057   5.536   3.755   1.808 -1.5400 -0.2352  0.2718
 7548TIP3   OH244058   2.343   2.461  16.137  0.2609  0.1624  0.2143
 7548TIP3    H144059   2.276   2.395  16.118  0.2775  0.2476 -0.1606
 7548TIP3    H244060   2.419   2.431  16.087  0.5364  0.0043  0.7300
 7549TIP3   OH244061   0.457   5.474  12.807 -0.9946 -0.4302  0.3228
 7549TIP3    H144062   0.391   5.543  12.819 -1.6015 -0.6612 -1.5028
 7549TIP3    H244063   0.433   5.407  12.870 -1.2834  0.3917  1.0940
 7550TIP3   OH244064   2.136   4.135  11.766  0.3505  0.5554  0.4384
 7550TIP3    H144065   2.101   4.102  11.683 -0.4208 -0.2890  1.0947
 7550TIP3    H244066   2.209   4.076  11.786 -0.8631 -0.6582  1.4765
 7551TIP3   OH244067   4.431   5.723   5.599  0.0272  0.2867  0.3654
 7551TIP3    H144068   4.499   5.674   5.553 -0.5254  0.3803 -0.5561
 7551TIP3    H244069   4.403   5.663   5.669 -0.7314 -0.8023 -0.8295
 7552TIP3   OH244070   5.626   4.466  11.563 -0.0781  0.0650  0.0730
 7552TIP3    H144071   5.594   4.455  11.652  1.1414  4.0927  1.0868
 7552TIP3    H244072   5.721   4.476  11.572 -0.1932  2.8538 -1.3784
 7553TIP3   OH244073   3.555   3.066   2.792  0.0827 -0.0174 -0.0974
 7553TIP3    H144074   3.492   3.044   2.723 -1.0567  0.5422  0.7426
 7553TIP3    H244075   3.561   2.987   2.845 -0.7850  0.2887  0.4721
 7554TIP3   OH244076   4.224   5.294   5.461  0.4114 -0.2898  0.5268
 7554TIP3    H144077   4.275   5.353   5.406 -0.4451 -0.3802 -0.3607
 7554TIP3    H244078   4.202   5.221   5.404 -1.3966  0.1155  0.6823
 7555TIP3   OH244079   5.556   5.409  11.381 -0.7621 -0.0798  0.6161
 7555TIP3    H144080   5.641   5.367  11.394  0.0823  0.9244 -1.5178
 7555TIP3    H244081   5.520   5.369  11.302 -1.3055  1.0353  0.2869
 7556TIP3   OH244082   1.800   3.384   5.704 -0.3028  0.7157  0.0635
 7556TIP3    H144083   1.878   3.380   5.760 -0.7511 -2.0211  0.5321
 7556TIP3    H244084   1.834   3.383   5.615  0.2497  1.0738  0.2690
 7557TIP3   OH244085   1.176   2.823   5.817 -0.0492  0.4276  0.0005
 7557TIP3    H144086   1.267   2.795   5.800  0.4688  2.0969 -0.0259
 7557TIP3    H244087   1.138   2.834   5.730 -0.0474  0.4502  0.0023
 7558TIP3   OH244088   4.001   6.024   6.009  0.1446 -0.6846  0.3412
 7558TIP3    H144089   3.975   6.116   6.002 -0.9716 -0.9006  1.3851
 7558TIP3    H244090   4.038   6.003   5.923  0.1970  0.6655  0.0135
 7559TIP3   OH244091   3.145   4.497  12.771  0.0468 -0.0768  0.2321
 7559TIP3    H144092   3.059   4.481  12.811 -0.2763  0.7085 -0.1432
 7559TIP3    H244093   3.169   4.412  12.733 -0.4218 -0.3788  0.5965
 7560TIP3   OH244094   5.334   2.875  12.942  0.0278  0.3617  0.1284
 7560TIP3    H144095   5.334   2.927  13.023 -0.9214 -0.9028  0.9588
 7560TIP3    H244096   5.280   2.925  12.881 -0.4174  0.6250  0.7388
 7561TIP3   OH244097   2.493   4.637  13.659  0.0985 -0.0574  0.0069
 7561TIP3    H144098   2.539   4.672  13.582  1.4309  0.0415  0.8224
 7561TIP3    H244099   2.497   4.708  13.723  1.3966 -1.1003  1.1060
 7562TIP3   OH244100   3.952   2.016   4.181  0.4511  0.3313  0.3160
 7562TIP3    H144101   4.007   2.086   4.216 -0.8129  1.7595 -0.4755
 7562TIP3    H244102   3.952   1.949   4.249  0.3572  1.8209  1.8141
 7563TIP3   OH244103   1.528   3.230   3.145  0.2093  0.5539  0.1065
 7563TIP3    H144104   1.511   3.234   3.050 -1.2088  0.6579  0.3588
 7563TIP3    H244105   1.466   3.292   3.183  1.1807  0.9462  1.0582
 7564TIP3   OH244106   6.239   0.748  15.255  0.1553 -0.7533  0.2588
 7564TIP3    H144107   6.241   0.813  15.325  2.9421  1.1782 -1.4948
 7564TIP3    H244108   6.217   0.798  15.177  0.7637 -2.2021 -0.8695
 7565TIP3   OH244109   0.948   1.395  10.643  0.3384 -0.8075 -0.2543
 7565TIP3    H144110   1.036   1.369  10.669  0.5868  0.8238  0.5812
 7565TIP3    H244111   0.961   1.467  10.581 -0.4063 -0.3763  0.0786
 7566TIP3   OH244112   3.590   2.084  10.782  0.0354  0.2445 -0.0244
 7566TIP3    H144113   3.575   2.013  10.845  0.1964  0.6967  0.5293
 7566TIP3    H244114   3.536   2.156  10.814  0.4065  0.5991 -0.1926
 7567TIP3   OH244115   3.572   1.927   3.074  0.6492 -0.1164  0.5701
 7567TIP3    H144116   3.591   1.940   2.981 -2.1710 -1.1731 -0.1765
 7567TIP3    H244117   3.557   2.016   3.107  0.5296  0.1649 -0.2257
 7568TIP3   OH244118   5.601   6.628   1.968  0.1716 -0.4484  0.4712
 7568TIP3    H144119   5.679   6.619   1.915 -0.3441 -2.0549 -0.0186
 7568TIP3    H244120   5.528   6.624   1.906 -0.3366  0.7970  0.9452
 7569TIP3   OH244121   6.417   2.748  11.368  0.0289 -0.2982 -0.2650
 7569TIP3    H144122   6.507   2.773  11.348 -0.1781  1.1695  0.5762
 7569TIP3    H244123   6.364   2.822  11.339 -0.9266 -1.1807 -0.8126
 7570TIP3   OH244124   0.811   4.685  12.338  0.4941 -0.2876  0.0110
 7570TIP3    H144125   0.791   4.677  12.432  0.0871  0.5616  0.0056
 7570TIP3    H244126   0.906   4.691  12.335  0.5444 -0.9097  0.3255
 7571TIP3   OH244127   1.050   0.957  14.113 -0.8899  0.1444  0.3901
 7571TIP3    H144128   1.135   0.979  14.076 -1.2283  1.3211  0.2662
 7571TIP3    H244129   0.995   0.936  14.037 -0.3742 -1.8665  0.5589
 7572TIP3   OH244130   0.301   2.589   4.376 -0.1523  0.1741 -0.0555
 7572TIP3    H144131   0.353   2.654   4.329  1.8579 -1.6571 -0.4255
 7572TIP3    H244132   0.324   2.603   4.468  0.1616  0.0964 -0.1199
 7573TIP3   OH244133   1.162   5.777   6.102 -0.2196  0.4884 -0.2913
 7573TIP3    H144134   1.095   5.765   6.170  0.5452 -0.4415  0.3239
 7573TIP3    H244135   1.118   5.756   6.020 -0.1658 -2.2420  0.3053
 7574TIP3   OH244136   2.734   6.578  11.680  0.0063  0.0287  0.2941
 7574TIP3    H144137   2.783   6.585  11.762 -0.9622  2.1618  0.7391
 7574TIP3    H244138   2.799   6.552  11.615  0.9940 -0.6638  1.5439
 7575TIP3   OH244139   3.189   3.892  11.802  0.1488 -0.6957 -0.0929
 7575TIP3    H144140   3.221   3.979  11.777  0.8309 -0.3861  1.7220
 7575TIP3    H244141   3.102   3.886  11.765 -0.3272  1.2190  0.6560
 7576TIP3   OH244142   6.476   2.981   5.585  0.0474  0.3789  0.2562
 7576TIP3    H144143   6.510   2.916   5.646  1.2158  0.3909 -0.3726
 7576TIP3    H244144   6.397   3.015   5.627 -0.3066 -1.1043  0.7997
 7577TIP3   OH244145   2.733   1.595  15.332 -0.5380  0.4698 -0.0061
 7577TIP3    H144146   2.805   1.569  15.275  1.0301  1.6181  1.4058
 7577TIP3    H244147   2.717   1.519  15.387 -0.6640  0.0940 -0.5513
 7578TIP3   OH244148   3.047   1.840  12.315  0.2727 -0.3085  1.0321
 7578TIP3    H144149   3.123   1.865  12.262 -0.5890 -0.4878 -0.3018
 7578TIP3    H244150   3.027   1.918  12.367 -0.2727  0.6653 -0.5843
 7579TIP3   OH244151   3.741   1.441   1.538 -0.6105 -0.8946 -0.0342
 7579TIP3    H144152   3.746   1.351   1.571  0.3664 -1.0574 -0.5970
 7579TIP3    H244153   3.662   1.477   1.579  0.6526 -1.0264  2.5754
 7580TIP3   OH244154   6.673   0.003  12.087  0.4013 -0.2426  0.0701
 7580TIP3    H144155   6.588   0.029  12.123  0.1483 -0.1664 -0.5747
 7580TIP3    H244156   6.695   0.072  12.024  0.4644 -0.7786 -0.4998
 7581TIP3   OH244157   5.609   6.147  15.664  0.0802  0.0177  0.1224
 7581TIP3    H144158   5.559   6.081  15.616  0.3592  0.7938 -1.2606
 7581TIP3    H244159   5.699   6.138  15.631  0.4390  0.0632  1.0547
 7582TIP3   OH244160   1.368   2.641   3.076  0.2201  0.9016 -0.5544
 7582TIP3    H144161   1.447   2.617   3.028  0.0283  1.0851 -0.9627
 7582TIP3    H244162   1.326   2.708   3.022  0.0048  1.1086 -0.1299
 7583TIP3   OH244163   6.570   3.792  10.829 -0.4263  0.3048  0.2633
 7583TIP3    H144164   6.527   3.874  10.803 -2.4033  0.3613  3.3199
 7583TIP3    H244165   6.659   3.800  10.796 -1.1944  2.7394 -1.3835
 7584TIP3   OH244166   1.910   4.388  16.208  0.2938 -0.2418  0.2329
 7584TIP3    H144167   1.940   4.369  16.297  0.6032 -0.5171  0.0742
 7584TIP3    H244168   1.815   4.390  16.214  0.2645 -1.4542  0.3452
 7585TIP3   OH244169   4.619   3.060   1.466  0.2642  0.5365  0.2764
 7585TIP3    H144170   4.550   3.025   1.410  2.7947 -0.7886 -2.1842
 7585TIP3    H244171   4.634   3.149   1.432 -0.3138  0.8836  0.9154
 7586TIP3   OH244172   1.783   5.937  16.795  0.3570 -0.4935  0.3019
 7586TIP3    H144173   1.737   6.009  16.753  0.2068 -1.2315 -0.8119
 7586TIP3    H244174   1.790   5.963  16.887 -3.3355 -0.9121  0.7629
 7587TIP3   OH244175   3.356   1.938  12.959  0.3386  0.0384 -0.1745
 7587TIP3    H144176   3.435   1.938  13.012 -0.5443  1.1232  1.1843
 7587TIP3    H244177   3.296   1.879  13.005  0.0162 -0.0221 -0.6640
 7588TIP3   OH244178   5.282   6.202   2.415 -0.3105 -0.0345  0.2878
 7588TIP3    H144179   5.273   6.297   2.427 -0.6426 -0.0166 -0.1065
 7588TIP3    H244180   5.245   6.185   2.329 -1.7765 -0.7604  1.0470
 7589TIP3   OH244181   5.098   5.207  15.951 -0.0300  0.1679  0.0988
 7589TIP3    H144182   5.147   5.125  15.952  2.0599  1.3789 -0.2138
 7589TIP3    H244183   5.085   5.225  15.858 -1.9118 -0.6041  0.1870
 7590TIP3   OH244184   1.759   2.890  11.570  0.5211 -0.0920  0.7809
 7590TIP3    H144185   1.741   2.983  11.587 -0.5673 -0.3479  1.0235
 7590TIP3    H244186   1.680   2.845  11.597  0.6940 -1.0060 -0.2496
 7591TIP3   OH244187   5.360   2.170  11.521 -0.3018 -0.4712  0.6421
 7591TIP3    H144188   5.327   2.090  11.562 -0.5561  0.0813  1.5290
 7591TIP3    H244189   5.417   2.209  11.587 -0.6055  0.3497  0.4277
 7592TIP3   OH244190   3.373   3.009   5.718 -0.1636  0.0441  0.2393
 7592TIP3    H144191   3.345   2.974   5.633 -0.2913  1.1071 -0.1630
 7592TIP3    H244192   3.436   3.078   5.696  0.1266  0.0349  1.0251
 7593TIP3   OH244193   4.968   4.914   3.609  0.3046  0.4488  0.1245
 7593TIP3    H144194   4.991   4.823   3.623 -1.5586 -0.4717 -2.4694
 7593TIP3    H244195   5.050   4.957   3.586  1.1386 -0.6299  1.0827
 7594TIP3   OH244196   0.164   4.964   1.860 -0.3485 -0.3135  0.1658
 7594TIP3    H144197   0.164   4.987   1.768 -1.1439  0.7673  0.4329
 7594TIP3    H244198   0.159   5.048   1.906  0.1726 -0.8362  1.1922
 7595TIP3   OH244199   5.228   2.338  16.231 -0.0786 -0.2586  0.3118
 7595TIP3    H144200   5.193   2.271  16.172 -1.1600 -0.0306  0.6937
 7595TIP3    H244201   5.186   2.321  16.315 -1.7527  2.0031 -0.0173
 7596TIP3   OH244202   2.922   4.105   0.149  0.7199 -0.3587 -0.1916
 7596TIP3    H144203   2.880   4.076   0.068 -1.6952  0.5411  0.6813
 7596TIP3    H244204   2.981   4.034   0.172 -0.3106 -1.6817 -1.5144
 7597TIP3   OH244205   0.319   4.559   0.231  0.1745 -0.5729 -0.6348
 7597TIP3    H144206   0.232   4.543   0.268 -0.4698  0.9985 -1.4257
 7597TIP3    H244207   0.333   4.653   0.243  1.9160 -0.8814 -0.2048
 7598TIP3   OH244208   5.950   0.568   0.824  0.4693  0.4596  0.8217
 7598TIP3    H144209   6.029   0.515   0.816 -0.9115 -1.7626  1.5508
 7598TIP3    H244210   5.896   0.543   0.749 -0.3301  0.6325  1.3356
 7599TIP3   OH244211   0.495   5.492   1.169 -0.4385  0.1035 -0.4610
 7599TIP3    H144212   0.445   5.529   1.242 -2.8698 -1.4515 -1.2710
 7599TIP3    H244213   0.469   5.544   1.093 -1.7180 -1.3946 -1.0835
 7600TIP3   OH244214   3.203   2.290   6.156 -0.7221  0.2428  0.2237
 7600TIP3    H144215   3.172   2.199   6.159  2.0843 -0.8181 -0.4405
 7600TIP3    H244216   3.285   2.288   6.206  0.6891  1.8212 -1.9144
 7601TIP3   OH244217   6.010   0.837  10.667 -0.4289  0.5651 -0.1934
 7601TIP3    H144218   5.915   0.840  10.678 -0.6401  2.0468 -2.0989
 7601TIP3    H244219   6.044   0.898  10.733 -0.8174  0.3255  0.2298
 7602TIP3   OH244220   0.550   5.597  14.644  0.5219  0.4468 -0.6612
 7602TIP3    H144221   0.522   5.676  14.597  1.8739  1.2753 -0.0842
 7602TIP3    H244222   0.469   5.546  14.653 -0.0067  0.8377 -2.7844
 7603TIP3   OH244223   0.140   2.674  16.912 -0.3705 -0.4205 -0.6049
 7603TIP3    H144224   0.159   2.744  16.975  0.6150 -0.5421 -0.7607
 7603TIP3    H244225   0.099   2.719  16.839  0.7554  0.0880 -0.9364
 7604TIP3   OH244226   2.811   2.422   4.674  0.1413  0.5080 -0.0323
 7604TIP3    H144227   2.887   2.426   4.618  0.8684  1.5969  0.9898
 7604TIP3    H244228   2.770   2.508   4.665 -0.6560  0.1272 -0.1440
 7605TIP3   OH244229   1.557   0.318  14.534 -0.0894 -0.2216  0.3075
 7605TIP3    H144230   1.533   0.300  14.443  0.5761 -2.0490  0.4656
 7605TIP3    H244231   1.488   0.376  14.566 -0.7956 -0.2535 -1.1145
 7606TIP3   OH244232   1.188   3.247  14.506  0.4246 -0.0326  0.7642
 7606TIP3    H144233   1.184   3.158  14.541 -0.4502 -0.7027 -1.0094
 7606TIP3    H244234   1.127   3.247  14.433  2.3222  1.3104 -0.8698
 7607TIP3   OH244235   4.990   5.073  14.085  0.8228  0.7086  0.2764
 7607TIP3    H144236   4.913   5.128  14.074  0.9646  0.8878  0.1704
 7607TIP3    H244237   5.064   5.134  14.084  0.8226  0.7847  2.5599
 7608TIP3   OH244238   1.275   6.197   1.216  0.4650 -0.4914 -0.0232
 7608TIP3    H144239   1.338   6.136   1.253  0.2082  0.3380  1.8240
 7608TIP3    H244240   1.211   6.211   1.286 -0.4673  0.4884 -1.0548
 7609TIP3   OH244241   4.593   6.508   3.484 -0.1765 -0.0828 -0.0747
 7609TIP3    H144242   4.601   6.561   3.563  1.6195 -1.8911  1.0130
 7609TIP3    H244243   4.506   6.469   3.490 -0.6628  1.0298  0.1914
 7610TIP3   OH244244   1.992   3.988   0.804  0.5459  0.8852  0.1374
 7610TIP3    H144245   2.075   3.942   0.799 -0.5213 -1.3644  1.7269
 7610TIP3    H244246   1.996   4.037   0.886  0.5186  1.1738 -0.0349
 7611TIP3   OH244247   4.825   2.167  11.255 -0.1407 -0.4291  0.6540
 7611TIP3    H144248   4.785   2.205  11.333  0.4129 -0.3346  0.8921
 7611TIP3    H244249   4.751   2.141  11.200 -0.5254 -0.4187  1.1720
 7612TIP3   OH244250   4.118   0.360  11.861 -0.5706  0.0449 -0.4584
 7612TIP3    H144251   4.120   0.423  11.789 -0.9566 -1.4280 -1.7962
 7612TIP3    H244252   4.041   0.306  11.843  0.2058 -1.3080  0.2113
 7613TIP3   OH244253   2.920   0.371   1.563  0.0703  0.1881 -0.3699
 7613TIP3    H144254   2.971   0.294   1.540 -1.4005 -0.5938 -1.0270
 7613TIP3    H244255   2.918   0.371   1.659 -1.0248 -1.3188 -0.3862
 7614TIP3   OH244256   3.094   5.798  10.934  0.6130 -0.8747 -0.1055
 7614TIP3    H144257   3.037   5.780  10.860 -0.3109 -1.7352  0.8010
 7614TIP3    H244258   3.180   5.814  10.895 -0.2349  0.4201 -1.4678
 7615TIP3   OH244259   3.786   5.259  14.821 -0.1811 -0.3751  0.2402
 7615TIP3    H144260   3.836   5.211  14.888  0.4299  0.1770  0.1832
 7615TIP3    H244261   3.826   5.233  14.738  0.9020  1.1160  0.2897
 7616TIP3   OH244262   6.102   0.122   1.506 -0.1298  0.1339  0.0179
 7616TIP3    H144263   6.039   0.058   1.473  0.5279 -0.5258  0.0188
 7616TIP3    H244264   6.110   0.187   1.435  1.0573 -1.1192 -1.0352
 7617TIP3   OH244265   6.512   4.977   4.681 -0.0452  0.0034  0.5481
 7617TIP3    H144266   6.478   4.961   4.593  0.8029 -1.4738  0.4738
 7617TIP3    H244267   6.443   4.945   4.740 -0.0287 -0.2767  0.4150
 7618TIP3   OH244268   1.820   3.924  16.319 -0.3387  0.4236  0.1185
 7618TIP3    H144269   1.742   3.956  16.274 -0.0930  1.8397  0.6564
 7618TIP3    H244270   1.844   3.844  16.272 -1.8413  0.2167 -0.3342
 7619TIP3   OH244271   0.788   4.442  15.737  0.2463 -0.3538 -0.2025
 7619TIP3    H144272   0.721   4.482  15.792  0.3200 -0.4728 -0.0236
 7619TIP3    H244273   0.749   4.437  15.650  0.7893  1.5249 -0.5830
 7620TIP3   OH244274   1.990   3.920  15.486 -0.2557  0.0587 -1.1656
 7620TIP3    H144275   2.054   3.856  15.518 -1.9466 -1.8906 -1.5536
 7620TIP3    H244276   1.961   3.966  15.564 -0.7786 -1.3305 -0.5195
 7621TIP3   OH244277   4.629   5.287  12.365  0.5175 -0.2952 -0.8014
 7621TIP3    H144278   4.552   5.343  12.361  0.3887 -0.5584 -1.9940
 7621TIP3    H244279   4.617   5.237  12.446 -0.3913 -0.0945 -0.8026
 7622TIP3   OH244280   6.453   3.393  12.197  0.1304 -0.3788 -0.1625
 7622TIP3    H144281   6.518   3.422  12.133 -1.0967  0.6943 -0.9424
 7622TIP3    H244282   6.453   3.461  12.264  0.7948 -1.0715  0.5473
 7623TIP3   OH244283   5.911   4.620  13.648  0.4008  0.4258 -0.1690
 7623TIP3    H144284   5.900   4.533  13.686  0.6250  0.0840 -0.8932
 7623TIP3    H244285   6.003   4.624  13.623  0.2940  0.7265 -0.5176
 7624TIP3   OH244286   2.865   5.261  14.141 -0.1268 -0.2061 -0.4894
 7624TIP3    H144287   2.842   5.291  14.228 -0.6521 -0.0221 -0.6930
 7624TIP3    H244288   2.837   5.169  14.138  0.7171 -0.4804 -0.1535
 7625TIP3   OH244289   5.564   2.295  11.706  0.3930  0.0142  0.1264
 7625TIP3    H144290   5.608   2.362  11.759  0.0349  0.9246 -0.7018
 7625TIP3    H244291   5.576   2.214  11.755 -1.7482  1.1616  2.6916
 7626TIP3   OH244292   5.240   2.388  13.348  0.0446 -0.1989  0.4128
 7626TIP3    H144293   5.243   2.331  13.272  0.7751  0.3824  0.0005
 7626TIP3    H244294   5.238   2.477  13.312  1.0012  0.0994  1.0655
 7627TIP3   OH244295   6.134   2.908   3.217 -0.1912  0.2797 -0.3868
 7627TIP3    H144296   6.220   2.869   3.228  0.4593  1.5363 -1.0256
 7627TIP3    H244297   6.092   2.897   3.302  1.1093  0.9373  0.3445
 7628TIP3   OH244298   6.709   1.719  11.633  0.2843 -0.0012  0.0504
 7628TIP3    H144299   6.770   1.729  11.559 -0.1542 -1.2815 -0.5023
 7628TIP3    H244300   6.731   1.634  11.670  0.8975  0.8891  1.7971
 7629TIP3   OH244301   3.073   0.078   6.774  0.3149 -0.6069  0.3703
 7629TIP3    H144302   3.042   0.167   6.757  0.3312 -0.7146 -0.2313
 7629TIP3    H244303   2.997   0.023   6.756  0.6056 -0.8008 -0.2926
 7630TIP3   OH244304   4.106   4.309   2.585 -0.1819  1.0700  0.6066
 7630TIP3    H144305   4.082   4.320   2.677 -0.1202 -0.0976  0.7631
 7630TIP3    H244306   4.059   4.231   2.557 -0.0197  1.2905 -0.2943
 7631TIP3   OH244307   5.511   3.066   5.783  0.2477 -0.3055 -0.0822
 7631TIP3    H144308   5.516   3.120   5.861 -2.1363  1.5140 -1.1176
 7631TIP3    H244309   5.545   2.981   5.810  0.6084  0.6536  2.5870
 7632TIP3   OH244310   4.226   4.734  11.535 -0.0460  0.0881 -0.3419
 7632TIP3    H144311   4.263   4.821  11.518 -0.7222  0.3229 -0.6085
 7632TIP3    H244312   4.250   4.716  11.626  1.1512  0.0260 -0.6561
 7633TIP3   OH244313   5.074   2.257  15.193 -0.1998  0.3890 -0.1774
 7633TIP3    H144314   5.116   2.341  15.178  0.9208  0.1724  1.5942
 7633TIP3    H244315   4.986   2.280  15.225 -0.0184  0.8736 -0.0234
 7634TIP3   OH244316   3.108   6.029  16.536  0.2334 -0.1510 -0.2352
 7634TIP3    H144317   3.135   6.070  16.454 -1.5194 -0.0681 -0.7861
 7634TIP3    H244318   3.023   5.991  16.517 -0.9049  1.2082  1.9945
 7635TIP3   OH244319   4.140   0.660   2.794 -0.2751 -0.4503  0.1444
 7635TIP3    H144320   4.153   0.679   2.701  0.2024  1.6582  0.6282
 7635TIP3    H244321   4.194   0.583   2.810 -1.6086 -1.8111 -1.6776
 7636TIP3   OH244322   0.641   5.008  11.292 -0.2432  0.4779 -0.0309
 7636TIP3    H144323   0.575   5.041  11.230  0.4484  0.4506 -0.8013
 7636TIP3    H244324   0.613   5.040  11.377 -1.7518 -0.3116 -0.2246
 7637TIP3   OH244325   5.569   4.204   2.752 -0.1366  0.0499  0.0528
 7637TIP3    H144326   5.636   4.139   2.771 -0.6337 -0.4674  0.0504
 7637TIP3    H244327   5.593   4.280   2.806  0.0326 -0.3970  0.6126
 7638TIP3   OH244328   6.176   5.136  15.162  0.2216  0.9461 -0.6366
 7638TIP3    H144329   6.141   5.222  15.141 -1.5842  0.2991 -0.3417
 7638TIP3    H244330   6.103   5.076  15.147  0.3606 -0.1146  2.6741
 7639TIP3   OH244331   0.698   4.068  13.749  0.3390 -0.5662 -0.3679
 7639TIP3    H144332   0.615   4.111  13.772  0.5110 -0.8924  0.8875
 7639TIP3    H244333   0.733   4.037  13.833  1.8993 -0.1260 -0.8353
 7640TIP3   OH244334   2.793   5.644   3.172  0.2418  0.6660  0.0079
 7640TIP3    H144335   2.732   5.711   3.199  1.0745  2.7451 -2.9754
 7640TIP3    H244336   2.866   5.651   3.234 -0.4624  1.3065  0.7714
 7641TIP3   OH244337   3.730   5.002   3.091  0.2952 -0.1379  0.1415
 7641TIP3    H144338   3.678   4.998   3.171 -0.8884  0.7663 -0.5488
 7641TIP3    H244339   3.780   5.084   3.099  1.2597 -0.7687  0.5935
 7642TIP3   OH244340   2.561   5.928   1.673  0.2352  0.1063  0.3578
 7642TIP3    H144341   2.645   5.962   1.703  0.3084 -1.6580  2.2941
 7642TIP3    H244342   2.563   5.835   1.698 -0.5712 -0.9749 -3.3077
 7643TIP3   OH244343   2.916   1.163   2.961  0.2617 -0.2154  0.0456
 7643TIP3    H144344   2.876   1.160   3.048 -0.5995 -0.6917 -0.3609
 7643TIP3    H244345   2.963   1.080   2.953 -1.5002 -1.1449 -0.8051
 7644TIP3   OH244346   0.244   5.552   3.539 -0.4456  0.2906  0.1518
 7644TIP3    H144347   0.230   5.549   3.634 -0.8275  0.6431  0.1065
 7644TIP3    H244348   0.310   5.485   3.523 -1.3158 -0.6731  0.5029
 7645TIP3   OH244349   4.636   5.607   1.358 -0.6383 -0.2677  0.2889
 7645TIP3    H144350   4.593   5.521   1.360 -0.1200 -0.5379  0.1338
 7645TIP3    H244351   4.584   5.659   1.297 -1.9961  0.1019  1.7280
 7646TIP3   OH244352   2.351   2.714   0.440  0.1468  0.0668 -0.1580
 7646TIP3    H144353   2.429   2.660   0.445  0.1880  0.1420  0.0252
 7646TIP3    H244354   2.281   2.654   0.411  0.4625  0.2002 -1.2227
 7647TIP3   OH244355   2.061   1.657   0.395 -0.4477  0.2082 -0.1915
 7647TIP3    H144356   2.115   1.733   0.420 -0.6710  0.6793 -1.1161
 7647TIP3    H244357   1.972   1.682   0.419 -0.4605  0.0533 -0.0786
 7648TIP3   OH244358   0.485   4.137  11.338 -0.1567 -0.5370 -0.2662
 7648TIP3    H144359   0.492   4.055  11.386 -1.4500 -0.8917 -0.6534
 7648TIP3    H244360   0.566   4.143  11.288 -0.2991 -1.8759 -0.6839
 7649TIP3   OH244361   6.535   4.574   0.555  0.2707  0.8285  0.4194
 7649TIP3    H144362   6.548   4.588   0.462 -1.3793 -1.7240 -0.2496
 7649TIP3    H244363   6.504   4.658   0.589 -1.8333  1.0214 -1.8637
 7650TIP3   OH244364   1.128   1.679   0.516 -0.1000  0.1374 -0.5006
 7650TIP3    H144365   1.057   1.735   0.546 -0.5650 -0.9778  0.5551
 7650TIP3    H244366   1.138   1.700   0.423 -2.4006 -0.2888 -0.8833
 7651TIP3   OH244367   6.224   1.047   4.281 -0.3518  0.0301  0.1740
 7651TIP3    H144368   6.155   1.072   4.219 -0.0064 -1.5136 -0.8538
 7651TIP3    H244369   6.191   0.966   4.320  1.0910 -0.9790 -0.6770
 7652TIP3   OH244370   6.652   1.641   2.354  0.7141 -0.4741  0.1676
 7652TIP3    H144371   6.742   1.646   2.388 -0.1928 -2.1011  3.0098
 7652TIP3    H244372   6.610   1.722   2.385  1.1893  0.3065 -1.1972
 7653TIP3   OH244373   4.703   2.135  15.230  0.0453  0.1061  0.2374
 7653TIP3    H144374   4.618   2.142  15.186  0.0423  3.1352  0.6451
 7653TIP3    H244375   4.767   2.151  15.160  0.2816 -1.2977  0.1115
 7654TIP3   OH244376   6.306   5.334   5.661 -0.0356  0.7265  0.2538
 7654TIP3    H144377   6.361   5.259   5.640 -1.3797 -0.1598 -0.1453
 7654TIP3    H244378   6.267   5.360   5.578 -0.4542  1.1620  0.5805
 7655TIP3   OH244379   5.862   5.144  12.032  0.3700 -0.1257  0.3533
 7655TIP3    H144380   5.832   5.131  12.122  1.2316 -0.6549  0.5724
 7655TIP3    H244381   5.785   5.175  11.985 -0.4724 -1.2703  0.9445
 7656TIP3   OH244382   2.642   6.764  13.663  0.2768 -0.5873 -0.0701
 7656TIP3    H144383   2.644   6.842  13.608 -2.0082 -0.4476 -0.0216
 7656TIP3    H244384   2.599   6.698  13.610  0.5719 -1.2794  0.5397
 7657TIP3   OH244385   0.420   3.581  16.263  0.1406  0.0863 -0.9822
 7657TIP3    H144386   0.386   3.506  16.214 -0.8788  1.0529 -1.7906
 7657TIP3    H244387   0.453   3.544  16.344 -1.4891 -1.0832 -0.8267
 7658TIP3   OH244388   3.927   2.957   2.831  0.2302  0.5099  0.5059
 7658TIP3    H144389   3.879   2.989   2.907  0.6988  0.5678  0.7739
 7658TIP3    H244390   3.887   3.003   2.757  0.6941  1.4957  0.8620
 7659TIP3   OH244391   1.063   1.462  15.227  0.0742 -0.3294 -0.7598
 7659TIP3    H144392   1.103   1.394  15.173 -0.3099 -0.2950 -1.0969
 7659TIP3    H244393   0.975   1.472  15.191  0.1988  0.4987 -0.8586
 7660TIP3   OH244394   1.969   4.710   3.733 -0.2181 -0.3471  0.1997
 7660TIP3    H144395   1.942   4.789   3.779 -0.6262  0.1372 -0.8506
 7660TIP3    H244396   1.886   4.665   3.713 -0.1255  0.0734 -1.1531
 7661TIP3   OH244397   4.033   0.819   2.055  0.4065 -0.8751  0.8568
 7661TIP3    H144398   4.074   0.734   2.072  0.2981 -0.9029  0.9814
 7661TIP3    H244399   4.063   0.844   1.968  3.0797  0.4644  2.0966
 7662TIP3   OH244400   6.249   3.562  14.342 -0.3727 -0.1342  0.0908
 7662TIP3    H144401   6.257   3.646  14.386 -2.3622 -0.0244  0.2797
 7662TIP3    H244402   6.315   3.506  14.384 -0.6104  0.6635  1.5326
 7663TIP3   OH244403   5.991   1.031  16.074 -0.0871  0.2638  0.4507
 7663TIP3    H144404   5.909   1.014  16.028  1.0910 -0.7341 -1.3190
 7663TIP3    H244405   6.050   1.064  16.006  1.4355 -0.4567  1.4035
 7664TIP3   OH244406   4.261   0.092   4.253  0.0466  0.3701 -0.7499
 7664TIP3    H144407   4.255   0.074   4.347 -0.8021 -0.0052 -0.8726
 7664TIP3    H244408   4.222   0.179   4.243 -3.3638 -1.1231 -1.2377
 7665TIP3   OH244409   6.721   6.020   4.499  0.3938 -0.2301  0.4563
 7665TIP3    H144410   6.668   5.950   4.539  0.1882  0.6442  1.7536
 7665TIP3    H244411   6.671   6.046   4.422  0.9395 -2.1576 -0.5732
 7666TIP3   OH244412   5.966   4.777   3.485 -0.6892 -0.4009  1.0462
 7666TIP3    H144413   5.922   4.743   3.406  0.1494 -2.0633  1.2633
 7666TIP3    H244414   5.894   4.799   3.545 -1.2913 -0.8242  0.4948
 7667TIP3   OH244415   3.507   0.507   4.557 -0.3391 -0.2230  0.6037
 7667TIP3    H144416   3.472   0.588   4.593  1.1389  0.3092  0.8758
 7667TIP3    H244417   3.440   0.441   4.577 -1.1701  0.7672  1.1230
 7668TIP3   OH244418   4.276   3.607   4.870  0.1509  0.3259  0.2321
 7668TIP3    H144419   4.181   3.613   4.860  0.1631 -0.0963 -0.1210
 7668TIP3    H244420   4.301   3.531   4.818  0.6290  0.1832  0.6692
 7669TIP3   OH244421   5.839   1.115   0.238  0.9563  0.2140 -0.0689
 7669TIP3    H144422   5.800   1.061   0.307 -1.4179  1.8128 -0.0963
 7669TIP3    H244423   5.902   1.058   0.195 -1.0085 -2.3290  0.3247
 7670TIP3   OH244424   2.347   1.099  16.589 -0.1236  0.5083 -0.0465
 7670TIP3    H144425   2.429   1.083  16.634 -0.1271 -0.4244 -0.3436
 7670TIP3    H244426   2.303   1.167  16.640 -0.2851 -0.7621  1.5385
 7671TIP3   OH244427   4.620   3.870   5.436 -0.1509  0.0485 -0.1529
 7671TIP3    H144428   4.562   3.911   5.372  1.9588  1.8370 -0.9824
 7671TIP3    H244429   4.708   3.893   5.406  0.9767 -2.2799  1.2913
 7672TIP3   OH244430   2.102   0.150   1.704  0.1979  0.2992  0.6937
 7672TIP3    H144431   2.024   0.158   1.759 -0.4159 -0.1386 -0.1186
 7672TIP3    H244432   2.071   0.162   1.615  1.1717  0.8377  0.4159
 7673TIP3   OH244433   4.704   1.375   0.596  0.0750 -0.4901 -0.6263
 7673TIP3    H144434   4.684   1.300   0.652  0.1116 -0.0192  0.0177
 7673TIP3    H244435   4.634   1.438   0.614  0.7996  0.1880 -0.1504
 7674TIP3   OH244436   2.606   3.455  15.047 -0.5258 -0.1639 -0.0405
 7674TIP3    H144437   2.570   3.544  15.055  0.7806  0.3708  0.0579
 7674TIP3    H244438   2.617   3.426  15.137 -0.0298 -0.0357 -0.0572
 7675TIP3   OH244439   0.479   0.614  16.063 -0.4107 -0.7102  0.4124
 7675TIP3    H144440   0.465   0.521  16.045 -1.5876 -0.2604 -1.1393
 7675TIP3    H244441   0.545   0.640  15.998 -0.2686 -0.4106  0.6792
 7676TIP3   OH244442   2.163   4.678   1.576 -0.8814  0.4163  0.2294
 7676TIP3    H144443   2.230   4.643   1.517 -1.2371  0.1852 -0.0387
 7676TIP3    H244444   2.208   4.747   1.624 -0.4795  0.3421 -0.0336
 7677TIP3   OH244445   5.440   4.424  15.208 -0.0799  0.5015 -0.8025
 7677TIP3    H144446   5.462   4.476  15.131  0.7653  2.0417  0.4303
 7677TIP3    H244447   5.501   4.455  15.275 -0.9990 -0.5920  0.5571
 7678TIP3   OH244448   1.699   5.127  14.678  0.4895  0.1818 -0.0469
 7678TIP3    H144449   1.747   5.106  14.758  0.1251  3.7753  1.2307
 7678TIP3    H244450   1.613   5.156  14.708  0.7816  2.8500 -1.5334
 7679TIP3   OH244451   2.600   2.562   4.858  0.2358 -0.5245  0.1393
 7679TIP3    H144452   2.612   2.475   4.895 -0.8414 -0.8193 -0.1712
 7679TIP3    H244453   2.672   2.614   4.893  0.8992 -1.5501  0.3025
 7680TIP3   OH244454   1.975   2.233   4.608 -0.4492 -0.0402  0.1323
 7680TIP3    H144455   1.999   2.316   4.650 -0.5749  0.9734 -1.7459
 7680TIP3    H244456   1.894   2.252   4.562 -0.5686 -1.2572 -0.1712
 7681TIP3   OH244457   5.223   2.302  16.881 -0.5000 -0.4496 -0.5166
 7681TIP3    H144458   5.168   2.229  16.854 -0.4553 -0.5318 -0.3812
 7681TIP3    H244459   5.199   2.373  16.822 -1.3762 -0.2185  0.1112
 7682TIP3   OH244460   2.125   2.718  15.792  0.4272  0.4214 -0.4771
 7682TIP3    H144461   2.189   2.710  15.862  2.1137 -0.2656 -2.0708
 7682TIP3    H244462   2.103   2.628  15.769 -0.6218  0.6476 -0.4028
 7683TIP3   OH244463   0.345   0.499  12.085  0.4607 -0.2047  0.1408
 7683TIP3    H144464   0.369   0.437  12.016  1.1373 -0.0454  0.2300
 7683TIP3    H244465   0.331   0.582  12.040 -1.4990 -0.6514 -0.1183
 7684TIP3   OH244466   3.814   0.949   5.393  0.3446 -0.0013 -0.2781
 7684TIP3    H144467   3.756   1.016   5.360 -0.0397 -0.2124 -0.0309
 7684TIP3    H244468   3.892   0.997   5.423 -0.8538  0.5674  2.0078
 7685TIP3   OH244469   3.276   3.875   5.611  0.2175  0.3415  0.7219
 7685TIP3    H144470   3.341   3.807   5.599 -1.5454 -1.2082 -0.3411
 7685TIP3    H244471   3.215   3.839   5.676 -1.9145 -0.0418 -1.4090
 7686TIP3   OH244472   3.500   4.687   4.029  0.1196  0.0771  0.5622
 7686TIP3    H144473   3.470   4.651   3.945  0.0415 -0.5338  0.8540
 7686TIP3    H244474   3.586   4.724   4.009  0.2929 -0.4611  0.3111
 7687TIP3   OH244475   4.590   5.043   1.330  0.1666 -0.1694 -0.2976
 7687TIP3    H144476   4.680   5.010   1.319  0.3580  0.8251 -1.7743
 7687TIP3    H244477   4.546   5.020   1.248 -0.9810 -0.7391  0.4568
 7688TIP3   OH244478   0.195   2.859   0.642  0.2674 -0.5494  0.1907
 7688TIP3    H144479   0.217   2.855   0.549  0.3326 -1.5281  0.2479
 7688TIP3    H244480   0.280   2.862   0.687  0.2595 -1.5475  0.2823
 7689TIP3   OH244481   5.994   4.594   5.486  0.0274 -0.2326 -0.2658
 7689TIP3    H144482   5.900   4.580   5.474 -0.2444  0.3937  1.0013
 7689TIP3    H244483   6.019   4.649   5.412 -0.7786  0.2396 -0.2043
 7690TIP3   OH244484   4.753   0.455  12.977 -0.0680  0.3891 -0.5573
 7690TIP3    H144485   4.695   0.530  12.993 -1.4160 -0.8138  0.2668
 7690TIP3    H244486   4.707   0.402  12.912  1.9818  1.4408 -2.9727
 7691TIP3   OH244487   6.452   5.234   2.427 -0.3666 -0.1056  0.1247
 7691TIP3    H144488   6.529   5.284   2.455 -0.5877  0.2681  0.0666
 7691TIP3    H244489   6.429   5.271   2.342  1.0466 -2.0583 -1.1621
 7692TIP3   OH244490   3.240   5.602   5.292  0.1977 -0.8376 -0.2005
 7692TIP3    H144491   3.281   5.679   5.333 -1.2150  0.1384 -0.5749
 7692TIP3    H244492   3.256   5.531   5.354  2.5760 -0.5212 -0.4114
 7693TIP3   OH244493   6.347   6.418  13.257  0.6908 -0.0626 -0.2034
 7693TIP3    H144494   6.264   6.373  13.248  1.0084 -0.6150 -0.3948
 7693TIP3    H244495   6.412   6.357  13.222  0.9659  1.0928 -1.8018
 7694TIP3   OH244496   6.527   4.277   0.420  0.0412  0.4627 -0.0247
 7694TIP3    H144497   6.548   4.184   0.409  1.1489  0.7875 -0.6523
 7694TIP3    H244498   6.527   4.291   0.514  0.0137 -0.1425  0.0653
 7695TIP3   OH244499   5.437   5.256  13.762 -0.1896 -0.2578 -0.0018
 7695TIP3    H144500   5.521   5.273  13.720 -0.5436  0.1542 -0.5558
 7695TIP3    H244501   5.451   5.280  13.854  0.6021 -1.2011  0.1327
 7696TIP3   OH244502   0.202   0.906   5.326 -0.0878  0.0359 -0.0926
 7696TIP3    H144503   0.223   0.888   5.234  0.3550 -0.9618  0.1911
 7696TIP3    H244504   0.120   0.858   5.341 -0.5065  0.7313 -0.1397
 7697TIP3   OH244505   4.903   1.713   2.162  0.2372  0.0967  0.4967
 7697TIP3    H144506   4.848   1.658   2.107  0.5928 -0.0047  0.2371
 7697TIP3    H244507   4.923   1.659   2.238  0.4388 -0.0743  0.3257
 7698TIP3   OH244508   1.696   5.966   2.185 -0.0733  0.2531  0.8838
 7698TIP3    H144509   1.783   5.928   2.192  0.1497  0.7515  0.8220
 7698TIP3    H244510   1.706   6.039   2.124 -0.5609  0.2256  0.7683
 7699TIP3   OH244511   6.089   1.017   5.485 -0.0607 -0.2359  0.0539
 7699TIP3    H144512   6.130   1.097   5.520 -1.7105 -0.2242  2.0756
 7699TIP3    H244513   6.114   1.016   5.393  2.3222  1.1287  0.6310
 7700TIP3   OH244514   1.138   3.288   5.575  0.1749  0.9218 -0.2242
 7700TIP3    H144515   1.069   3.311   5.513  0.6367  2.4047 -0.2222
 7700TIP3    H244516   1.093   3.268   5.656 -0.4066 -0.5515 -0.8932
 7701TIP3   OH244517   0.387   0.568   5.337  0.8076  0.4724 -0.1538
 7701TIP3    H144518   0.384   0.604   5.426  1.2947  2.8046 -1.0293
 7701TIP3    H244519   0.298   0.538   5.320  0.7657 -0.2186  1.2015
 7702TIP3   OH244520   2.111   0.926   3.364  0.5539 -0.2147  0.0968
 7702TIP3    H144521   2.158   0.856   3.318  1.7148  1.0618 -0.6922
 7702TIP3    H244522   2.069   0.977   3.295  1.3989  1.0672  0.4985
 7703TIP3   OH244523   3.976   5.868   6.429 -0.6630 -0.3776 -0.3991
 7703TIP3    H144524   3.943   5.950   6.466 -1.5487 -1.0516  0.3280
 7703TIP3    H244525   3.919   5.800   6.466  0.5174 -1.3982 -0.4164
 7704TIP3   OH244526   1.800   1.940  16.459 -0.3107 -0.1365 -0.1993
 7704TIP3    H144527   1.729   1.877  16.474 -0.0823 -0.0595  1.1905
 7704TIP3    H244528   1.880   1.891  16.479 -0.1515  0.6757  1.1708
 7705TIP3   OH244529   1.942   2.909  15.745 -0.4615  0.7121 -0.2435
 7705TIP3    H144530   2.016   2.848  15.742 -0.3592  0.5218  4.0102
 7705TIP3    H244531   1.865   2.852  15.744 -0.4155  0.6148  0.9493
 7706TIP3   OH244532   1.404   4.617   3.424  0.1562  0.3157  0.0445
 7706TIP3    H144533   1.481   4.609   3.367 -0.5719  2.5654 -1.3116
 7706TIP3    H244534   1.382   4.710   3.421 -2.4165 -0.2404  0.6995
 7707TIP3   OH244535   1.030   3.115   0.986 -0.1936  0.3667 -0.1167
 7707TIP3    H144536   0.947   3.110   1.033 -0.4197  2.9293 -0.1989
 7707TIP3    H244537   1.096   3.083   1.048 -0.8166  1.3040  1.0249
 7708TIP3   OH244538   2.025   1.940  11.784 -0.9891  0.1997  0.3775
 7708TIP3    H144539   2.001   2.025  11.820 -1.4391  0.7317 -1.1715
 7708TIP3    H244540   2.121   1.938  11.788 -0.9426  1.0923 -0.2982
 7709TIP3   OH244541   2.995   1.125   5.198  0.3239 -0.3359  0.4526
 7709TIP3    H144542   3.017   1.062   5.129 -1.0669 -2.0000  1.4863
 7709TIP3    H244543   3.078   1.139   5.245  1.2106  0.5911 -1.3586
 7710TIP3   OH244544   0.944   4.249   3.042 -0.2050 -0.7728  0.8566
 7710TIP3    H144545   0.972   4.320   2.985 -1.4603  0.1559  1.3918
 7710TIP3    H244546   1.016   4.185   3.037 -0.3429 -0.7922 -1.8621
 7711TIP3   OH244547   4.901   4.322   0.336  0.1219  0.4609  0.1687
 7711TIP3    H144548   4.826   4.347   0.390 -0.4629 -1.1921  0.1324
 7711TIP3    H244549   4.933   4.241   0.375  0.2921 -0.2292 -1.3668
 7712TIP3   OH244550   4.668   4.914   1.040 -0.4577 -0.5156 -0.7057
 7712TIP3    H144551   4.697   4.824   1.055 -1.1702 -0.7276 -0.6084
 7712TIP3    H244552   4.744   4.957   1.000  0.4069 -0.7630  0.6179
 7713TIP3   OH244553   5.673   6.008   5.008 -0.2402 -0.1811 -0.2783
 7713TIP3    H144554   5.767   6.006   4.987  0.2487 -0.1531  1.8351
 7713TIP3    H244555   5.647   6.098   4.989  0.2544 -0.0773 -0.4931
 7714TIP3   OH244556   3.882   1.622   4.248 -0.7594 -0.2041 -0.3771
 7714TIP3    H144557   3.959   1.672   4.274 -1.3282  0.2762  0.3931
 7714TIP3    H244558   3.853   1.579   4.328 -1.0556 -0.7188 -0.7546
 7715TIP3   OH244559   3.661   3.766   2.474 -0.4882  0.5181  0.3599
 7715TIP3    H144560   3.611   3.792   2.397  0.3787  0.8535 -0.1034
 7715TIP3    H244561   3.616   3.688   2.507  1.3018 -1.9325 -2.7186
 7716TIP3   OH244562   6.286   4.158  13.533  0.3260  0.0640  0.1489
 7716TIP3    H144563   6.361   4.160  13.592  1.0477 -0.5194 -0.7269
 7716TIP3    H244564   6.243   4.074  13.551 -0.1858  0.4422  0.7236
 7717TIP3   OH244565   3.607   3.171   1.497  0.5933  0.0966 -0.0499
 7717TIP3    H144566   3.618   3.245   1.437  0.2020  1.2947  1.3381
 7717TIP3    H244567   3.564   3.104   1.444 -0.4661  1.4256 -0.9061
 7718TIP3   OH244568   6.753   4.779   1.918  0.2390  0.9211 -0.5752
 7718TIP3    H144569   6.800   4.859   1.894  1.4566  0.3052 -0.2713
 7718TIP3    H244570   6.814   4.731   1.975 -0.8565  0.2365  0.0399
 7719TIP3   OH244571   4.354   1.791   1.258  0.2416  0.2137  0.2658
 7719TIP3    H144572   4.403   1.848   1.199 -0.9597  1.3255  0.3287
 7719TIP3    H244573   4.297   1.850   1.307  1.2074 -0.6878  2.5548
 7720TIP3   OH244574   0.536   2.989  10.407  0.2218 -0.0882 -0.1978
 7720TIP3    H144575   0.610   3.043  10.380 -0.2820  0.9711  0.4853
 7720TIP3    H244576   0.459   3.037  10.376 -0.1711 -1.2328 -0.9974
 7721TIP3   OH244577   4.684   5.328   4.999  0.3791  0.3728 -0.3653
 7721TIP3    H144578   4.693   5.245   4.952  1.1526  0.5118 -0.4562
 7721TIP3    H244579   4.709   5.395   4.936 -0.1536  0.6762 -0.2631
 7722TIP3   OH244580   4.756   0.262  11.410  0.0573 -0.2094 -0.4832
 7722TIP3    H144581   4.788   0.225  11.328 -0.3391 -1.9327  0.1040
 7722TIP3    H244582   4.661   0.269  11.399  0.0736  0.1514 -0.4067
 7723TIP3   OH244583   1.735   6.538  14.356  0.2109  0.1359  0.1107
 7723TIP3    H144584   1.764   6.592  14.429 -0.0878  0.4810 -0.0245
 7723TIP3    H244585   1.796   6.560  14.285  1.7830 -1.6958  0.8417
 7724TIP3   OH244586   2.586   6.704  15.107  0.0212 -0.0592 -0.0431
 7724TIP3    H144587   2.644   6.684  15.181  1.0117 -1.5853 -1.1923
 7724TIP3    H244588   2.638   6.760  15.050 -0.5957  0.7865  0.2291
 7725TIP3   OH244589   0.912   1.999   5.384  0.3796  0.6193  0.4577
 7725TIP3    H144590   0.843   2.063   5.368 -2.0452 -1.5221  1.8067
 7725TIP3    H244591   0.947   2.022   5.470  0.5490  1.0429  0.2730
 7726TIP3   OH244592   6.279   0.743   6.454 -0.1578 -0.2051 -0.0774
 7726TIP3    H144593   6.216   0.673   6.437 -0.7589  0.3800 -0.2925
 7726TIP3    H244594   6.363   0.699   6.465 -0.2880 -0.8292 -1.5804
 7727TIP3   OH244595   2.898   2.946  12.538  0.0849  0.0792  0.1978
 7727TIP3    H144596   2.957   2.992  12.478  0.4923  1.1471  1.3974
 7727TIP3    H244597   2.884   2.861  12.497  1.7122  0.1697 -0.5861
 7728TIP3   OH244598   4.645   4.543  14.751 -0.2214 -0.1946 -0.3229
 7728TIP3    H144599   4.616   4.502  14.670  1.6590  0.0818 -1.1647
 7728TIP3    H244600   4.659   4.635  14.728  1.1680 -0.2958  0.0954
 7729TIP3   OH244601   1.920   0.607  13.784  0.1729 -0.1021  0.2691
 7729TIP3    H144602   1.965   0.566  13.858  0.4090  2.4427  1.5857
 7729TIP3    H244603   1.987   0.660  13.742  0.2871 -2.2633 -2.4164
 7730TIP3   OH244604   3.080   5.466  12.455 -0.0724  0.0908 -0.1685
 7730TIP3    H144605   3.096   5.535  12.390 -1.3463 -0.5106 -1.1374
 7730TIP3    H244606   3.025   5.508  12.521 -0.0077  0.2763 -0.2312
 7731TIP3   OH244607   6.163   6.546  12.963  0.7242  0.6556  0.1445
 7731TIP3    H144608   6.156   6.569  12.871  2.6005 -0.5780 -0.3313
 7731TIP3    H244609   6.253   6.515  12.974  0.5699  0.8610  2.4060
 7732TIP3   OH244610   0.394   6.337   4.083 -0.4626  0.4468 -0.1160
 7732TIP3    H144611   0.387   6.331   4.178 -1.3099  2.0076 -0.0770
 7732TIP3    H244612   0.362   6.425   4.061 -3.1830 -0.9688 -2.1341
 7733TIP3   OH244613   2.297   0.092  16.511 -0.2049 -0.5408 -0.4248
 7733TIP3    H144614   2.261   0.005  16.525 -1.2569 -0.2052 -1.0082
 7733TIP3    H244615   2.313   0.097  16.416 -2.0480  0.6088 -0.7100
 7734TIP3   OH244616   3.122   6.458   0.422  0.4229 -0.1594  0.1774
 7734TIP3    H144617   3.044   6.484   0.471  0.6875 -0.3800  0.7216
 7734TIP3    H244618   3.089   6.433   0.336 -0.3232 -1.8618  0.9199
 7735TIP3   OH244619   4.887   6.328   2.432  0.1789 -1.1967 -0.0085
 7735TIP3    H144620   4.831   6.252   2.412 -0.8957 -1.1667  2.6872
 7735TIP3    H244621   4.932   6.303   2.513  1.3551  0.2589 -0.2028
 7736TIP3   OH244622   1.987   5.402  12.065  0.4717  0.2550  0.2350
 7736TIP3    H144623   2.046   5.327  12.062 -0.3026 -0.3347 -0.4850
 7736TIP3    H244624   1.899   5.364  12.061  0.0512  1.1584  0.6208
 7737TIP3   OH244625   1.292   1.363  14.009 -0.6025 -0.0679  0.5774
 7737TIP3    H144626   1.273   1.289  13.951  0.2875 -0.3426  0.6292
 7737TIP3    H244627   1.244   1.437  13.971  0.8338  0.0108 -1.1273
 7738TIP3   OH244628   4.704   6.390   3.820  0.0539 -0.5602  0.1718
 7738TIP3    H144629   4.774   6.377   3.884 -2.0652  0.5413  2.8086
 7738TIP3    H244630   4.704   6.484   3.803 -1.2752 -0.4396  0.7872
 7739TIP3   OH244631   5.633   4.601   3.140  0.1572  0.0261  0.1862
 7739TIP3    H144632   5.562   4.600   3.204  1.8185  1.6223  2.1388
 7739TIP3    H244633   5.628   4.688   3.100  1.1985  0.2717  0.5777
 7740TIP3   OH244634   3.436   2.779  13.105 -0.3291 -0.3911  0.3162
 7740TIP3    H144635   3.376   2.760  13.033 -0.3762 -4.5100  1.3089
 7740TIP3    H244636   3.381   2.822  13.171 -0.6405  1.8915 -1.3605
 7741TIP3   OH244637   6.205   5.402   4.400 -0.2401 -0.0506  0.0822
 7741TIP3    H144638   6.221   5.433   4.489  0.4979 -0.7101  0.1726
 7741TIP3    H244639   6.254   5.321   4.393  0.2745  0.3572 -1.1578
 7742TIP3   OH244640   6.640   4.949   6.763 -0.3200 -0.0496  0.1167
 7742TIP3    H144641   6.704   4.895   6.717  0.2427 -1.1488  2.1329
 7742TIP3    H244642   6.565   4.953   6.703  0.3553 -1.4725 -0.8634
 7743TIP3   OH244643   3.019   5.062   3.583 -0.3821 -0.0556  0.0013
 7743TIP3    H144644   3.098   5.115   3.591 -0.7372  0.4428  0.2102
 7743TIP3    H244645   3.008   5.050   3.488  1.0216 -1.7708  0.0134
 7744TIP3   OH244646   0.791   3.017  11.738 -0.4962  0.5766 -0.0484
 7744TIP3    H144647   0.778   3.069  11.658 -1.2625 -1.0330 -0.9944
 7744TIP3    H244648   0.852   2.948  11.712 -0.2013  0.4546  0.9517
 7745TIP3   OH244649   5.172   1.346  16.069 -0.1636  0.0708  1.1208
 7745TIP3    H144650   5.101   1.407  16.088 -0.2933  0.5373 -0.7443
 7745TIP3    H244651   5.132   1.277  16.015  0.7711  0.3343  0.0488
 7746TIP3   OH244652   4.190   1.662  13.696 -0.3356 -0.4918 -0.0764
 7746TIP3    H144653   4.185   1.623  13.609 -0.0312 -0.4123 -0.1309
 7746TIP3    H244654   4.150   1.749  13.686  2.7620  0.9049 -0.9568
 7747TIP3   OH244655   2.529   1.236   6.257  0.2571 -0.0960  0.0603
 7747TIP3    H144656   2.548   1.215   6.349 -1.6139 -0.9346  0.2919
 7747TIP3    H244657   2.490   1.323   6.259  0.1818 -0.1297  0.0755
 7748TIP3   OH244658   0.029   5.192   2.023 -0.3680 -0.0444  0.7055
 7748TIP3    H144659  -0.003   5.258   1.963 -1.0116 -0.7468  0.2636
 7748TIP3    H244660  -0.049   5.158   2.066 -0.2404 -1.6917 -0.3014
 7749TIP3   OH244661   4.064   2.871  16.743 -0.4432 -0.1284 -0.2078
 7749TIP3    H144662   4.075   2.936  16.674 -2.0733 -0.2319 -0.5996
 7749TIP3    H244663   4.098   2.790  16.704 -2.3593 -0.4302 -1.3377
 7750TIP3   OH244664   0.024   3.793   2.448  0.4948 -0.2619 -0.3110
 7750TIP3    H144665   0.025   3.768   2.540  0.0089  2.1168  0.3718
 7750TIP3    H244666   0.090   3.861   2.440 -0.2276  0.3361 -1.4740
 7751TIP3   OH244667   6.102   3.479   1.975  0.3058 -0.5110  0.3648
 7751TIP3    H144668   6.117   3.568   2.008 -1.3173 -0.0985  0.0179
 7751TIP3    H244669   6.084   3.491   1.882  1.2642 -1.3362  0.0554
 7752TIP3   OH244670   4.648   0.296  11.085  0.0890  0.0496  0.0204
 7752TIP3    H144671   4.700   0.216  11.078 -0.0411  0.2392 -4.1146
 7752TIP3    H244672   4.557   0.267  11.080  0.0290  0.3711 -0.9034
 7753TIP3   OH244673   2.870   2.707   6.165 -0.1028 -0.0331 -0.3014
 7753TIP3    H144674   2.886   2.669   6.251  1.0059  2.2043  0.5340
 7753TIP3    H244675   2.937   2.668   6.108 -0.3027 -0.8803  0.0415
 7754TIP3   OH244676   0.499   3.313   3.474  0.0046  0.1833  0.7428
 7754TIP3    H144677   0.434   3.308   3.544 -2.2564  3.4446 -0.9586
 7754TIP3    H244678   0.461   3.263   3.402 -0.3266  1.4409  0.0130
 7755TIP3   OH244679   4.338   6.541   5.574  0.1669 -0.1285  0.6284
 7755TIP3    H144680   4.247   6.521   5.550  0.9511 -2.4785 -0.4787
 7755TIP3    H244681   4.385   6.459   5.562  2.5700  1.2012  0.6665
 7756TIP3   OH244682   6.227   3.103   0.373  0.2631 -0.1435  0.0053
 7756TIP3    H144683   6.199   3.114   0.464  0.0923 -0.0808 -0.0561
 7756TIP3    H244684   6.146   3.107   0.322  0.2000 -1.5697 -0.0262
 7757TIP3   OH244685   1.370   0.798   0.605 -0.3896 -0.0394  0.5476
 7757TIP3    H144686   1.292   0.853   0.614  0.1543  0.6244  1.3242
 7757TIP3    H244687   1.336   0.710   0.595 -1.3642  0.6967 -3.2668
 7758TIP3   OH244688   1.607   0.567  12.136  0.3471  0.4021 -0.3645
 7758TIP3    H144689   1.589   0.476  12.159 -1.8520  1.0597  0.6540
 7758TIP3    H244690   1.698   0.581  12.161  1.3986 -2.1177 -2.5380
 7759TIP3   OH244691   3.756   2.100   5.377 -0.0913  0.4273  0.1876
 7759TIP3    H144692   3.700   2.151   5.436 -0.0826 -1.1743  1.6269
 7759TIP3    H244693   3.723   2.120   5.289 -0.4407  2.4478  0.7589
 7760TIP3   OH244694   1.007   6.586   0.146 -0.4104  0.4388 -0.4459
 7760TIP3    H144695   0.948   6.535   0.091  0.3980 -1.2770  0.2391
 7760TIP3    H244696   1.003   6.543   0.232 -0.6392  2.2629  0.4880
 7761TIP3   OH244697   5.371   5.918  16.877  0.0528 -0.3271  0.1802
 7761TIP3    H144698   5.311   5.891  16.807  2.4848 -0.4089 -1.9374
 7761TIP3    H244699   5.366   5.848  16.941  0.0978 -1.7776 -1.3751
 7762TIP3   OH244700   1.238   6.737  12.384  0.1361 -0.4714 -0.0276
 7762TIP3    H144701   1.176   6.798  12.343 -1.3016 -1.0759  1.2146
 7762TIP3    H244702   1.203   6.651  12.363 -0.7670 -0.7975  2.6351
 7763TIP3   OH244703   1.613   2.399   0.424 -0.3126  0.2398 -0.0280
 7763TIP3    H144704   1.620   2.326   0.362  1.9930 -0.0986  0.6193
 7763TIP3    H244705   1.572   2.361   0.501  0.4313 -0.2664  0.1214
 7764TIP3   OH244706   2.720   5.915   5.152  0.3733  0.4513 -0.3811
 7764TIP3    H144707   2.707   5.825   5.180  2.5239  0.2783  0.1459
 7764TIP3    H244708   2.773   5.909   5.072  0.3758  1.2327 -0.4470
 7765TIP3   OH244709   5.800   2.698   3.260  0.0527 -0.2969 -0.6194
 7765TIP3    H144710   5.823   2.679   3.169 -0.2506 -1.0698 -0.5401
 7765TIP3    H244711   5.817   2.792   3.270 -0.3384 -0.1132 -1.5981
 7766TIP3   OH244712   0.932   2.512  15.174 -0.1743 -0.4761 -0.0375
 7766TIP3    H144713   0.943   2.586  15.114 -0.9255 -1.3001 -1.2023
 7766TIP3    H244714   0.845   2.478  15.154  0.9517 -2.9206 -0.8857
 7767TIP3   OH244715   3.948   2.703  13.122 -0.1439 -0.1498  0.1530
 7767TIP3    H144716   3.860   2.692  13.087 -0.0209 -0.2047 -0.1388
 7767TIP3    H244717   3.986   2.774  13.070  0.0511 -0.2559  0.1480
 7768TIP3   OH244718   5.994   1.008  12.342 -0.0521 -0.0472  0.3277
 7768TIP3    H144719   5.948   0.938  12.297 -2.4167  0.5220  1.7740
 7768TIP3    H244720   5.924   1.063  12.379  1.7688  1.0383  2.2829
 7769TIP3   OH244721   6.434   5.161   6.050 -0.1622  0.0476  0.6729
 7769TIP3    H144722   6.375   5.211   6.106 -0.3401 -0.5607  1.0320
 7769TIP3    H244723   6.474   5.096   6.108 -0.7377 -0.9293 -0.0103
 7770TIP3   OH244724   1.296   4.013  16.823 -0.7995 -0.2585 -0.4662
 7770TIP3    H144725   1.343   3.963  16.756  0.8928 -0.0802  0.5574
 7770TIP3    H244726   1.251   3.947  16.875 -2.0726 -0.4017 -1.7253
 7771TIP3   OH244727   2.055   2.719  13.902 -0.4220 -0.2050 -0.1763
 7771TIP3    H144728   2.142   2.713  13.861 -0.0616  1.1241  0.3652
 7771TIP3    H244729   2.051   2.643  13.961  0.8500  0.3756  0.6870
 7772TIP3   OH244730   4.265   3.411   2.621  0.9081  0.5262  0.1172
 7772TIP3    H144731   4.280   3.330   2.669 -1.2599  0.6179  1.0075
 7772TIP3    H244732   4.275   3.481   2.686 -0.3965  0.7569  0.0854
 7773TIP3   OH244733   5.539   4.990  13.167  0.3067 -0.0354 -0.0050
 7773TIP3    H144734   5.502   5.020  13.084  3.0877 -1.7073 -1.9131
 7773TIP3    H244735   5.629   5.020  13.165  1.2567 -2.6672  1.0459
 7774TIP3   OH244736   4.607   6.668  11.131 -0.3700  0.1017  0.0163
 7774TIP3    H144737   4.602   6.631  11.043 -0.9406  0.1255  0.0394
 7774TIP3    H244738   4.516   6.684  11.156 -0.2184 -0.0216  0.6594
 7775TIP3   OH244739   4.025   1.089  12.122  0.0800 -0.0806  0.1725
 7775TIP3    H144740   4.065   1.114  12.039 -1.2665 -1.3418 -0.8797
 7775TIP3    H244741   3.995   0.999  12.109 -0.0869 -0.3253  2.0461
 7776TIP3   OH244742   2.395   6.757   2.761  0.0613 -0.0337 -0.2200
 7776TIP3    H144743   2.467   6.696   2.779  0.4445  0.7025  0.7659
 7776TIP3    H244744   2.420   6.799   2.678  1.9837  1.9551  1.2977
 7777TIP3   OH244745   0.650   2.391   1.668  0.2628 -0.0515 -0.0133
 7777TIP3    H144746   0.594   2.417   1.595 -0.5484  2.1270  1.3106
 7777TIP3    H244747   0.605   2.315   1.706  1.7296 -2.4480 -2.8957
 7778TIP3   OH244748   4.664   1.296  13.618  0.3417  0.1067 -0.5440
 7778TIP3    H144749   4.609   1.221  13.642 -0.3562  0.6848 -0.3518
 7778TIP3    H244750   4.753   1.269  13.644 -0.1454  0.0287  1.1223
 7779TIP3   OH244751   4.573   5.236   4.041  0.0144 -0.0154  0.1876
 7779TIP3    H144752   4.496   5.283   4.008 -1.1651 -0.1554  2.6072
 7779TIP3    H244753   4.557   5.229   4.136  1.1623 -3.4343  0.1665
 7780TIP3   OH244754   1.187   2.985   4.048 -0.1776 -0.3797 -0.6858
 7780TIP3    H144755   1.160   2.996   4.139 -2.0206  0.9877 -1.3792
 7780TIP3    H244756   1.274   2.946   4.054  1.4040  3.2119  1.7634
 7781TIP3   OH244757   6.577   2.662   2.931 -0.1548 -0.4962 -0.4414
 7781TIP3    H144758   6.558   2.752   2.957  1.7405 -0.2068  0.0297
 7781TIP3    H244759   6.624   2.625   3.006  0.3369 -1.4286 -1.2000
 7782TIP3   OH244760   3.784   1.092   3.819  0.4401  0.4500  0.2091
 7782TIP3    H144761   3.798   1.028   3.889 -0.6580 -0.3080 -0.2565
 7782TIP3    H244762   3.689   1.102   3.814  0.5109  0.5270 -1.1594
 7783TIP3   OH244763   5.047   5.183  12.169  0.0999 -1.1030 -0.1239
 7783TIP3    H144764   5.021   5.259  12.117 -0.7571 -0.6225  1.0014
 7783TIP3    H244765   4.999   5.110  12.130  1.1101 -1.1146 -1.3574
 7784TIP3   OH244766   3.031   4.979  13.144 -0.0634  0.8737  0.1703
 7784TIP3    H144767   2.984   4.943  13.069  0.8103  1.3093 -0.5912
 7784TIP3    H244768   3.028   5.074  13.131  2.7221  0.8399 -0.9158
 7785TIP3   OH244769   5.377   5.875   2.630  0.2086 -0.8971  0.2115
 7785TIP3    H144770   5.377   5.784   2.661  1.4811 -0.9637  0.0485
 7785TIP3    H244771   5.391   5.868   2.536 -1.2254 -0.5849 -0.0400
 7786TIP3   OH244772   6.288   2.860   0.971  0.1118 -0.0166 -0.1693
 7786TIP3    H144773   6.271   2.850   0.877  0.9435  1.4762 -0.4974
 7786TIP3    H244774   6.340   2.784   0.994  1.3493  0.4564 -1.3074
 7787TIP3   OH244775   6.147   5.615  13.100 -0.3145  0.5308  0.0558
 7787TIP3    H144776   6.224   5.563  13.125 -0.2506 -0.4917 -2.1860
 7787TIP3    H244777   6.172   5.705  13.120  1.3385  0.1685 -0.2936
 7788TIP3   OH244778   1.494   0.450   0.231  0.1861  0.0292  0.1094
 7788TIP3    H144779   1.565   0.508   0.256  1.5237 -1.4254 -0.2500
 7788TIP3    H244780   1.469   0.479   0.143  0.5689  0.3178  0.0961
 7789TIP3   OH244781   3.708   2.418  11.924  0.4147  0.1763 -0.0650
 7789TIP3    H144782   3.703   2.351  11.855 -0.1783 -1.5487  1.6231
 7789TIP3    H244783   3.795   2.407  11.961  0.6044  0.8724 -0.3043
 7790TIP3   OH244784   0.291   2.321   3.887 -0.1891 -0.1270 -0.6009
 7790TIP3    H144785   0.202   2.355   3.880  0.0093  0.5222  0.0091
 7790TIP3    H244786   0.309   2.321   3.981  0.7762  0.5756 -0.7858
 7791TIP3   OH244787   6.576   0.689  17.020 -0.0443 -0.2591  0.0925
 7791TIP3    H144788   6.663   0.724  17.038 -0.2535  0.3234  0.0104
 7791TIP3    H244789   6.586   0.642  16.937 -0.1047  0.9723 -0.6349
 7792TIP3   OH244790   3.737   3.459  13.369  0.1557 -0.3056 -0.0774
 7792TIP3    H144791   3.702   3.381  13.326  0.0852 -0.1238 -0.3516
 7792TIP3    H244792   3.800   3.495  13.307  0.4747 -0.3586  0.2110
 7793TIP3   OH244793   3.339   6.734   5.611 -0.0136  0.0480  0.4218
 7793TIP3    H144794   3.364   6.648   5.578 -0.6081 -0.4476  1.2336
 7793TIP3    H244795   3.249   6.721   5.643 -0.6629  1.3427 -0.8418
 7794TIP3   OH244796   0.775   0.979   1.762 -0.6303  0.3820  0.1112
 7794TIP3    H144797   0.762   0.936   1.678 -0.0167 -0.4703  0.4411
 7794TIP3    H244798   0.686   0.995   1.795 -0.8664 -0.2491 -0.2147
 7795TIP3   OH244799   3.248   1.519   4.669 -0.2859 -0.6599  0.1849
 7795TIP3    H144800   3.297   1.500   4.589  1.5379  0.8710  0.9060
 7795TIP3    H244801   3.173   1.459   4.666  0.0494 -1.0096 -2.3765
 7796TIP3   OH244802   4.264   5.251  10.460 -0.5642 -0.2430  0.3430
 7796TIP3    H144803   4.212   5.255  10.540 -1.5366 -0.5518 -0.2691
 7796TIP3    H244804   4.344   5.299  10.482 -0.0197 -1.8747  2.0974
 7797TIP3   OH244805   5.812   5.934  13.244  0.1036  0.1977 -0.2025
 7797TIP3    H144806   5.872   5.950  13.316 -0.6873 -0.4786  0.6262
 7797TIP3    H244807   5.868   5.913  13.170  0.9287  1.0518  0.1772
 7798TIP3   OH244808   1.873   6.197  12.524  0.6221  0.1249  0.2660
 7798TIP3    H144809   1.851   6.245  12.445 -1.6352  1.2075  1.4871
 7798TIP3    H244810   1.852   6.105  12.503  0.0338  0.4063 -0.3980
 7799TIP3   OH244811   5.276   1.169  12.896 -0.1463  0.2034 -0.1345
 7799TIP3    H144812   5.349   1.231  12.899 -1.6181  2.0606 -1.3546
 7799TIP3    H244813   5.225   1.189  12.975 -0.5652  0.5120 -0.4754
 7800TIP3   OH244814   5.819   2.957   2.914  0.3269  0.5643  0.1430
 7800TIP3    H144815   5.871   3.006   2.851  3.2887 -1.4486  0.9259
 7800TIP3    H244816   5.751   2.914   2.862  1.5533  0.4923 -1.4190
 7801TIP3   OH244817   6.005   2.064   4.242 -0.3830 -0.3146 -0.7077
 7801TIP3    H144818   6.029   1.984   4.288  1.3280  0.3810 -0.3732
 7801TIP3    H244819   6.074   2.076   4.176  0.2861  1.7696  0.3356
 7802TIP3   OH244820   4.960   3.158   1.310 -0.2462  0.2204 -0.9849
 7802TIP3    H144821   4.990   3.230   1.366  1.0338 -2.8756  2.5274
 7802TIP3    H244822   5.038   3.132   1.262  0.0019 -0.6764 -0.1004
 7803TIP3   OH244823   1.034   3.013  11.480 -0.1355 -0.0552  0.6940
 7803TIP3    H144824   0.998   3.102  11.473  0.6339  0.2549  0.6402
 7803TIP3    H244825   1.050   2.986  11.390 -0.8668 -0.4546  0.6824
 7804TIP3   OH244826   6.278   2.930  15.972 -0.3767 -0.6405 -0.0170
 7804TIP3    H144827   6.299   2.875  16.048  0.2245  0.4528  0.6280
 7804TIP3    H244828   6.281   2.871  15.897  1.0611 -1.3318  0.5674
 7805TIP3   OH244829   0.112   5.109  12.714 -0.4857 -0.3563  0.2439
 7805TIP3    H144830   0.064   5.166  12.774 -0.4846  0.6563 -0.7216
 7805TIP3    H244831   0.189   5.081  12.764 -1.7803 -1.5918  1.6257
 7806TIP3   OH244832   1.713   5.235   5.744  0.2112  0.5002  0.0943
 7806TIP3    H144833   1.705   5.158   5.688 -2.6288  0.8778 -0.0845
 7806TIP3    H244834   1.737   5.200   5.830 -0.6133 -0.5448 -0.0976
 7807TIP3   OH244835   2.495   0.839   0.858  0.4890  0.2132 -0.0797
 7807TIP3    H144836   2.482   0.925   0.817  1.5961  0.2821 -0.3014
 7807TIP3    H244837   2.452   0.847   0.943 -3.9024 -0.6851 -2.0624
 7808TIP3   OH244838   1.183   0.441   4.550  0.0054 -0.1668 -0.2186
 7808TIP3    H144839   1.128   0.518   4.539 -0.2236 -0.1889  0.7612
 7808TIP3    H244840   1.225   0.429   4.465  0.1109  1.0881 -0.3405
 7809TIP3   OH244841   4.461   6.321   6.280 -0.1757  0.6797 -0.3298
 7809TIP3    H144842   4.460   6.232   6.243  1.1461 -0.5889  2.5320
 7809TIP3    H244843   4.370   6.339   6.302 -0.4321 -0.0164 -0.8167
 7810TIP3   OH244844   6.175   3.818   3.074 -0.1337 -0.5094 -0.6104
 7810TIP3    H144845   6.221   3.756   3.018  0.5964  0.0125 -0.6021
 7810TIP3    H244846   6.233   3.829   3.150 -0.1866  0.2861 -0.6779
 7811TIP3   OH244847   4.951   2.169  13.913  0.6436  0.1438 -0.2944
 7811TIP3    H144848   4.978   2.217  13.991  1.3595  0.0120 -0.4499
 7811TIP3    H244849   5.026   2.112  13.893 -0.4308 -1.4623  0.2287
 7812TIP3   OH244850   5.880   3.410  10.612 -0.4263 -0.2115  0.0989
 7812TIP3    H144851   5.785   3.413  10.617 -0.4595 -0.7703 -0.1098
 7812TIP3    H244852   5.899   3.341  10.548  0.1164 -0.0075  0.0313
 7813TIP3   OH244853   4.228   4.662  16.313 -0.0422  0.2685 -0.2878
 7813TIP3    H144854   4.237   4.715  16.392  0.5287 -0.8613  0.4096
 7813TIP3    H244855   4.231   4.572  16.344 -0.9460 -0.1754 -1.4817
 7814TIP3   OH244856   1.773   1.333  13.358  0.1803 -0.3111 -0.4514
 7814TIP3    H144857   1.692   1.307  13.402 -0.7721  0.5319 -1.6843
 7814TIP3    H244858   1.833   1.356  13.429 -0.2718 -2.0072  0.5172
 7815TIP3   OH244859   5.492   2.425  16.437 -0.3549  0.0052 -0.0419
 7815TIP3    H144860   5.559   2.480  16.395 -0.2983 -0.7737 -0.9941
 7815TIP3    H244861   5.421   2.421  16.372  0.2257 -2.1824 -0.5721
 7816TIP3   OH244862   0.390   0.200   2.665 -0.0125 -0.3060 -0.2307
 7816TIP3    H144863   0.481   0.180   2.645  0.3818  1.0890  0.1623
 7816TIP3    H244864   0.381   0.183   2.759  0.6804  2.5495  0.4065
 7817TIP3   OH244865   6.752   6.026   2.704  0.1448 -0.5351 -0.3514
 7817TIP3    H144866   6.766   5.934   2.681  0.9981 -0.2010 -1.1878
 7817TIP3    H244867   6.759   6.028   2.799 -2.5766 -1.7950 -0.0820
 7818TIP3   OH244868   0.726   4.230   3.206  0.0950  0.6021 -0.2732
 7818TIP3    H144869   0.726   4.152   3.261  0.9114  0.0508 -1.0379
 7818TIP3    H244870   0.799   4.217   3.146 -1.0220  1.0122 -1.7582
 7819TIP3   OH244871   6.445   5.352  11.793  0.2299 -0.2339 -0.3010
 7819TIP3    H144872   6.520   5.323  11.846  0.5074  2.8751  1.1362
 7819TIP3    H244873   6.369   5.337  11.850  0.3285  1.3281  0.2672
 7820TIP3   OH244874   1.072   4.253  13.738 -0.1921  0.2607 -0.3932
 7820TIP3    H144875   1.112   4.339  13.744  1.2466 -0.4716  0.9361
 7820TIP3    H244876   1.128   4.205  13.676  0.5755 -0.5237  0.8811
 7821TIP3   OH244877   3.681   3.581  12.604  0.3178  0.0820  0.6260
 7821TIP3    H144878   3.607   3.587  12.544  1.1972 -2.0980 -0.7300
 7821TIP3    H244879   3.695   3.671  12.635 -2.4725  0.6140  0.4381
 7822TIP3   OH244880   3.493   0.018   2.341  0.1031 -0.0831 -0.4101
 7822TIP3    H144881   3.526  -0.067   2.371 -2.5449 -1.5231 -1.4600
 7822TIP3    H244882   3.459   0.001   2.253 -2.2797  1.6111  0.1346
 7823TIP3   OH244883   2.394   0.811   2.501  0.7033 -0.2943  0.4784
 7823TIP3    H144884   2.432   0.723   2.500  0.1464 -0.5280 -1.2686
 7823TIP3    H244885   2.445   0.859   2.436  0.1237  0.3034  0.4685
 7824TIP3   OH244886   5.873   6.500   4.149 -0.0625 -0.6348 -0.3011
 7824TIP3    H144887   5.897   6.475   4.060  0.9443 -0.7380 -0.0046
 7824TIP3    H244888   5.829   6.584   4.139  0.4220 -0.4442 -0.8579
 7825TIP3   OH244889   0.383   2.643  11.858  0.5885  0.7995 -0.0552
 7825TIP3    H144890   0.321   2.709  11.888  0.7256  0.3206  1.2949
 7825TIP3    H244891   0.464   2.662  11.904  0.8939  0.2423 -0.3498
 7826TIP3   OH244892   1.689   2.571   6.357  0.4103  0.4827  0.5490
 7826TIP3    H144893   1.717   2.657   6.326 -1.1136  0.8900  0.2739
 7826TIP3    H244894   1.651   2.588   6.443 -2.5542  0.5479 -0.7219
 7827TIP3   OH244895   2.107   4.295   4.223 -0.0900 -0.4816 -0.0193
 7827TIP3    H144896   2.112   4.234   4.296 -2.2151 -1.8428 -0.9579
 7827TIP3    H244897   2.092   4.240   4.147 -0.6519  1.1263 -1.0983
 7828TIP3   OH244898   0.228   2.626   3.065  0.3419 -0.3976  0.0998
 7828TIP3    H144899   0.175   2.654   3.139 -0.2701 -0.4630 -0.3155
 7828TIP3    H244900   0.165   2.605   2.996  0.9546  2.5992 -1.4903
 7829TIP3   OH244901   3.990   2.563   6.292  0.0898 -0.2812 -0.2082
 7829TIP3    H144902   3.977   2.544   6.199 -1.3428 -1.0156  0.1308
 7829TIP3    H244903   4.017   2.654   6.295  0.7935 -0.4425 -1.3963
 7830TIP3   OH244904   4.514   5.174  14.788 -0.2901  0.0649 -0.1696
 7830TIP3    H144905   4.494   5.107  14.854 -0.8077 -0.4096 -0.8106
 7830TIP3    H244906   4.582   5.229  14.830 -1.4685  0.4951  1.2342
 7831TIP3   OH244907   0.783   4.823  11.013  0.0341  0.6818  0.4890
 7831TIP3    H144908   0.727   4.882  10.963  0.2190  0.7041  0.3083
 7831TIP3    H244909   0.857   4.804  10.955  0.0288  0.3565  0.5864
 7832TIP3   OH244910   1.715   3.750   4.234 -0.0850 -0.2831  0.3491
 7832TIP3    H144911   1.724   3.741   4.139 -0.8312  0.0749  0.2366
 7832TIP3    H244912   1.770   3.825   4.256  3.3369 -2.8108  0.7984
 7833TIP3   OH244913   3.043   3.964   4.367 -0.7375 -0.3298 -0.0806
 7833TIP3    H144914   2.973   3.980   4.430 -0.6278 -0.5054  0.0872
 7833TIP3    H244915   3.117   3.936   4.421 -0.1612  1.0453 -0.1322
 7834TIP3   OH244916   6.144   0.832  16.219  0.7202 -0.4194  0.5858
 7834TIP3    H144917   6.081   0.885  16.170  0.0182 -0.6069  1.2706
 7834TIP3    H244918   6.229   0.866  16.194  0.3082  0.4172  0.3193
 7835TIP3   OH244919   5.058   5.078  15.405  0.2168 -0.2780 -0.2924
 7835TIP3    H144920   5.105   5.055  15.485  1.7410 -0.3511 -1.1944
 7835TIP3    H244921   4.977   5.027  15.410  0.8222 -1.1796  0.6461
 7836TIP3   OH244922   3.613   5.388  11.076 -0.4351  0.3495 -0.3373
 7836TIP3    H144923   3.689   5.393  11.018 -0.7899  0.3639 -0.7995
 7836TIP3    H244924   3.643   5.427  11.158 -0.0137  0.5580 -0.5897
 7837TIP3   OH244925   1.476   0.996  13.841  0.4631 -0.4688  0.2831
 7837TIP3    H144926   1.491   0.909  13.804 -0.3630 -0.5172  0.0493
 7837TIP3    H244927   1.433   1.045  13.771  1.6529  0.3800  0.1377
 7838TIP3   OH244928   1.656   0.227   2.999  0.5131  0.3593  0.3631
 7838TIP3    H144929   1.741   0.266   2.980  0.2100  1.0230  0.3545
 7838TIP3    H244930   1.669   0.181   3.082  0.3561  2.1878  1.4535
 7839TIP3   OH244931   4.454   2.172  12.977  0.2479  0.2324 -0.6178
 7839TIP3    H144932   4.404   2.129  13.047 -1.2823  1.1936 -1.0811
 7839TIP3    H244933   4.446   2.113  12.902  0.5179 -0.0197 -0.4484
 7840TIP3   OH244934   1.182   0.099   2.995 -0.4751  0.1877 -0.5993
 7840TIP3    H144935   1.271   0.063   2.990  0.0895  1.0115  2.3884
 7840TIP3    H244936   1.136   0.040   3.055 -0.5812  2.2618  1.4729
 7841TIP3   OH244937   3.508   1.865   3.419 -0.2941  0.2861 -0.4323
 7841TIP3    H144938   3.418   1.892   3.440  0.3002  1.4141  0.7378
 7841TIP3    H244939   3.549   1.943   3.384 -0.0337 -0.4910 -1.8776
 7842TIP3   OH244940   5.164   2.146  14.164 -0.2921  0.2942  0.3326
 7842TIP3    H144941   5.159   2.120  14.072 -0.5639 -0.6722  0.6252
 7842TIP3    H244942   5.213   2.229  14.162  0.1923 -0.0066 -0.6236
 7843TIP3   OH244943   2.302   6.101   2.977  0.0431  0.4083  0.3762
 7843TIP3    H144944   2.217   6.127   3.013  0.3030  0.0531  1.2688
 7843TIP3    H244945   2.301   6.005   2.980 -0.4412  0.3332 -1.7855
 7844TIP3   OH244946   5.805   0.381  14.251  0.2406 -0.1635  0.5070
 7844TIP3    H144947   5.721   0.339  14.269 -0.7656  1.3565 -0.5716
 7844TIP3    H244948   5.832   0.347  14.166  1.7295 -2.1870  1.7368
 7845TIP3   OH244949   0.688   0.275  17.221  0.3649  0.4743  0.4863
 7845TIP3    H144950   0.732   0.287  17.305 -0.6636  1.8325  0.8496
 7845TIP3    H244951   0.690   0.362  17.180 -0.7247  0.2393 -0.0994
 7846TIP3   OH244952   4.317   4.114  12.307 -0.1374  0.1227 -0.2971
 7846TIP3    H144953   4.323   4.021  12.327  2.5896  0.4456  0.6533
 7846TIP3    H244954   4.356   4.123  12.220 -0.9111  0.3120 -0.6303
 7847TIP3   OH244955   4.778   2.226   5.887 -0.2658  0.0046 -0.4000
 7847TIP3    H144956   4.808   2.311   5.854 -1.4498  0.5339 -0.1382
 7847TIP3    H244957   4.807   2.223   5.978  0.4247 -0.1876 -0.6279
 7848TIP3   OH244958   4.331   4.271   1.547  0.7497  0.0214  0.5641
 7848TIP3    H144959   4.242   4.252   1.519  0.8823  1.4297 -0.8371
 7848TIP3    H244960   4.333   4.244   1.639 -0.9374 -0.5592  0.4489
 7849TIP3   OH244961   5.759   6.607   3.734  0.4400  0.3070  0.4171
 7849TIP3    H144962   5.805   6.629   3.653  2.9971 -0.2635  1.6538
 7849TIP3    H244963   5.827   6.608   3.802 -1.4845 -0.0380  2.4380
 7850TIP3   OH244964   4.972   1.634   2.434  0.3521  0.0179 -0.1056
 7850TIP3    H144965   5.061   1.638   2.468  1.9175 -1.9887 -3.7112
 7850TIP3    H244966   4.946   1.542   2.445 -0.9690  0.4028  0.1254
 7851TIP3   OH244967   1.686   5.302   4.534  0.3983  0.3552 -0.3966
 7851TIP3    H144968   1.755   5.367   4.521  1.1619 -0.2516  0.5955
 7851TIP3    H244969   1.640   5.331   4.612  1.1477 -0.6456  0.4229
 7852TIP3   OH244970   4.698   4.980  11.124 -0.1735 -0.2645  0.1282
 7852TIP3    H144971   4.646   5.013  11.051  0.5339 -0.5756 -0.5256
 7852TIP3    H244972   4.777   4.945  11.083  0.6400  0.3782  1.1273
 7853TIP3   OH244973   1.839   1.595  12.995 -0.8076 -0.0757 -0.0278
 7853TIP3    H144974   1.823   1.680  12.955  2.8444  0.5529 -0.3023
 7853TIP3    H244975   1.819   1.608  13.088  0.6150  1.4062  0.0998
 7854TIP3   OH244976   2.269   0.324  16.023  0.0940  0.4659  0.1465
 7854TIP3    H144977   2.264   0.317  15.928  0.4798  1.5462  0.0404
 7854TIP3    H244978   2.183   0.356  16.050  0.5844  2.0047 -0.0342
 7855TIP3   OH244979   5.207   6.712   3.867 -0.4300  0.8065 -0.6877
 7855TIP3    H144980   5.299   6.730   3.845 -0.7482  1.4901 -1.5116
 7855TIP3    H244981   5.205   6.708   3.962  0.6585 -0.3396 -0.7057
 7856TIP3   OH244982   1.096   3.028   4.302 -0.1433  0.3844 -0.4930
 7856TIP3    H144983   1.085   3.123   4.295 -0.5125  0.4198  0.5072
 7856TIP3    H244984   1.135   3.015   4.388  1.9857 -0.2157 -1.4979
 7857TIP3   OH244985   0.629   4.016   5.439 -0.0216  0.4997  0.1149
 7857TIP3    H144986   0.723   4.010   5.457  0.2565  1.1229 -1.0490
 7857TIP3    H244987   0.606   4.105   5.463  0.1694  1.0591 -1.6867
 7858TIP3   OH244988   5.242   4.681  13.180 -0.0071  0.5787 -0.4464
 7858TIP3    H144989   5.161   4.730  13.164  0.4370  0.5663 -2.9467
 7858TIP3    H244990   5.214   4.590  13.190 -0.5410  0.9161  1.3316
 7859TIP3   OH244991   6.441   3.212  15.802 -0.1724 -0.3555  0.0904
 7859TIP3    H144992   6.367   3.273  15.796 -0.5104 -0.7753 -0.0556
 7859TIP3    H244993   6.401   3.125  15.791  0.2893 -0.6113  0.4113
 7860TIP3   OH244994   5.764   4.076  12.538  0.0795 -0.6010  0.1427
 7860TIP3    H144995   5.858   4.059  12.539  0.8026  3.0307  1.6409
 7860TIP3    H244996   5.754   4.149  12.477 -1.5823  0.0483  1.1707
 7861TIP3   OH244997   2.285   2.866   2.172  0.0420  0.8078 -0.7989
 7861TIP3    H144998   2.255   2.787   2.127  1.1459  1.4573 -2.7085
 7861TIP3    H244999   2.222   2.934   2.145  1.0100  1.3168 -1.8298
 7862TIP3   OH245000   3.756   3.524  14.276  0.0120  0.1829  0.0291
 7862TIP3    H145001   3.837   3.558  14.313  0.2212  0.2148 -0.4463
 7862TIP3    H245002   3.690   3.590  14.297  0.7060  1.6224 -2.1737
 7863TIP3   OH245003   5.750   0.840   3.812  0.7220 -0.3353 -0.6554
 7863TIP3    H145004   5.695   0.761   3.818  0.0568  0.1954  0.6613
 7863TIP3    H245005   5.721   0.894   3.886  0.9026  1.3117 -1.7663
 7864TIP3   OH245006   5.401   1.436   5.897  0.3433  0.1597  0.0868
 7864TIP3    H145007   5.464   1.448   5.826 -0.6497  0.9209 -0.6747
 7864TIP3    H245008   5.447   1.464   5.975  0.2522  2.7687 -0.7676
 7865TIP3   OH245009   2.062   1.064  13.165  0.7318 -0.6526  0.5051
 7865TIP3    H145010   1.999   1.008  13.120  1.7283 -1.0597 -0.3846
 7865TIP3    H245011   2.015   1.147  13.179  0.2199 -0.7333 -0.7179
 7866TIP3   OH245012   5.746   5.385  13.780  0.0390 -0.0055  0.5517
 7866TIP3    H145013   5.833   5.425  13.776  0.7193 -1.2475  2.3159
 7866TIP3    H245014   5.732   5.349  13.692  1.9189 -1.0430  0.6634
 7867TIP3   OH245015   6.682   3.469   5.137  0.2298 -0.2103 -0.0066
 7867TIP3    H145016   6.757   3.409   5.135 -0.0309 -0.5762  0.6336
 7867TIP3    H245017   6.698   3.532   5.067 -0.2436 -1.9403 -1.7165
 7868TIP3   OH245018   1.383   3.966  11.105  0.3875 -0.5535 -0.2910
 7868TIP3    H145019   1.342   3.880  11.110  0.6994 -0.6070  2.5321
 7868TIP3    H245020   1.370   4.003  11.193 -0.0905  2.4470 -1.5585
 7869TIP3   OH245021   0.989   6.461   5.719  0.2309 -0.0767  0.0049
 7869TIP3    H145022   1.082   6.444   5.733  0.6818  0.2007 -2.3667
 7869TIP3    H245023   0.957   6.381   5.676 -1.0420 -0.8544  2.2797
 7870TIP3   OH245024   0.856   6.144   3.654  0.5907 -0.3413 -0.1240
 7870TIP3    H145025   0.925   6.210   3.650 -1.1217  1.4429 -2.2632
 7870TIP3    H245026   0.781   6.190   3.692 -0.6720 -0.9595 -1.7626
 7871TIP3   OH245027   2.884   6.100   3.193 -0.1363  0.0019 -0.1573
 7871TIP3    H145028   2.856   6.180   3.238 -1.3126 -0.2511 -0.4304
 7871TIP3    H245029   2.815   6.084   3.129  0.9520 -0.2965 -1.2529
 7872TIP3   OH245030   4.983   2.033   3.223  0.1064 -0.4442 -0.6268
 7872TIP3    H145031   5.044   1.964   3.251  1.5524 -0.0113 -2.5839
 7872TIP3    H245032   4.927   2.047   3.299  3.6404  0.4651  1.9745
 7873TIP3   OH245033   4.043   2.508   0.785  0.8641  0.4764 -0.4053
 7873TIP3    H145034   4.026   2.563   0.861  0.0241  1.6950 -1.4383
 7873TIP3    H245035   4.136   2.521   0.766  1.0338  0.3021  0.3071
 7874TIP3   OH245036   1.183   4.338   1.144 -0.7266 -0.1444  0.3062
 7874TIP3    H145037   1.228   4.361   1.062 -1.9159 -1.2627 -0.6690
 7874TIP3    H245038   1.236   4.268   1.182 -0.4538  0.0361  0.2658
 7875TIP3   OH245039   3.591   3.105  14.234 -0.0975 -0.2656 -0.1869
 7875TIP3    H145040   3.637   3.153  14.303 -0.3374  0.5062 -0.5545
 7875TIP3    H245041   3.587   3.167  14.161  0.5553 -1.2139 -1.0592
 7876TIP3   OH245042   5.161   4.690   1.920 -0.0101  0.9171  0.2347
 7876TIP3    H145043   5.196   4.676   2.008  1.3892  2.0139 -0.1446
 7876TIP3    H245044   5.090   4.754   1.933 -0.6750  0.0970  0.7321
 7877TIP3   OH245045   0.975   6.034   5.412  0.0214 -0.3717 -0.0096
 7877TIP3    H145046   0.945   6.071   5.329 -0.9451 -0.6833  0.1890
 7877TIP3    H245047   1.006   6.110   5.462 -1.0528  0.0556  0.0246
 7878TIP3   OH245048   0.761   1.466  15.907 -0.0406 -0.5734  0.4591
 7878TIP3    H145049   0.852   1.488  15.888 -0.0145 -0.4755  0.6938
 7878TIP3    H245050   0.742   1.392  15.850  0.1605 -0.5390  0.3475
 7879TIP3   OH245051   4.064   6.215  13.369  0.4424 -0.3648 -0.3192
 7879TIP3    H145052   4.044   6.290  13.312  0.5339 -0.2322 -0.1774
 7879TIP3    H245053   3.995   6.152  13.351  0.7640 -0.5390 -0.9674
 7880TIP3   OH245054   3.889   6.144  14.328 -0.4098 -0.1861 -0.0255
 7880TIP3    H145055   3.981   6.164  14.313 -0.5172 -1.2553 -2.3089
 7880TIP3    H245056   3.879   6.147  14.423  1.9275  0.1142  0.2378
 7881TIP3   OH245057   6.783   5.952  14.046  0.7139  0.2858  0.1926
 7881TIP3    H145058   6.747   5.974  13.960 -0.0797 -1.6615  0.0061
 7881TIP3    H245059   6.864   5.905  14.027  1.3923  1.2940  0.5524
 7882TIP3   OH245060   0.354   6.711   5.565  0.4553 -0.5437 -0.4937
 7882TIP3    H145061   0.367   6.621   5.535 -0.2543 -0.3449 -1.4334
 7882TIP3    H245062   0.400   6.765   5.500  2.4738 -0.2991  1.0763
 7883TIP3   OH245063   2.375   6.033  13.513 -0.0892  0.1232  0.0652
 7883TIP3    H145064   2.393   6.126  13.502 -1.0485  0.5705  2.0039
 7883TIP3    H245065   2.280   6.029  13.529 -0.1650 -1.2448 -0.6457
 7884TIP3   OH245066   4.002   4.335  13.667 -0.6371 -1.0394  0.0759
 7884TIP3    H145067   3.986   4.251  13.625  0.0466 -2.0162  1.7217
 7884TIP3    H245068   4.095   4.333  13.690 -0.5014  0.3595 -0.2679
 7885TIP3   OH245069   0.414   2.580   5.428 -0.0335  0.0286  0.0091
 7885TIP3    H145070   0.347   2.617   5.486  1.8912 -0.6466  2.7692
 7885TIP3    H245071   0.456   2.657   5.389  1.0468  0.6494  2.3403
 7886TIP3   OH245072   0.938   1.938  15.805  0.2803  0.5257  0.2493
 7886TIP3    H145073   0.941   1.927  15.710  0.8990 -0.3659  0.3697
 7886TIP3    H245074   0.853   1.980  15.822 -0.9620 -1.6291 -0.4551
 7887TIP3   OH245075   6.543   2.708   2.341  0.2256  0.2086  0.1933
 7887TIP3    H145076   6.475   2.695   2.407  0.6418  0.9184  0.7657
 7887TIP3    H245077   6.504   2.675   2.259 -0.3784 -0.4373  0.7354
 7888TIP3   OH245078   6.701   1.772   3.494 -0.0672 -0.2700  0.9487
 7888TIP3    H145079   6.779   1.804   3.447 -0.7924 -0.1330 -0.1913
 7888TIP3    H245080   6.708   1.676   3.488 -1.4016 -0.2493 -1.5969
 7889TIP3   OH245081   0.705   1.329   5.755  0.1112 -0.0178 -0.0517
 7889TIP3    H145082   0.744   1.370   5.833 -1.5013 -1.3074  1.4688
 7889TIP3    H245083   0.620   1.297   5.785 -0.5363 -0.5490 -2.3657
 7890TIP3   OH245084   5.058   3.451   6.105  0.1789  0.2352 -0.3068
 7890TIP3    H145085   4.992   3.450   6.175  0.5037 -2.8300 -0.0019
 7890TIP3    H245086   5.132   3.497   6.143 -1.0247  1.9490  0.0354
 7891TIP3   OH245087   3.037   6.744   1.455  0.4707  0.6098 -0.2654
 7891TIP3    H145088   3.001   6.787   1.377 -0.2680  0.7236  0.1358
 7891TIP3    H245089   2.960   6.711   1.501  0.9032  0.6310  0.4725
 7892TIP3   OH245090   4.089   5.608  12.103 -0.2743  0.4027 -0.0601
 7892TIP3    H145091   4.152   5.622  12.032 -1.8666 -0.6638 -1.7197
 7892TIP3    H245092   4.009   5.651  12.074  0.0095  2.8378  2.6118
 7893TIP3   OH245093   4.655   2.462   5.602 -0.3166 -0.3326 -0.2330
 7893TIP3    H145094   4.746   2.462   5.630 -0.4731 -0.1743  0.2732
 7893TIP3    H245095   4.606   2.495   5.677 -0.6558  0.8060 -0.9256
 7894TIP3   OH245096   5.425   2.703  15.866 -0.0064 -0.2877  0.0603
 7894TIP3    H145097   5.432   2.635  15.933 -0.7992 -1.0415 -0.6143
 7894TIP3    H245098   5.366   2.667  15.801  0.9626  0.3367 -1.1883
 7895TIP3   OH245099   4.479   2.199  13.701  0.0562 -0.2581  0.1444
 7895TIP3    H145100   4.432   2.251  13.636 -1.6007 -1.0127  0.7328
 7895TIP3    H245101   4.560   2.249  13.716  0.7924 -0.4039 -2.9489
 7896TIP3   OH245102   2.923   2.082  13.830  0.2827 -0.5149  0.3166
 7896TIP3    H145103   2.993   2.133  13.869 -0.2495 -0.4459  1.1922
 7896TIP3    H245104   2.912   2.007  13.888 -1.0877  0.0286  0.7801
 7897TIP3   OH245105   4.832   3.456  16.911  0.0824 -0.2458  0.3345
 7897TIP3    H145106   4.913   3.404  16.905  0.0801 -0.3457  1.0937
 7897TIP3    H245107   4.843   3.507  16.991  0.0713  0.9167 -0.3908
 7898TIP3   OH245108   3.605   5.434   3.097  0.1249 -0.0981  0.7262
 7898TIP3    H145109   3.597   5.482   3.015 -2.5540 -0.3632  0.8030
 7898TIP3    H245110   3.546   5.478   3.158  2.1788  0.1974  2.6049
 7899TIP3   OH245111   5.658   3.822  12.428 -0.6315 -0.6896 -0.1899
 7899TIP3    H145112   5.717   3.788  12.495  0.3387  1.2296 -0.0096
 7899TIP3    H245113   5.673   3.917  12.429 -1.5718 -0.4804 -2.2005
 7900TIP3   OH245114   4.955   5.778  13.225  0.4270  0.8243  0.6995
 7900TIP3    H145115   4.879   5.798  13.171 -1.3611 -2.3849  1.8580
 7900TIP3    H245116   5.028   5.777  13.163 -1.3070 -1.1593 -1.4403
 7901TIP3   OH245117   0.985   4.419  16.283 -0.1969 -0.0648 -0.2127
 7901TIP3    H145118   0.994   4.345  16.223  0.4144 -1.0069  1.0028
 7901TIP3    H245119   0.998   4.381  16.370 -0.2583  1.4086  0.4613
 7902TIP3   OH245120   4.286   3.622   2.791  0.2198 -0.1742  0.2775
 7902TIP3    H145121   4.323   3.671   2.864  0.4221  0.2780 -0.1262
 7902TIP3    H245122   4.264   3.688   2.726  1.1733 -0.6756 -0.5761
 7903TIP3   OH245123   5.609   6.453   3.890  0.6210  0.2094  0.2492
 7903TIP3    H145124   5.526   6.437   3.844  2.0125 -1.0027 -1.9238
 7903TIP3    H245125   5.656   6.514   3.834  1.5588  0.2563  1.0763
 7904TIP3   OH245126   5.689   3.132   0.769 -0.3802  0.4631  0.4683
 7904TIP3    H145127   5.594   3.132   0.774 -0.4128  0.6479 -0.1660
 7904TIP3    H245128   5.712   3.045   0.737 -0.3448  0.4715  0.4702
 7905TIP3   OH245129   2.236   1.714   4.537 -0.0840  0.2932  0.2376
 7905TIP3    H145130   2.269   1.789   4.587 -0.4064 -0.2536  1.2802
 7905TIP3    H245131   2.226   1.747   4.447  1.3354  1.0458  0.3349
 7906TIP3   OH245132   2.472   6.660  12.432  0.0924 -0.2391 -0.6217
 7906TIP3    H145133   2.441   6.574  12.405 -0.2563  0.3126 -2.0682
 7906TIP3    H245134   2.525   6.644  12.510  1.1639 -1.9261 -1.6670
 7907TIP3   OH245135   6.095   4.450   1.883 -0.2795  0.5190  0.6348
 7907TIP3    H145136   6.041   4.378   1.916 -1.4773  0.7112 -0.8123
 7907TIP3    H245137   6.171   4.452   1.940  0.0788 -2.3094  0.3234
 7908TIP3   OH245138   3.762   4.230  13.092 -0.5832  0.5101  0.2319
 7908TIP3    H145139   3.724   4.221  13.180 -0.5048 -0.9007  0.1385
 7908TIP3    H245140   3.700   4.284  13.044 -0.4106  1.6621  1.2790
 7909TIP3   OH245141   5.295   6.108  11.425 -0.0653 -0.3057  0.5007
 7909TIP3    H145142   5.349   6.128  11.349 -0.6904  0.3645  0.2213
 7909TIP3    H245143   5.352   6.060  11.484  1.2661  1.6429  0.8521
 7910TIP3   OH245144   0.497   1.636  15.297 -0.0321  0.1589  0.0948
 7910TIP3    H145145   0.447   1.554  15.299  1.5152 -0.7974  1.1026
 7910TIP3    H245146   0.548   1.634  15.377  0.2165  2.0186 -0.0045
 7911TIP3   OH245147   1.327   4.171  15.276 -0.0909  0.2978 -0.1015
 7911TIP3    H145148   1.364   4.159  15.363  0.9706 -0.3312 -0.6267
 7911TIP3    H245149   1.239   4.133  15.281  0.4979 -1.0273  0.3103
 7912TIP3   OH245150   6.144   3.996  15.913 -0.4016 -0.4263  0.1635
 7912TIP3    H145151   6.140   4.063  15.982  0.6394 -1.4928  1.2914
 7912TIP3    H245152   6.213   4.026  15.854 -0.4705 -0.1119  0.2419
 7913TIP3   OH245153   3.246   5.429   2.389  0.2665  0.4872 -0.1299
 7913TIP3    H145154   3.231   5.487   2.464 -1.2698 -0.8946  0.6680
 7913TIP3    H245155   3.334   5.450   2.359  1.4582  0.0967  2.9462
 7914TIP3   OH245156   5.371   0.937   0.924 -0.3185  0.0885 -0.2430
 7914TIP3    H145157   5.324   0.912   0.844  1.1032  0.5113 -1.2300
 7914TIP3    H245158   5.405   1.025   0.905 -1.4623  0.9382  1.5044
 7915TIP3   OH245159   0.372   0.216   4.667  0.1399 -0.0715  0.2773
 7915TIP3    H145160   0.436   0.179   4.606 -1.4799  0.1629 -1.6394
 7915TIP3    H245161   0.398   0.308   4.677 -0.6293  0.3810 -1.5749
 7916TIP3   OH245162   0.249   6.116  12.514 -0.0349  1.1117 -0.1578
 7916TIP3    H145163   0.213   6.089  12.430 -3.1428  0.3539  1.3443
 7916TIP3    H245164   0.300   6.040  12.544  1.6991  1.6638 -1.6595
 7917TIP3   OH245165   5.621   2.713  12.875  0.0069 -0.0333  0.2577
 7917TIP3    H145166   5.590   2.789  12.825 -0.6010  0.6793  1.6802
 7917TIP3    H245167   5.571   2.639  12.841  0.6174  0.1868 -1.1522
 7918TIP3   OH245168   6.759   3.053   4.255 -0.0021  0.7217 -0.0484
 7918TIP3    H145169   6.707   3.114   4.308  0.6284  0.3764  0.9796
 7918TIP3    H245170   6.742   2.967   4.293  1.5529  0.6399  0.4978
 7919TIP3   OH245171   1.540   4.880  16.015  0.3655 -0.2710  0.7231
 7919TIP3    H145172   1.524   4.815  16.083  1.2971 -0.2989  0.9220
 7919TIP3    H245173   1.634   4.874  15.998  0.0912 -0.4585 -0.7625
 7920TIP3   OH245174   1.951   4.806   4.690 -0.1145 -0.0806 -0.3840
 7920TIP3    H145175   1.863   4.769   4.695 -0.6313  1.1046 -0.7097
 7920TIP3    H245176   1.941   4.897   4.717  1.3755 -0.4814  1.6723
 7921TIP3   OH245177   2.133   4.337   2.800 -0.0518 -0.2038 -0.3662
 7921TIP3    H145178   2.200   4.401   2.823  2.4221 -2.2068 -1.7021
 7921TIP3    H245179   2.182   4.257   2.780 -2.9741 -2.3179  0.5080
 7922TIP3   OH245180   5.372   1.191  17.226  0.1539 -0.2221  0.4831
 7922TIP3    H145181   5.291   1.195  17.277 -1.8254 -1.0185 -2.4731
 7922TIP3    H245182   5.369   1.267  17.169  2.4235  0.7507  1.5876
 7923TIP3   OH245183   5.513   0.659  15.532  0.1126 -0.4415 -0.5449
 7923TIP3    H145184   5.466   0.695  15.607  0.1206 -1.3572 -0.0884
 7923TIP3    H245185   5.605   0.655  15.560  0.0294 -1.3295 -0.3842
 7924TIP3   OH245186   0.366   1.092  11.636  0.7685 -0.0387  0.0116
 7924TIP3    H145187   0.395   1.108  11.726  0.4959 -1.8508  0.4288
 7924TIP3    H245188   0.273   1.111  11.637  0.3733 -1.9038  0.5957
 7925TIP3   OH245189   1.310   4.739   2.516 -0.0429  0.0325 -0.4532
 7925TIP3    H145190   1.280   4.650   2.533  2.2463 -0.6613  0.0745
 7925TIP3    H245191   1.235   4.794   2.538 -0.4044 -1.5299  2.3994
 7926TIP3   OH245192   1.326   4.369   4.770  0.1305  0.1636  0.5545
 7926TIP3    H145193   1.238   4.405   4.767  0.0396 -0.1267 -0.4054
 7926TIP3    H245194   1.380   4.432   4.723 -0.0889 -1.0737 -1.4277
 7927TIP3   OH245195   2.536   0.776  15.516  0.1533 -0.6092 -0.2003
 7927TIP3    H145196   2.605   0.841  15.503 -0.5531  0.5486  1.6430
 7927TIP3    H245197   2.551   0.743  15.604 -1.9020 -0.0325  0.3799
 7928TIP3   OH245198   1.116   6.679   3.238 -0.8484  0.3544 -0.2701
 7928TIP3    H145199   1.180   6.623   3.193  0.5666  1.8230 -0.1161
 7928TIP3    H245200   1.046   6.618   3.264  0.4052 -1.2557 -0.5611
 7929TIP3   OH245201   4.307   5.512   5.278  0.2179 -0.1667 -0.1559
 7929TIP3    H145202   4.361   5.587   5.255  0.7921 -0.6559 -0.4055
 7929TIP3    H245203   4.229   5.520   5.222  0.2644  0.2562 -0.1599
 7930TIP3   OH245204   4.475   1.106  13.614  0.0719  0.3994 -0.0372
 7930TIP3    H145205   4.494   1.129  13.523  1.0154 -0.1098  0.0312
 7930TIP3    H245206   4.426   1.024  13.609  0.7695 -0.0150 -0.0481
 7931TIP3   OH245207   6.594   6.227  13.795 -0.0981 -0.0514  0.0937
 7931TIP3    H145208   6.654   6.153  13.793  0.9379  0.7872 -0.1129
 7931TIP3    H245209   6.571   6.243  13.703  2.0887  1.7989 -0.1838
 7932TIP3   OH245210   6.618   1.751   5.454  0.1218  0.1441 -0.3381
 7932TIP3    H145211   6.681   1.821   5.436 -0.0329  0.2540 -0.4566
 7932TIP3    H245212   6.549   1.794   5.504 -0.7243  0.4259 -1.7274
 7933TIP3   OH245213   3.380   0.512  13.111  0.8603 -0.3679  0.1059
 7933TIP3    H145214   3.447   0.570  13.075  0.2021  0.8438  0.7747
 7933TIP3    H245215   3.416   0.482  13.194  0.0900  1.2481  1.0417
 7934TIP3   OH245216   6.063   6.670   2.260 -0.4725  0.2428  0.5307
 7934TIP3    H145217   6.021   6.687   2.344 -0.5377 -0.7865  0.7168
 7934TIP3    H245218   6.001   6.702   2.195  0.5265  3.1068  0.8865
 7935TIP3   OH245219   5.381   2.561   0.538  0.0242 -0.2647  0.1491
 7935TIP3    H145220   5.395   2.550   0.632  0.4525 -1.2294 -0.0280
 7935TIP3    H245221   5.288   2.578   0.529  0.0141  0.0006  0.7655
 7936TIP3   OH245222   1.181   3.238   3.969 -0.2121 -0.2605  0.2253
 7936TIP3    H145223   1.185   3.146   3.993  0.9142 -0.0374  0.9281
 7936TIP3    H245224   1.192   3.238   3.873 -1.1422 -0.9133  0.1220
 7937TIP3   OH245225   5.824   5.379   0.932  0.5557 -0.7005  0.3442
 7937TIP3    H145226   5.827   5.353   1.024 -0.9612 -1.3245  0.2164
 7937TIP3    H245227   5.851   5.301   0.884  1.8829 -0.2170  0.2643
 7938TIP3   OH245228   3.066   5.088  16.864  0.3388  0.6306  0.5776
 7938TIP3    H145229   3.113   5.115  16.943  1.8375  2.5973 -0.9499
 7938TIP3    H245230   3.133   5.056  16.805 -0.6375  0.2191 -0.3278
 7939TIP3   OH245231   4.762   2.176  14.384 -0.4245 -0.3152 -0.1995
 7939TIP3    H145232   4.672   2.190  14.414 -0.2304  1.5040 -0.4122
 7939TIP3    H245233   4.753   2.118  14.308 -1.4481  0.0186 -0.3473
 7940TIP3   OH245234   6.205   2.541  15.837  0.2395  0.7097 -0.1360
 7940TIP3    H145235   6.258   2.620  15.837 -1.2544  1.7486  0.2257
 7940TIP3    H245236   6.131   2.562  15.779 -0.8926  0.1178  1.0500
 7941TIP3   OH245237   4.859   5.765  13.923  0.1378  0.3808  0.1981
 7941TIP3    H145238   4.883   5.782  13.831 -1.0988  1.2921  0.0180
 7941TIP3    H245239   4.856   5.852  13.963  0.7711 -0.0249  1.1375
 7942TIP3   OH245240   4.312   5.883  12.076 -0.0422 -0.0295  0.1748
 7942TIP3    H145241   4.278   5.836  12.001  0.0535 -2.0182  1.3368
 7942TIP3    H245242   4.407   5.886  12.062 -0.2337  1.7380 -0.9408
 7943TIP3   OH245243   1.984   6.010   6.666  0.8952  1.0794 -0.0058
 7943TIP3    H145244   1.924   6.083   6.651  0.2836  0.8651  1.3536
 7943TIP3    H245245   1.938   5.953   6.727  1.7136 -0.0331 -0.4151
 7944TIP3   OH245246   4.728   2.878   2.475  0.4795  0.5073 -0.1671
 7944TIP3    H145247   4.682   2.838   2.400 -0.8596  0.8272  0.4672
 7944TIP3    H245248   4.820   2.857   2.460  0.4617  2.0187 -2.8422
 7945TIP3   OH245249   2.660   3.849  15.862 -0.3099 -0.4816 -0.3525
 7945TIP3    H145250   2.601   3.923  15.847  1.5892  0.9436 -0.9437
 7945TIP3    H245251   2.722   3.853  15.789  1.3456 -1.1389  0.9846
 7946TIP3   OH245252   1.043   3.497  14.110 -0.1976 -0.2739  0.0065
 7946TIP3    H145253   0.967   3.442  14.127  0.6012 -1.7936 -1.2465
 7946TIP3    H245254   1.054   3.494  14.015  1.6431 -0.3612  0.2089
 7947TIP3   OH245255   6.774   0.809  12.391  0.0571  0.4741 -0.7904
 7947TIP3    H145256   6.831   0.886  12.387 -0.1293  0.5833 -1.4195
 7947TIP3    H245257   6.694   0.836  12.346 -1.1104  0.8291  1.4295
 7948TIP3   OH245258   6.155   2.740   1.342  0.5962  0.1014 -0.1309
 7948TIP3    H145259   6.192   2.805   1.281 -0.4144  1.0102  0.2044
 7948TIP3    H245260   6.232   2.699   1.382  1.2718  1.7871  0.3681
 7949TIP3   OH245261   0.239   5.377  16.476  0.5597 -0.0693  0.2663
 7949TIP3    H145262   0.148   5.353  16.459  0.3775  1.2320 -0.6556
 7949TIP3    H245263   0.280   5.295  16.504 -1.3707 -0.2152  2.8619
 7950TIP3   OH245264   4.917   4.957  12.798 -0.1235  0.2351  0.5242
 7950TIP3    H145265   4.925   4.862  12.793  0.2766  0.3118 -0.4178
 7950TIP3    H245266   4.941   4.979  12.888  2.1141 -0.3333  0.0943
 7951TIP3   OH245267   1.754   5.554   0.089  0.4388  0.4576  0.1827
 7951TIP3    H145268   1.748   5.489   0.020 -0.7602  0.1291  0.5753
 7951TIP3    H245269   1.695   5.522   0.158  0.4888  1.5086  0.7384
 7952TIP3   OH245270   3.726   5.388  10.698 -0.0708 -0.0341 -0.2073
 7952TIP3    H145271   3.710   5.378  10.604  0.3883 -1.3490 -0.1511
 7952TIP3    H245272   3.678   5.315  10.738  1.6886 -0.8825  0.3865
 7953TIP3   OH245273   6.607   0.191  12.424  0.3356 -0.0330  0.3226
 7953TIP3    H145274   6.634   0.200  12.516  1.4168 -2.0614  0.2225
 7953TIP3    H245275   6.608   0.281  12.390 -2.1230  1.0108  2.8242
 7954TIP3   OH245276   6.244   1.974  11.305  0.3581 -0.6921  0.0470
 7954TIP3    H145277   6.161   1.976  11.353 -0.0749 -1.3851 -0.6574
 7954TIP3    H245278   6.245   1.888  11.262  0.5428  0.0737 -1.5212
 7955TIP3   OH245279   2.629   0.667   2.732 -0.1842 -0.0494 -0.5517
 7955TIP3    H145280   2.550   0.613   2.738 -0.4839  0.4647  0.2936
 7955TIP3    H245281   2.658   0.676   2.823  0.6405  0.0701 -0.8233
 7956TIP3   OH245282   3.488   0.766  11.876 -0.1702  0.5431  0.1504
 7956TIP3    H145283   3.568   0.809  11.844 -0.4983  1.9200  1.1590
 7956TIP3    H245284   3.439   0.836  11.920 -1.2986 -0.5917  0.7156
 7957TIP3   OH245285   3.869   0.668  11.582 -0.3350 -0.1001 -0.5466
 7957TIP3    H145286   3.857   0.657  11.487 -0.5204  0.3616 -0.5772
 7957TIP3    H245287   3.904   0.584  11.611 -1.1031 -0.5498 -0.8855
 7958TIP3   OH245288   2.842   3.900  11.301  0.3823  0.0510  0.5840
 7958TIP3    H145289   2.805   3.814  11.284  0.3851 -0.2900  2.2460
 7958TIP3    H245290   2.804   3.926  11.385  2.5123  0.4712  1.4279
 7959TIP3   OH245291   1.512   0.819  12.570  0.6409  0.1346  0.1519
 7959TIP3    H145292   1.599   0.860  12.560  0.1036  1.3288  0.3029
 7959TIP3    H245293   1.451   0.893  12.568 -0.5378 -0.8646 -2.0849
 7960TIP3   OH245294   5.594   0.707   6.125 -0.1448  0.1280 -0.5871
 7960TIP3    H145295   5.529   0.747   6.183  0.1664  0.8539 -0.7290
 7960TIP3    H245296   5.622   0.628   6.171  0.3940  0.9138  0.4409
 7961TIP3   OH245297   2.300   0.267  12.621 -0.5840 -0.2280 -0.4131
 7961TIP3    H145298   2.326   0.320  12.696 -0.9768 -0.7507  0.0965
 7961TIP3    H245299   2.325   0.178  12.645  0.7986 -0.1802 -1.5905
 7962TIP3   OH245300   0.291   1.898  13.644 -0.4387 -0.0025 -0.3739
 7962TIP3    H145301   0.221   1.908  13.580 -0.7302 -1.7139 -0.3525
 7962TIP3    H245302   0.322   1.808  13.632  0.4891  0.1347  0.8797
 7963TIP3   OH245303   2.104   5.761   3.419 -0.2989 -0.4431  0.3177
 7963TIP3    H145304   2.099   5.756   3.515  0.6239  1.1587  0.4687
 7963TIP3    H245305   2.198   5.759   3.400 -0.4841 -0.8316 -0.5618
 7964TIP3   OH245306   4.061   6.355  15.525 -0.4725  0.1017  0.1322
 7964TIP3    H145307   3.984   6.332  15.472  0.1255  0.6965 -1.0272
 7964TIP3    H245308   4.083   6.444  15.496  1.7613 -0.7572 -0.8743
 7965TIP3   OH245309   2.675   1.608   2.382 -0.0144  0.1697  0.3466
 7965TIP3    H145310   2.676   1.560   2.465  0.5403  1.2709  0.9841
 7965TIP3    H245311   2.767   1.620   2.359 -0.1652 -0.3326 -0.5536
 7966TIP3   OH245312   4.559   2.447  17.047  0.8203 -0.3600 -0.1168
 7966TIP3    H145313   4.541   2.484  17.133  0.2127  0.4235 -0.5840
 7966TIP3    H245314   4.542   2.518  16.985  2.0729 -0.6589 -0.8267
 7967TIP3   OH245315   5.484   0.650   2.757 -0.5900  0.2113 -0.5403
 7967TIP3    H145316   5.460   0.588   2.688 -1.7438 -0.6587  0.5962
 7967TIP3    H245317   5.550   0.706   2.718 -0.8332 -0.6121 -2.1738
 7968TIP3   OH245318   5.690   3.537  12.473 -0.2873 -0.6187  0.0424
 7968TIP3    H145319   5.748   3.604  12.508 -0.9845 -0.2992  0.6145
 7968TIP3    H245320   5.739   3.497  12.401  0.6670 -0.4201  0.5727
 7969TIP3   OH245321   0.541   0.353   1.457  0.0900  0.0596  0.3288
 7969TIP3    H145322   0.565   0.439   1.491  1.0369  0.9580 -2.4764
 7969TIP3    H245323   0.459   0.368   1.409 -0.9472 -1.0755  1.7053
 7970TIP3   OH245324   1.911   5.299   4.312 -0.0797 -0.3955 -0.3688
 7970TIP3    H145325   1.992   5.253   4.290 -0.6093 -2.5794  2.1517
 7970TIP3    H245326   1.843   5.256   4.260 -0.3295 -1.4778  0.8476
 7971TIP3   OH245327   0.362   0.735  11.927 -0.0608  0.2045 -0.0738
 7971TIP3    H145328   0.392   0.716  11.838 -0.3418 -0.9951  0.0752
 7971TIP3    H245329   0.314   0.817  11.919  0.0756  0.2051 -0.9989
 7972TIP3   OH245330   0.383   5.940  16.249  0.0097  0.6021 -0.5025
 7972TIP3    H145331   0.388   6.009  16.315  0.8294 -0.2564  0.3487
 7972TIP3    H245332   0.294   5.947  16.215 -1.3534 -0.6622  2.6111
 7973TIP3   OH245333   1.795   4.772  10.270 -0.8266 -0.6230 -0.0475
 7973TIP3    H145334   1.843   4.708  10.322 -0.4175  0.3266  0.7580
 7973TIP3    H245335   1.780   4.845  10.330  1.5404  1.4255 -1.8682
 7974TIP3   OH245336   3.728   4.636  15.964  0.0088 -0.1993 -0.4618
 7974TIP3    H145337   3.651   4.679  15.926  0.3599  0.2008 -0.7317
 7974TIP3    H245338   3.797   4.702  15.959 -0.0331 -0.0076  1.2240
 7975TIP3   OH245339   2.197   4.578   1.920 -0.2112 -1.1825 -0.4853
 7975TIP3    H145340   2.127   4.596   1.858 -0.6839 -2.1672 -0.2505
 7975TIP3    H245341   2.275   4.565   1.866 -0.3244 -0.6155 -0.7809
 7976TIP3   OH245342   1.862   2.378  12.825  0.0383  0.6526 -0.0215
 7976TIP3    H145343   1.826   2.441  12.886 -0.1941 -0.6159  1.1754
 7976TIP3    H245344   1.956   2.380  12.840 -0.0705 -0.0831  0.8153
 7977TIP3   OH245345   4.238   6.316   3.207  0.4270 -0.3011 -0.3867
 7977TIP3    H145346   4.168   6.255   3.183 -1.4942  1.5547  0.3435
 7977TIP3    H245347   4.268   6.353   3.124 -1.5402  1.0963 -0.4975
 7978TIP3   OH245348   6.562   2.452  15.796  0.8893 -0.0785  1.0372
 7978TIP3    H145349   6.565   2.419  15.886 -0.1512 -1.9811  0.4012
 7978TIP3    H245350   6.532   2.543  15.805  4.7087  1.1180  2.9067
 7979TIP3   OH245351   2.187   3.731   4.218 -0.3038 -0.1063 -0.5087
 7979TIP3    H145352   2.180   3.688   4.303 -2.0635  0.0694 -0.5367
 7979TIP3    H245353   2.160   3.664   4.155 -0.4923  0.2231 -0.7809
 7980TIP3   OH245354   5.805   1.196   1.742  0.6496 -0.2471  0.4474
 7980TIP3    H145355   5.763   1.134   1.802  2.6568 -1.7133  0.4097
 7980TIP3    H245356   5.891   1.212   1.781  0.8980  1.0007 -0.5798
 7981TIP3   OH245357   5.441   4.938  11.126  0.0665 -0.2236  0.3605
 7981TIP3    H145358   5.431   4.982  11.210 -0.7769 -1.1334  0.7443
 7981TIP3    H245359   5.466   4.848  11.149 -1.9575 -0.9691 -0.3073
 7982TIP3   OH245360   3.678   3.369   2.887  0.2615 -0.2891 -0.2832
 7982TIP3    H145361   3.762   3.383   2.931  0.1298 -1.5956  0.4083
 7982TIP3    H245362   3.650   3.282   2.915  0.0156 -1.0225 -2.7051
 7983TIP3   OH245363   1.948   3.624   2.246  0.0125  0.2081  0.0236
 7983TIP3    H145364   1.887   3.587   2.311  1.2973  0.7399  1.5651
 7983TIP3    H245365   1.916   3.712   2.230 -0.6273 -0.1139 -0.4885
 7984TIP3   OH245366   2.892   0.177   1.858  0.6556  0.1163  0.1056
 7984TIP3    H145367   2.946   0.253   1.880  0.7187  0.0423  0.2099
 7984TIP3    H245368   2.842   0.204   1.781 -1.4693  1.3147  1.8269
 7985TIP3   OH245369   4.126   4.212  13.953  0.0187 -0.5673 -0.5188
 7985TIP3    H145370   4.112   4.131  13.904 -0.5584  0.0417 -1.3736
 7985TIP3    H245371   4.156   4.183  14.039  0.4554 -1.6707 -1.0326
 7986TIP3   OH245372   5.798   3.526  13.265 -0.6887  0.2419  0.1601
 7986TIP3    H145373   5.812   3.433  13.280  0.1563  0.0662 -1.5944
 7986TIP3    H245374   5.884   3.560  13.241 -1.1327  1.3339  0.0765
 7987TIP3   OH245375   5.660   5.043  10.370  0.0031 -0.3110 -0.2562
 7987TIP3    H145376   5.604   5.061  10.446  0.5998 -3.3428  0.9675
 7987TIP3    H245377   5.741   5.092  10.389  0.5341 -1.8450  1.5881
 7988TIP3   OH245378   5.768   1.427  13.092  0.4339  0.0184  0.6077
 7988TIP3    H145379   5.736   1.453  13.179  1.6438 -1.6630  1.6041
 7988TIP3    H245380   5.706   1.467  13.031 -0.4543  1.2300  2.2423
 7989TIP3   OH245381   0.299   1.088   1.479 -0.6795 -0.1420  0.4734
 7989TIP3    H145382   0.264   1.115   1.394  3.0906  1.3329 -0.6679
 7989TIP3    H245383   0.311   0.993   1.471 -1.8118 -0.2576 -0.0295
 7990TIP3   OH245384   5.138   0.294   5.770 -0.0102 -0.2634 -0.5725
 7990TIP3    H145385   5.086   0.266   5.845 -1.6441 -0.0949 -1.6289
 7990TIP3    H245386   5.143   0.389   5.778 -0.0745 -0.2576 -0.6006
 7991TIP3   OH245387   4.092   2.147  12.344 -0.6828  0.2192 -0.4825
 7991TIP3    H145388   4.072   2.233  12.380  1.3851 -0.0334  1.3896
 7991TIP3    H245389   4.145   2.104  12.412 -0.8556 -2.1674 -1.7849
 7992TIP3   OH245390   3.354   5.961  13.369 -0.0528  0.3712  0.4616
 7992TIP3    H145391   3.307   5.890  13.326  0.1050  0.4915  0.0939
 7992TIP3    H245392   3.288   6.027  13.386 -0.4968 -0.4440  2.0868
 7993TIP3   OH245393   4.283   1.219   1.935  0.3045 -0.6146  0.0314
 7993TIP3    H145394   4.190   1.197   1.944  0.2160 -0.0058  0.6457
 7993TIP3    H245395   4.291   1.305   1.975  1.1569 -0.7028  0.0603
 7994TIP3   OH245396   4.458   1.657  17.113  0.5266 -0.1628  0.7850
 7994TIP3    H145397   4.461   1.703  17.029 -1.7651  0.2739  0.8927
 7994TIP3    H245398   4.543   1.614  17.121  0.9796  0.2661 -1.4824
 7995TIP3   OH245399   3.904   5.138   3.485 -0.0384 -0.4099 -0.6149
 7995TIP3    H145400   3.976   5.177   3.534 -0.6281  0.6118 -0.5252
 7995TIP3    H245401   3.872   5.209   3.429 -0.8454 -0.8918 -0.7822
 7996TIP3   OH245402   4.156   0.337   1.564 -0.5904  0.2083 -0.4373
 7996TIP3    H145403   4.175   0.338   1.470  0.9104 -1.4451 -0.1794
 7996TIP3    H245404   4.139   0.245   1.584  0.4483  0.3315  1.1419
 7997TIP3   OH245405   0.454   5.279   5.335  0.5500  0.3334 -0.2426
 7997TIP3    H145406   0.404   5.359   5.352  1.1961  0.8926 -0.9320
 7997TIP3    H245407   0.414   5.213   5.392 -1.0397  0.7346 -0.8705
 7998TIP3   OH245408   2.443   3.282  15.641  0.4365 -0.0482  0.6024
 7998TIP3    H145409   2.385   3.267  15.567  1.1429  2.2414 -0.4497
 7998TIP3    H245410   2.385   3.284  15.717 -0.3278 -2.0085  0.1101
 7999TIP3   OH245411   5.072   6.065  13.308  0.6110  0.7657 -0.6820
 7999TIP3    H145412   5.165   6.047  13.297  0.4887 -1.9293  2.1338
 7999TIP3    H245413   5.029   5.980  13.293 -1.1280  1.3425  0.8083
 8000TIP3   OH245414   4.465   4.366  10.543  0.6060  0.1263  0.4362
 8000TIP3    H145415   4.478   4.412  10.460 -2.0064 -0.7805 -0.5491
 8000TIP3    H245416   4.503   4.424  10.609 -0.3915  2.5238 -1.0297
 8001TIP3   OH245417   4.242   2.877   2.409  0.0626  0.1825 -0.3861
 8001TIP3    H145418   4.293   2.853   2.486 -1.4570  0.4829  0.7508
 8001TIP3    H245419   4.151   2.873   2.439 -0.4751  1.7863 -1.7309
 8002TIP3   OH245420   0.737   1.836  14.419  0.1141 -0.0964 -0.6332
 8002TIP3    H145421   0.778   1.771  14.477 -1.9263  0.9588  2.0722
 8002TIP3    H245422   0.677   1.785  14.365  2.6444 -1.2137 -2.5337
 8003TIP3   OH245423   3.056   2.115   1.312  0.3404 -0.5217 -0.1749
 8003TIP3    H145424   3.147   2.142   1.325  0.9029 -1.8966 -1.0494
 8003TIP3    H245425   3.006   2.167   1.374  1.4634  1.8089 -1.1543
 8004TIP3   OH245426   5.635   6.543  14.382  0.2090  0.2082 -0.4192
 8004TIP3    H145427   5.556   6.574  14.428  2.2174  0.5057  2.9991
 8004TIP3    H245428   5.637   6.449  14.399  0.1508  0.0469 -1.2643
 8005TIP3   OH245429   0.993   2.041  14.119 -0.2029  0.6951 -0.1765
 8005TIP3    H145430   1.035   2.053  14.034  0.8905  1.0505  0.4001
 8005TIP3    H245431   0.984   1.947  14.129  0.2861  0.6250 -0.3969
 8006TIP3   OH245432   0.803   4.486  11.218  0.1464  0.1021 -0.4738
 8006TIP3    H145433   0.791   4.450  11.306  0.2138 -0.5763 -0.7366
 8006TIP3    H245434   0.768   4.575  11.223 -0.9956 -0.3533 -0.0843
 8007TIP3   OH245435   5.757   6.361   3.548  0.1253  0.5254  0.1385
 8007TIP3    H145436   5.839   6.383   3.503  0.2529 -1.8271 -0.8006
 8007TIP3    H245437   5.746   6.432   3.612  2.1851  1.5920 -0.6356
 8008TIP3   OH245438   4.799   4.675   0.778  0.2331  0.5346 -0.0828
 8008TIP3    H145439   4.886   4.674   0.739  0.6303  1.7286  0.7610
 8008TIP3    H245440   4.803   4.743   0.845 -0.7805 -0.7043  1.2546
 8009TIP3   OH245441   1.759   4.489  14.753  0.5997 -0.0573 -0.1120
 8009TIP3    H145442   1.722   4.409  14.789  1.7870 -0.3178  0.5469
 8009TIP3    H245443   1.850   4.467  14.731  1.4662  1.5534  1.6744
 8010TIP3   OH245444   5.269   4.966  12.845  0.5275  0.2312 -0.4875
 8010TIP3    H145445   5.212   5.031  12.803  1.3880  0.4382 -1.3770
 8010TIP3    H245446   5.354   5.011  12.852  0.5183  0.0248  1.0585
 8011TIP3   OH245447   5.681   2.961  14.927 -0.2961  0.5286 -0.0521
 8011TIP3    H145448   5.718   2.957  14.839 -0.0566 -0.7378  0.1084
 8011TIP3    H245449   5.668   2.870  14.953  1.1188  0.8156  1.8404
 8012TIP3   OH245450   1.071   1.782  14.273  0.0292  0.3011 -0.2492
 8012TIP3    H145451   1.132   1.840  14.317  1.7752 -1.3159 -0.4501
 8012TIP3    H245452   1.037   1.725  14.343  0.7746 -0.5141 -0.5345
 8013TIP3   OH245453   3.986   1.041   0.647 -0.1138  0.1152 -0.2811
 8013TIP3    H145454   3.979   0.946   0.651  1.4587 -0.0217 -0.3890
 8013TIP3    H245455   3.916   1.073   0.704 -0.3403 -1.1114  0.1423
 8014TIP3   OH245456   2.997   4.065   4.771 -0.2706  0.6019 -0.0545
 8014TIP3    H145457   2.963   4.148   4.805  0.1706  1.5999 -1.9910
 8014TIP3    H245458   3.092   4.074   4.778 -0.2514 -0.1962  0.7610
 8015TIP3   OH245459   3.841   4.823   5.594  0.1132  0.4384 -0.2315
 8015TIP3    H145460   3.759   4.849   5.638 -1.3636 -0.3833 -2.4075
 8015TIP3    H245461   3.864   4.899   5.541 -0.5607 -0.1862 -1.4446
 8016TIP3   OH245462   6.285   5.777   1.568 -0.6161  0.1582 -0.1196
 8016TIP3    H145463   6.207   5.813   1.528 -0.7594  1.7463  1.5605
 8016TIP3    H245464   6.322   5.848   1.619 -0.0383 -1.6086  2.0007
 8017TIP3   OH245465   3.287   0.243   2.721 -0.3619  0.0938  0.2218
 8017TIP3    H145466   3.288   0.308   2.791 -2.1984 -0.2789  0.6290
 8017TIP3    H245467   3.200   0.204   2.726  0.3028 -1.5761 -0.7727
 8018TIP3   OH245468   0.489   6.564  11.734 -0.5155  0.3254 -0.0080
 8018TIP3    H145469   0.412   6.578  11.788 -0.0945 -1.2513  1.0262
 8018TIP3    H245470   0.501   6.469  11.734  1.6190  0.5784  0.1143
 8019TIP3   OH245471   6.070   4.784   5.680 -0.0143  0.2470  0.2803
 8019TIP3    H145472   6.028   4.733   5.610  0.4086  1.0263 -0.5583
 8019TIP3    H245473   6.007   4.853   5.700  0.9563  1.6077 -1.2003
 8020TIP3   OH245474   1.073   6.102  12.808  0.2517 -0.4468  0.2480
 8020TIP3    H145475   1.071   6.117  12.903  0.8974  2.3195 -0.1603
 8020TIP3    H245476   1.149   6.151  12.777 -0.0861 -1.1370 -1.7465
 8021TIP3   OH245477   1.024   5.414  15.215  0.1664 -0.7056  0.1007
 8021TIP3    H145478   1.034   5.441  15.306 -2.3325  0.2253  0.1331
 8021TIP3    H245479   1.072   5.479  15.165 -1.1355  0.6580  0.5732
 8022TIP3   OH245480   5.195   4.425   1.839  0.2979 -0.0762  0.0128
 8022TIP3    H145481   5.194   4.512   1.878  0.8147 -0.1814  0.2624
 8022TIP3    H245482   5.149   4.369   1.902  1.5717 -0.3438  0.7032
 8023TIP3   OH245483   1.049   4.232  16.059 -0.3335 -0.5170  1.2955
 8023TIP3    H145484   0.982   4.221  15.991 -0.2407  0.0880  1.0957
 8023TIP3    H245485   1.130   4.199  16.020 -0.4716 -1.0589  1.4594
 8024TIP3   OH245486   5.219   5.918  11.231  0.5015  0.0438 -0.0628
 8024TIP3    H145487   5.283   5.962  11.287  1.0002 -1.1212  0.2995
 8024TIP3    H245488   5.140   5.913  11.284  0.5587  0.1562  0.0345
 8025TIP3   OH245489   5.339   0.853  13.968 -0.0456  0.0428 -0.4484
 8025TIP3    H145490   5.245   0.863  13.984 -0.0508  1.7232 -1.4656
 8025TIP3    H245491   5.378   0.853  14.056 -1.0535 -1.3852  0.0071
 8026TIP3   OH245492   2.260   2.757  12.263  0.1542 -0.2644  0.4351
 8026TIP3    H145493   2.247   2.774  12.170 -0.9719  1.1988  0.8316
 8026TIP3    H245494   2.338   2.702  12.267 -0.7656 -1.7578 -1.4750
 8027TIP3   OH245495   0.984   2.784  13.232  0.0470  0.6172 -0.5450
 8027TIP3    H145496   0.973   2.761  13.324 -0.7293  0.9428 -0.5576
 8027TIP3    H245497   1.079   2.788  13.220  0.1545  0.4246  0.2018
 8028TIP3   OH245498   0.995   6.337  14.850 -0.2017  0.3402  0.0909
 8028TIP3    H145499   1.050   6.271  14.809 -1.3941 -0.8808  0.3947
 8028TIP3    H245500   0.971   6.299  14.935 -2.9286  0.0242 -0.7635
 8029TIP3   OH245501   5.275   6.466   2.455 -0.2981 -0.2940 -0.2974
 8029TIP3    H145502   5.218   6.503   2.521  0.2718  1.1054 -0.5627
 8029TIP3    H245503   5.273   6.530   2.383 -0.6364 -1.6119 -1.4753
 8030TIP3   OH245504   2.409   4.286  12.719  0.5016 -0.2724  0.3183
 8030TIP3    H145505   2.318   4.268  12.698  0.7324  0.7957 -1.6579
 8030TIP3    H245506   2.407   4.313  12.811 -1.0044 -1.3888  0.6334
 8031TIP3   OH245507   5.470   6.775   3.823  0.6186  0.0371 -0.3844
 8031TIP3    H145508   5.563   6.765   3.806  0.5276 -0.7525 -0.4460
 8031TIP3    H245509   5.458   6.868   3.839  1.2753  0.2665 -1.2277
 8032TIP3   OH245510   1.252   2.133   5.881 -0.3675  0.0519 -0.1421
 8032TIP3    H145511   1.202   2.107   5.958 -0.1553  0.2087  0.0483
 8032TIP3    H245512   1.265   2.227   5.892  1.1194 -0.2063  0.4793
 8033TIP3   OH245513   6.352   0.277   2.904  0.2059 -0.3418 -0.1592
 8033TIP3    H145514   6.375   0.270   2.811  3.3974 -1.1202  0.6243
 8033TIP3    H245515   6.424   0.328   2.942 -0.6714 -0.7062  2.0167
 8034TIP3   OH245516   3.049   2.100   4.844  0.0210 -0.1681 -0.7109
 8034TIP3    H145517   3.087   2.177   4.888  0.5263 -0.4318 -0.6824
 8034TIP3    H245518   3.118   2.035   4.847  0.0620 -0.1855 -1.9247
 8035TIP3   OH245519   4.758   3.280   1.970 -0.2034 -0.4473  0.2124
 8035TIP3    H145520   4.663   3.290   1.963 -0.2446 -1.7853 -1.4826
 8035TIP3    H245521   4.791   3.370   1.974 -1.4777  0.0453 -0.0131
 8036TIP3   OH245522   5.123   0.511  15.590  0.1821  0.2338 -0.5209
 8036TIP3    H145523   5.118   0.416  15.600 -0.6427 -0.1724 -4.2072
 8036TIP3    H245524   5.171   0.524  15.508  0.5053  3.0381  0.0486
 8037TIP3   OH245525   0.998   0.688   5.676  0.4510  0.3669  0.0013
 8037TIP3    H145526   1.030   0.768   5.635  0.7681  0.4835  0.4684
 8037TIP3    H245527   0.990   0.625   5.604 -1.1177  1.2266 -0.5941
 8038TIP3   OH245528   2.102   5.157  14.241 -0.3422 -0.1413  0.0124
 8038TIP3    H145529   2.008   5.167  14.257  0.1162  0.5794  2.3130
 8038TIP3    H245530   2.106   5.102  14.162 -2.6720 -1.7554  0.9610
 8039TIP3   OH245531   3.255   0.681   5.659 -0.2524  0.2580  0.1394
 8039TIP3    H145532   3.290   0.767   5.681  0.2053  0.2982 -0.7313
 8039TIP3    H245533   3.161   0.687   5.680 -0.5199  1.4750 -1.3599
 8040TIP3   OH245534   1.552   0.006   1.511  0.5275  0.1345  0.2519
 8040TIP3    H145535   1.599  -0.064   1.557  1.0833  0.6132  0.4279
 8040TIP3    H245536   1.468  -0.033   1.488 -0.0968  0.1094  2.3923
 8041TIP3   OH245537   4.321   4.533  15.513 -0.0273  0.0530  0.2223
 8041TIP3    H145538   4.376   4.503  15.441  0.2609  1.1121 -0.0064
 8041TIP3    H245539   4.382   4.555  15.583 -0.2101  0.5332  0.2315
 8042TIP3   OH245540   5.851   4.455  15.362  0.4935  0.3061  0.3596
 8042TIP3    H145541   5.776   4.449  15.421  0.2543  1.3181  0.1733
 8042TIP3    H245542   5.852   4.372  15.315  0.1431 -0.1416  1.1355
 8043TIP3   OH245543   5.570   5.849   5.214 -0.3408 -0.4420  0.3940
 8043TIP3    H145544   5.495   5.907   5.201 -0.6368 -0.9147 -0.0062
 8043TIP3    H245545   5.574   5.795   5.135 -0.3224 -1.2543  0.9418
 8044TIP3   OH245546   6.681   2.651   1.422 -0.3524 -0.1759  0.0905
 8044TIP3    H145547   6.764   2.691   1.447 -1.3715  0.6373  2.2727
 8044TIP3    H245548   6.659   2.691   1.338  2.1066 -1.4022 -1.1893
 8045TIP3   OH245549   4.619   5.936  16.220  0.2063 -0.6760  0.0205
 8045TIP3    H145550   4.704   5.975  16.201 -0.6067 -0.0475 -2.5752
 8045TIP3    H245551   4.584   5.989  16.292  1.2743  0.1671 -0.0642
 8046TIP3   OH245552   2.545   2.388  17.142 -0.3675  0.1678 -0.0802
 8046TIP3    H145553   2.620   2.361  17.194 -1.2816 -0.1748  1.0918
 8046TIP3    H245554   2.517   2.471  17.180 -0.9190  0.0201 -0.1492
 8047TIP3   OH245555   4.009   4.812   1.270  0.2209  0.3663 -0.6186
 8047TIP3    H145556   4.003   4.731   1.218 -0.3898 -0.9558  1.4342
 8047TIP3    H245557   3.969   4.879   1.214 -1.7067 -1.2979 -1.3314
 8048TIP3   OH245558   2.554   3.428   3.116 -0.2227  0.7221 -0.2630
 8048TIP3    H145559   2.480   3.415   3.176 -1.4309 -0.4157 -1.9441
 8048TIP3    H245560   2.616   3.360   3.138  0.1998  1.4885  0.9549
 8049TIP3   OH245561   6.005   6.114   0.192 -0.3279  0.3912 -0.9729
 8049TIP3    H145562   6.026   6.025   0.221 -1.6239  0.2989 -0.3019
 8049TIP3    H245563   5.968   6.102   0.104 -0.3478  0.2844 -0.9505
 8050TIP3   OH245564   0.658   6.348  10.980 -0.3052 -0.4322 -0.3524
 8050TIP3    H145565   0.663   6.417  10.914  0.0987 -2.3647 -2.4174
 8050TIP3    H245566   0.578   6.367  11.028 -1.1679  0.4528 -2.0814
 8051TIP3   OH245567   6.502   3.889   4.796 -0.5307 -0.2742 -0.8826
 8051TIP3    H145568   6.484   3.823   4.862 -1.6365  0.4487 -0.4422
 8051TIP3    H245569   6.582   3.859   4.752  2.3571  1.0655  3.1644
 8052TIP3   OH245570   6.678   4.838   4.227  0.3695 -0.6306 -0.3526
 8052TIP3    H145571   6.617   4.874   4.161 -1.5960 -1.2898  1.0537
 8052TIP3    H245572   6.739   4.784   4.176 -0.8606 -0.8020 -1.6891
 8053TIP3   OH245573   2.915   3.276   7.151 -0.9144  0.3546  0.3831
 8053TIP3    H145574   2.889   3.342   7.087 -2.5736 -1.3117 -0.7222
 8053TIP3    H245575   2.959   3.208   7.099 -0.0651  0.1333  1.3744
 8054TIP3   OH245576   5.213   3.971  16.473 -0.0068 -0.6259 -0.1822
 8054TIP3    H145577   5.252   3.995  16.557 -0.8004  1.7168 -0.4590
 8054TIP3    H245578   5.169   3.887  16.491  1.3530 -1.0568  1.2641
 8055TIP3   OH245579   2.638   2.395  13.278  0.5835  0.3806  0.1530
 8055TIP3    H145580   2.634   2.407  13.183  1.6809 -2.3379 -0.2637
 8055TIP3    H245581   2.549   2.415  13.309  0.0422  0.5800 -1.5146
 8056TIP3   OH245582   0.969   4.630  13.211 -0.9354  0.7077 -0.4165
 8056TIP3    H145583   0.902   4.568  13.241 -0.7519  0.2992 -0.8424
 8056TIP3    H245584   0.938   4.715  13.242 -0.7468  0.2964  0.9251
 8057TIP3   OH245585   5.275   3.135   3.026 -0.3251 -0.0681  0.0688
 8057TIP3    H145586   5.246   3.153   3.116 -0.7656 -1.1918  0.1507
 8057TIP3    H245587   5.195   3.140   2.974 -0.2854 -0.7980 -0.0591
 8058TIP3   OH245588   1.668   3.507  13.725  0.1731  0.0717  0.2702
 8058TIP3    H145589   1.670   3.602  13.731 -1.5493  0.0763  0.9311
 8058TIP3    H245590   1.749   3.479  13.768  1.5761  1.2849 -1.5261
 8059TIP3   OH245591   3.936   4.446  13.097  0.2583 -0.0370  0.3010
 8059TIP3    H145592   3.867   4.488  13.148  0.2394  0.6341 -0.2627
 8059TIP3    H245593   3.906   4.357  13.083 -0.1586  0.0456  0.6786
 8060TIP3   OH245594   4.146   0.205   4.802  0.1562 -0.3204  0.0396
 8060TIP3    H145595   4.171   0.187   4.892  1.7078 -1.0855 -0.5230
 8060TIP3    H245596   4.072   0.266   4.809  1.2531  0.8404  1.7844
 8061TIP3   OH245597   4.289   2.257  14.675  0.3744 -0.2191  0.0728
 8061TIP3    H145598   4.283   2.188  14.741  3.1987 -0.7286 -0.1318
 8061TIP3    H245599   4.251   2.219  14.596 -1.9345 -0.0200  1.0607
 8062TIP3   OH245600   6.415   5.557  12.335  0.0304  0.1095 -0.6154
 8062TIP3    H145601   6.325   5.579  12.357 -0.1893  0.2580 -1.6398
 8062TIP3    H245602   6.410   5.470  12.295  0.1981  0.5810 -1.6766
 8063TIP3   OH245603   4.949   4.973  12.041  0.2443  0.2543 -0.2500
 8063TIP3    H145604   4.864   5.016  12.052  0.2210  0.0568  0.4118
 8063TIP3    H245605   4.928   4.879  12.039  0.3368  0.2545 -1.2276
 8064TIP3   OH245606   1.754   1.948   0.367  0.5182 -0.0754 -0.5255
 8064TIP3    H145607   1.681   1.924   0.425  0.4491  0.6135 -0.3237
 8064TIP3    H245608   1.824   1.887   0.391  0.7551  0.7049  0.8369
 8065TIP3   OH245609   1.248   1.600  14.182  0.0449  0.0992 -0.6234
 8065TIP3    H145610   1.180   1.666  14.173  1.4416  1.5814 -0.4339
 8065TIP3    H245611   1.205   1.518  14.158 -2.3934  0.6662  1.5742
 8066TIP3   OH245612   5.132   1.862   2.468  0.2967  0.6758  0.1828
 8066TIP3    H145613   5.049   1.831   2.433  0.6909  0.4633 -0.5756
 8066TIP3    H245614   5.114   1.880   2.560 -0.8634  1.6610 -0.2223
 8067TIP3   OH245615   4.345   2.831   4.747  0.0570 -0.8191  0.6194
 8067TIP3    H145616   4.347   2.827   4.843  0.9182 -0.0010  0.6317
 8067TIP3    H245617   4.412   2.769   4.719 -0.9316 -1.8596  0.5243
 8068TIP3   OH245618   0.063   2.273   1.620 -0.3030 -0.2563 -0.0021
 8068TIP3    H145619  -0.009   2.212   1.601 -0.2822  0.6506 -3.4149
 8068TIP3    H245620   0.020   2.348   1.662 -0.9362 -0.9128  0.5228
 8069TIP3   OH245621   3.177   2.514  12.030  0.2399 -0.3809 -0.2123
 8069TIP3    H145622   3.166   2.516  11.935 -0.8824 -0.9985 -0.1010
 8069TIP3    H245623   3.267   2.542  12.044  0.5093 -0.5724 -1.4803
 8070TIP3   OH245624   4.791   4.535  15.299 -0.0166 -0.2685  0.0451
 8070TIP3    H145625   4.811   4.462  15.240  0.8773  0.3629 -0.4599
 8070TIP3    H245626   4.722   4.584  15.254  0.5431  0.1164 -0.4031
 8071TIP3   OH245627   4.711   4.815  14.861  0.1190 -0.1495 -0.1243
 8071TIP3    H145628   4.654   4.773  14.925  1.0593  2.2417  2.3901
 8071TIP3    H245629   4.799   4.789  14.887  0.5521  1.3942 -0.0412
 8072TIP3   OH245630   2.975   3.079  13.981  0.2963 -0.0414  0.0059
 8072TIP3    H145631   2.965   3.066  13.887  2.1851 -1.7827  0.0229
 8072TIP3    H245632   2.910   3.146  14.002 -2.5121 -1.9987 -1.9567
 8073TIP3   OH245633   3.764   2.774  12.478  0.3643  0.1382 -0.6768
 8073TIP3    H145634   3.807   2.854  12.509  1.0718 -0.1523 -0.8987
 8073TIP3    H245635   3.799   2.705  12.534 -0.9572  0.1160  0.1349
 8074TIP3   OH245636   4.421   4.122  12.061  1.2421  0.2432  0.5575
 8074TIP3    H145637   4.408   4.082  11.975  0.3675 -1.4700  1.4507
 8074TIP3    H245638   4.451   4.211  12.043  0.4463  0.1042 -1.5165
 8075TIP3   OH245639   2.005   3.301  10.734  0.3304 -0.0411  0.1048
 8075TIP3    H145640   2.050   3.326  10.815  2.8504 -0.4278 -1.1312
 8075TIP3    H245641   1.974   3.384  10.697  2.6617  0.5630 -0.5232
 8076TIP3   OH245642   1.490   2.196   5.777 -0.2986 -0.0010 -0.5426
 8076TIP3    H145643   1.547   2.119   5.789 -0.4202 -0.0542 -0.3135
 8076TIP3    H245644   1.405   2.168   5.810  0.1176  0.8572  1.3327
 8077TIP3   OH245645   1.499   3.394   2.498  0.2861  0.2694 -0.0720
 8077TIP3    H145646   1.418   3.361   2.538  0.6668 -1.4378 -0.6539
 8077TIP3    H245647   1.476   3.408   2.407  0.2105  1.3370  0.1135
 8078TIP3   OH245648   0.899   0.081  17.237  0.1721 -0.3307  0.5279
 8078TIP3    H145649   0.809   0.085  17.206  0.2197  0.4029  0.4826
 8078TIP3    H245650   0.892   0.088  17.332  0.2475  0.7677  0.4552
 8079TIP3   OH245651   5.669   0.007  11.491 -0.9171  0.0999  0.1935
 8079TIP3    H145652   5.691   0.061  11.566 -1.6905 -0.6286  0.9600
 8079TIP3    H245653   5.752  -0.005  11.444 -0.7145  1.7852  0.1028
 8080TIP3   OH245654   6.148   2.807  15.562 -0.3295  0.4478 -0.1000
 8080TIP3    H145655   6.103   2.725  15.581 -0.0233  0.2741 -0.1145
 8080TIP3    H245656   6.199   2.788  15.483 -1.5599  1.1476 -1.0761
 8081TIP3   OH245657   2.914   4.945  13.402  0.3112  0.5993  0.0516
 8081TIP3    H145658   2.916   4.852  13.424 -3.7605  0.2181 -0.8022
 8081TIP3    H245659   2.951   4.950  13.314  1.0831 -0.1563  0.3340
 8082TIP3   OH245660   2.981   3.314  13.322  0.4984  0.0821 -0.0474
 8082TIP3    H145661   3.056   3.373  13.327  0.0917  0.9503 -3.2011
 8082TIP3    H245662   3.011   3.241  13.268  0.7790 -2.3982  3.2672
 8083TIP3   OH245663   0.860   4.336   4.728 -0.1722  0.2516  0.3496
 8083TIP3    H145664   0.834   4.300   4.643  0.5802 -0.1956  0.3005
 8083TIP3    H245665   0.780   4.337   4.780 -0.8790  1.5585 -0.7218
 8084TIP3   OH245666   1.592   6.307  12.891  0.4454 -0.9936  0.5475
 8084TIP3    H145667   1.576   6.213  12.902 -3.2567 -0.2660  2.3540
 8084TIP3    H245668   1.521   6.336  12.832  0.9710  0.8320  0.7752
 8085TIP3   OH245669   6.509   0.280   5.480 -0.1687  0.8696  0.0265
 8085TIP3    H145670   6.525   0.230   5.400 -0.7125  1.6997 -0.6172
 8085TIP3    H245671   6.447   0.227   5.529  0.9068 -0.1011  0.3451
 8086TIP3   OH245672   6.502   2.689   0.182 -0.3923 -0.3136  0.1239
 8086TIP3    H145673   6.536   2.710   0.096 -1.1916  0.7302  0.0470
 8086TIP3    H245674   6.464   2.772   0.214 -0.0428 -0.6620  1.4950
 8087TIP3   OH245675   6.349   6.437  11.424  0.5155 -0.5333  0.1506
 8087TIP3    H145676   6.387   6.380  11.357  0.2195  0.5606 -0.9714
 8087TIP3    H245677   6.425   6.472  11.472  0.7207 -1.4074  0.4656
 8088TIP3   OH245678   1.743   4.206   2.702  0.2888  0.0077 -0.9267
 8088TIP3    H145679   1.833   4.176   2.689  0.1427 -0.9406  0.1031
 8088TIP3    H245680   1.703   4.137   2.756 -0.9900  0.5170 -1.2125
 8089TIP3   OH245681   3.259   4.554   4.903  0.0634  0.7415  0.1334
 8089TIP3    H145682   3.324   4.485   4.916 -0.5334  0.4179  1.4653
 8089TIP3    H245683   3.281   4.621   4.967 -1.6682  0.0589  1.4912
 8090TIP3   OH245684   5.961   2.481   2.508  0.2192  0.0407 -0.1864
 8090TIP3    H145685   5.961   2.400   2.559 -1.6186 -0.4452 -0.9162
 8090TIP3    H245686   5.936   2.549   2.571  1.4071  0.0027  0.3431
 8091TIP3   OH245687   1.092   6.084   4.825 -0.5666 -0.4258  0.6353
 8091TIP3    H145688   1.181   6.118   4.822 -0.5557 -0.3140  1.8764
 8091TIP3    H245689   1.044   6.149   4.877 -1.3535 -0.5118  0.0229
 8092TIP3   OH245690   1.841   4.930   3.862  0.7574 -0.0681 -0.5586
 8092TIP3    H145691   1.769   4.942   3.924  0.7011  3.9487 -1.2738
 8092TIP3    H245692   1.798   4.920   3.777  0.9812  1.7658 -0.9081
 8093TIP3   OH245693   4.823   6.593  10.688  0.2253  0.6262  0.1684
 8093TIP3    H145694   4.745   6.546  10.716 -0.4167  1.1588 -0.6914
 8093TIP3    H245695   4.896   6.545  10.727 -0.3979 -1.2635 -0.9233
 8094TIP3   OH245696   1.450   6.167   5.726 -0.2755 -0.4685  0.2752
 8094TIP3    H145697   1.501   6.189   5.648  0.3353 -3.1912 -0.1623
 8094TIP3    H245698   1.516   6.156   5.795 -0.6648  0.2350  0.7620
 8095TIP3   OH245699   4.860   2.760  16.350 -0.9771  0.3309  0.7219
 8095TIP3    H145700   4.884   2.814  16.426  2.0950  0.3439 -0.1633
 8095TIP3    H245701   4.786   2.806  16.311 -0.5339  2.1216  1.8726
 8096TIP3   OH245702   4.844   2.958  13.447 -0.4819  0.9664 -0.0589
 8096TIP3    H145703   4.881   3.044  13.469 -1.0598  1.2063 -0.0289
 8096TIP3    H245704   4.751   2.974  13.433 -0.8174  0.1341  1.1495
 8097TIP3   OH245705   4.579   1.604  11.985  0.1714 -0.1428  0.1310
 8097TIP3    H145706   4.484   1.621  11.983  0.3531  1.2758  2.1154
 8097TIP3    H245707   4.608   1.623  11.895 -1.1935  0.9469 -0.1053
 8098TIP3   OH245708   1.111   0.440  11.770 -0.6305 -0.1231  1.4222
 8098TIP3    H145709   1.175   0.421  11.839  0.6884  1.1822  0.5797
 8098TIP3    H245710   1.153   0.409  11.690 -0.4272  2.0355  0.6713
 8099TIP3   OH245711   5.102   0.728  11.341 -0.1137  0.0989  0.0843
 8099TIP3    H145712   5.027   0.772  11.381 -0.0529  1.0650 -0.8469
 8099TIP3    H245713   5.154   0.799  11.304  0.0271 -0.7583 -1.3863
 8100TIP3   OH245714   4.846   3.905   0.692  0.3418 -0.6445 -0.2277
 8100TIP3    H145715   4.788   3.956   0.748 -1.0893 -2.0009 -0.4116
 8100TIP3    H245716   4.883   3.838   0.750 -0.1754 -1.2789 -0.6135
 8101TIP3   OH245717   5.954   0.635  16.958  0.1092  0.5277 -0.7297
 8101TIP3    H145718   5.901   0.710  16.929 -0.0574  0.1483 -1.4372
 8101TIP3    H245719   5.892   0.579  17.005 -0.3327 -0.3374 -2.3085
 8102TIP3   OH245720   2.876   5.037  15.976 -0.7113  0.0402 -0.8309
 8102TIP3    H145721   2.832   4.972  16.031  0.5600 -0.3185 -0.2241
 8102TIP3    H245722   2.889   5.112  16.034 -0.6479  0.1973 -1.0518
 8103TIP3   OH245723   1.977   1.961  14.479 -0.2266 -0.5448 -0.1621
 8103TIP3    H145724   1.978   1.893  14.547  1.6557 -0.5269 -0.1288
 8103TIP3    H245725   2.064   1.954  14.438 -0.9906  0.0800 -1.9225
 8104TIP3   OH245726   4.370   2.911   4.469 -0.3830  0.3114  0.1295
 8104TIP3    H145727   4.320   2.874   4.542  0.3043 -1.4607 -0.2565
 8104TIP3    H245728   4.324   2.882   4.391  0.4636 -0.2137 -0.1902
 8105TIP3   OH245729   3.110   2.909  11.846  0.7513  0.1289 -0.1276
 8105TIP3    H145730   3.017   2.905  11.870  0.9962  0.3111  0.8690
 8105TIP3    H245731   3.137   2.818  11.839  0.4602  0.0739 -0.5832
 8106TIP3   OH245732   2.179   5.898   2.438 -0.2988  0.1002  0.0733
 8106TIP3    H145733   2.137   5.850   2.510  1.6182 -0.2501  0.9915
 8106TIP3    H245734   2.268   5.915   2.469  0.1746  1.0460 -1.7260
 8107TIP3   OH245735   4.958   6.766   3.993  0.2123  0.8635 -0.1861
 8107TIP3    H145736   4.951   6.860   4.006  2.1226  1.1767 -1.2259
 8107TIP3    H245737   5.049   6.745   4.013  0.1251 -0.5477 -1.1731
 8108TIP3   OH245738   3.146   0.071   3.366 -0.0347 -0.3807  0.2468
 8108TIP3    H145739   3.053   0.088   3.351  0.4749  1.8809 -0.5141
 8108TIP3    H245740   3.180   0.043   3.281  0.1869 -0.2336  0.2871
 8109TIP3   OH245741   6.182   2.735  10.335 -0.0979  0.0290  0.2631
 8109TIP3    H145742   6.177   2.805  10.400  1.4162 -1.2947  1.8702
 8109TIP3    H245743   6.098   2.690  10.340 -0.3043  0.4664  0.6860
 8110TIP3   OH245744   5.587   5.848   2.926 -0.2742  0.7961  0.7415
 8110TIP3    H145745   5.538   5.785   2.874  0.7463  0.0958  0.6087
 8110TIP3    H245746   5.520   5.899   2.972 -1.1547  0.8967 -0.6301
 8111TIP3   OH245747   2.097   2.256   5.184 -0.1341  0.2392  0.3452
 8111TIP3    H145748   2.170   2.317   5.190  1.9089 -2.1316  0.4649
 8111TIP3    H245749   2.125   2.192   5.119 -1.7217 -1.2208  1.0712
 8112TIP3   OH245750   2.051   3.481  11.594 -0.4869  0.0686 -0.7530
 8112TIP3    H145751   1.957   3.470  11.577 -0.5275 -0.1576 -0.3907
 8112TIP3    H245752   2.065   3.437  11.677 -0.4579  1.9077  0.2379
 8113TIP3   OH245753   0.735   4.063  11.206 -0.5333 -0.0740 -0.9025
 8113TIP3    H145754   0.824   4.085  11.231 -0.9052  0.1018  0.3120
 8113TIP3    H245755   0.731   3.968  11.207 -1.2512 -0.0687  2.3950
 8114TIP3   OH245756   2.871   5.936  13.480 -0.3748  0.2112  0.4246
 8114TIP3    H145757   2.933   5.866  13.501 -0.5941 -0.5994 -1.4813
 8114TIP3    H245758   2.917   5.992  13.418  0.1618  2.3790  2.7004
 8115TIP3   OH245759   2.512   1.036   4.512 -0.1237  0.1347  0.3045
 8115TIP3    H145760   2.571   1.105   4.542  0.0339 -0.7524  2.0834
 8115TIP3    H245761   2.438   1.083   4.473  0.4588  1.2756  0.5634
 8116TIP3   OH245762   1.359   3.871  11.701  0.0729  0.0224 -0.4316
 8116TIP3    H145763   1.365   3.852  11.607  2.2456 -3.3066  0.2933
 8116TIP3    H245764   1.284   3.820  11.731  0.0570  0.1935 -0.1796
 8117TIP3   OH245765   3.676   1.257   1.263 -0.2065 -0.3537 -0.4812
 8117TIP3    H145766   3.600   1.300   1.303 -0.1981 -1.7296  1.0397
 8117TIP3    H245767   3.751   1.305   1.297 -0.2279 -1.1879  0.7676
 8118TIP3   OH245768   4.996   4.410  16.121  0.2325  0.7244  0.2931
 8118TIP3    H145769   4.910   4.384  16.153 -0.0275  0.7722 -0.3706
 8118TIP3    H245770   5.002   4.503  16.143  0.4500  0.5271  1.0797
 8119TIP3   OH245771   5.062   3.186   2.859 -0.6450  0.1203  0.1777
 8119TIP3    H145772   5.005   3.112   2.836  1.6159 -1.5138 -0.3657
 8119TIP3    H245773   5.028   3.259   2.809 -1.2678 -1.2352 -1.4344
 8120TIP3   OH245774   2.026   4.315   6.119  0.8522 -0.0747  0.0593
 8120TIP3    H145775   1.999   4.295   6.029  2.1896 -1.4220 -0.0674
 8120TIP3    H245776   1.955   4.368   6.155  0.2112  0.2888 -1.7272
 8121TIP3   OH245777   2.814   5.879   1.387  0.1826  1.1460 -0.0201
 8121TIP3    H145778   2.827   5.789   1.415  2.2693  0.5193 -2.7799
 8121TIP3    H245779   2.895   5.924   1.413 -0.2571  1.8694  0.0918
 8122TIP3   OH245780   3.813   2.672   4.653  0.2167 -0.3365  0.3558
 8122TIP3    H145781   3.801   2.760   4.616  0.3238 -0.4088  0.1523
 8122TIP3    H245782   3.907   2.658   4.652  0.2141 -0.3742  0.5765
 8123TIP3   OH245783   1.987   5.237  11.130  0.3507 -0.2129 -0.4314
 8123TIP3    H145784   2.022   5.152  11.156 -2.5260 -1.0192  0.9542
 8123TIP3    H245785   1.984   5.287  11.212  0.9237  0.8488 -1.0444
 8124TIP3   OH245786   0.554   0.346  14.586  0.3273  0.2527  0.4209
 8124TIP3    H145787   0.500   0.267  14.592  0.7857 -0.1070 -0.1000
 8124TIP3    H245788   0.492   0.418  14.588 -0.1254 -0.1389  0.4732
 8125TIP3   OH245789   0.910   0.905  15.599 -0.1748  0.1651 -0.0018
 8125TIP3    H145790   0.851   0.830  15.611 -1.4336  1.1667  0.1950
 8125TIP3    H245791   0.994   0.866  15.574 -1.3254 -1.2108 -1.7768
 8126TIP3   OH245792   6.159   1.005   2.143 -0.1299  0.2662  0.0533
 8126TIP3    H145793   6.137   0.911   2.148  0.8235  0.1359  1.9975
 8126TIP3    H245794   6.078   1.050   2.166 -0.1212 -0.1078  0.8123
 8127TIP3   OH245795   0.621   6.566  12.899  0.0949  0.0910 -0.2094
 8127TIP3    H145796   0.565   6.531  12.968 -0.6429 -1.4421 -1.5840
 8127TIP3    H245797   0.617   6.661  12.912  0.7516 -0.1899  2.4625
 8128TIP3   OH245798   3.680   2.114   1.436  0.3391  0.6504 -0.6677
 8128TIP3    H145799   3.723   2.035   1.468  0.4988  0.4015 -1.4873
 8128TIP3    H245800   3.601   2.083   1.392  0.3896  0.9475 -0.9683
 8129TIP3   OH245801   6.287   6.734   0.144 -0.0065  0.1681 -0.3906
 8129TIP3    H145802   6.285   6.736   0.239 -0.3028 -0.6726 -0.3799
 8129TIP3    H245803   6.313   6.645   0.122 -1.1934 -0.0090 -1.1225
 8130TIP3   OH245804   3.667   3.521   4.430 -0.1562 -0.4536 -0.0261
 8130TIP3    H145805   3.747   3.471   4.410 -0.1838 -0.4086 -0.2568
 8130TIP3    H245806   3.596   3.458   4.416 -0.3312  0.2164 -2.3574
 8131TIP3   OH245807   3.625   4.486  14.281 -0.0414  0.6039 -0.2822
 8131TIP3    H145808   3.670   4.523  14.205  0.4346 -0.4508 -0.5251
 8131TIP3    H245809   3.532   4.483  14.255  0.3384 -1.3380 -1.4887
 8132TIP3   OH245810   2.184   6.620  16.560  0.5107 -0.0386  0.5755
 8132TIP3    H145811   2.251   6.580  16.505  0.3411  0.9003 -0.3349
 8132TIP3    H245812   2.178   6.563  16.636  3.4699  0.7234  1.4539
 8133TIP3   OH245813   1.718   6.438  10.725 -0.2484 -0.0413 -0.1459
 8133TIP3    H145814   1.794   6.447  10.666 -0.9970  0.2242 -1.0816
 8133TIP3    H245815   1.732   6.354  10.768  0.7586  0.1587 -0.0556
 8134TIP3   OH245816   4.202   1.984   0.509  0.1512 -0.4675  0.0018
 8134TIP3    H145817   4.189   2.064   0.560  0.4714  0.1554 -0.8818
 8134TIP3    H245818   4.166   2.005   0.423  3.6199  0.0222 -1.3913
 8135TIP3   OH245819   1.464   1.652  13.457 -0.2034  0.0237 -0.3134
 8135TIP3    H145820   1.401   1.684  13.393 -1.8895  1.6144  2.0200
 8135TIP3    H245821   1.515   1.729  13.482 -1.7699  0.2020  2.5979
 8136TIP3   OH245822   3.797   0.818  12.422  0.2856  0.6886  0.0016
 8136TIP3    H145823   3.831   0.904  12.447  0.4944  0.1980  1.4749
 8136TIP3    H245824   3.765   0.780  12.504  1.3315 -1.1329 -0.4012
 8137TIP3   OH245825   5.906   4.317  12.093 -0.2476 -0.7161  0.2031
 8137TIP3    H145826   5.862   4.295  12.011 -0.2929  0.5932 -0.1362
 8137TIP3    H245827   5.887   4.410  12.106 -0.9367 -1.0975  2.1210
 8138TIP3   OH245828   4.834   2.097  10.885  0.1902  0.0380  0.0156
 8138TIP3    H145829   4.768   2.095  10.954 -0.0454  0.2645 -0.2058
 8138TIP3    H245830   4.882   2.015  10.896  1.1495  0.7633  1.4341
 8139TIP3   OH245831   2.547   3.454  16.885 -0.0032 -0.8275 -0.4588
 8139TIP3    H145832   2.642   3.448  16.874 -0.1393 -0.7734 -1.7100
 8139TIP3    H245833   2.528   3.398  16.961  0.9561 -1.3405 -0.5874
 8140TIP3   OH245834   5.566   2.229   6.494 -0.5939 -0.4669  0.3655
 8140TIP3    H145835   5.594   2.265   6.579  0.5647 -0.5625  0.0346
 8140TIP3    H245836   5.646   2.191   6.457 -1.2673 -1.1207 -0.4224
 8141TIP3   OH245837   4.147   0.315   4.162  0.2623 -0.3640 -0.3623
 8141TIP3    H145838   4.202   0.314   4.084  0.4942 -1.3714 -0.1923
 8141TIP3    H245839   4.072   0.369   4.138 -1.1978 -3.1548 -2.3422
 8142TIP3   OH245840   0.503   2.526   1.086 -0.1754  0.0991  0.5154
 8142TIP3    H145841   0.481   2.515   0.994 -0.8385 -1.9251  0.8929
 8142TIP3    H245842   0.423   2.504   1.133  0.7016 -0.7651  1.6525
 8143TIP3   OH245843   3.411   2.611   1.679 -0.7129 -0.4259 -0.3762
 8143TIP3    H145844   3.505   2.613   1.693 -0.9359 -0.7039  1.3021
 8143TIP3    H245845   3.400   2.631   1.586  1.0566 -1.7789 -0.8988
 8144TIP3   OH245846   3.741   2.801  13.357 -0.0751  0.8598 -0.2819
 8144TIP3    H145847   3.718   2.894  13.346  3.1631  1.5594 -1.9632
 8144TIP3    H245848   3.713   2.760  13.275  1.5540  1.0803 -0.9760
 8145TIP3   OH245849   5.680   3.796   3.946 -0.2073 -0.2858  0.0207
 8145TIP3    H145850   5.663   3.846   3.866 -0.3005  0.5954  0.5901
 8145TIP3    H245851   5.615   3.725   3.945  0.5476 -0.9899 -1.2823
 8146TIP3   OH245852   2.398   1.286   4.573  0.3959 -0.3455 -0.4702
 8146TIP3    H145853   2.314   1.330   4.562  0.5998 -0.1818 -1.4728
 8146TIP3    H245854   2.462   1.345   4.533  0.8524 -0.9101 -0.5890
 8147TIP3   OH245855   5.498   5.057   3.119 -0.4548 -0.5210 -0.4852
 8147TIP3    H145856   5.427   5.076   3.181 -0.7189  0.7927 -1.1786
 8147TIP3    H245857   5.533   5.143   3.095  1.6705 -1.1731  0.1839
 8148TIP3   OH245858   1.131   0.928   0.646 -0.2034  0.1594  0.3552
 8148TIP3    H145859   1.056   0.938   0.588 -1.0977 -0.9787  1.2958
 8148TIP3    H245860   1.185   1.006   0.629 -1.1669  0.5636 -0.9251
 8149TIP3   OH245861   3.052   0.888   4.079  0.4004 -0.9024 -0.1458
 8149TIP3    H145862   3.093   0.876   3.993  1.9972  1.1610  0.3015
 8149TIP3    H245863   3.020   0.978   4.079  0.5585 -0.8313  1.4987
 8150TIP3   OH245864   1.869   4.566   6.068 -0.5410 -0.2180  0.1673
 8150TIP3    H145865   1.883   4.644   6.123  0.7865  0.2263 -0.7839
 8150TIP3    H245866   1.776   4.546   6.079 -0.8598  1.4028  0.5565
 8151TIP3   OH245867   3.956   3.730  15.697 -0.4733 -0.0022  0.1795
 8151TIP3    H145868   3.898   3.800  15.728 -1.8496 -1.0251  0.0032
 8151TIP3    H245869   3.906   3.688  15.627  0.7413 -0.5444 -0.3599
 8152TIP3   OH245870   3.065   5.792   0.605  0.0170 -0.4697 -0.0820
 8152TIP3    H145871   3.052   5.778   0.699  1.8889 -0.4797  0.2019
 8152TIP3    H245872   3.113   5.875   0.600 -0.0568 -0.4780 -1.0263
 8153TIP3   OH245873   3.137   3.974  15.590  0.2881 -1.1652  0.7696
 8153TIP3    H145874   3.120   4.050  15.534  1.3636 -1.2841  0.2526
 8153TIP3    H245875   3.051   3.938  15.609 -0.0005 -2.6012 -2.8929
 8154TIP3   OH245876   6.712   0.040  15.994  0.2261 -0.5302 -0.0508
 8154TIP3    H145877   6.719   0.048  16.090 -0.8665 -2.0455  0.1641
 8154TIP3    H245878   6.775  -0.028  15.971  1.7633  1.0495 -0.6381
 8155TIP3   OH245879   1.356   4.959   1.662 -0.0673  0.0658 -0.1261
 8155TIP3    H145880   1.403   5.004   1.592  0.0194  1.3676  0.7603
 8155TIP3    H245881   1.269   4.941   1.624 -0.5350  2.1262 -0.0614
 8156TIP3   OH245882   6.366   0.444  14.889  0.0270  0.0027 -0.7415
 8156TIP3    H145883   6.403   0.369  14.936  0.5995  1.3992  1.1190
 8156TIP3    H245884   6.414   0.446  14.806  2.2617  0.1873  0.5069
 8157TIP3   OH245885   3.248   4.854   1.012 -0.4978 -0.1093 -0.5290
 8157TIP3    H145886   3.265   4.834   0.920  1.9322 -3.1598  0.5102
 8157TIP3    H245887   3.185   4.787   1.039 -1.7891  1.2385 -0.1330
 8158TIP3   OH245888   4.060   4.999  11.809 -0.2180  0.2346 -0.2146
 8158TIP3    H145889   4.123   5.041  11.750 -1.4902  1.1004 -0.9978
 8158TIP3    H245890   4.034   5.068  11.869 -0.0531 -0.2542  0.4248
 8159TIP3   OH245891   2.831   1.629   6.269 -0.2671  0.4566  0.9827
 8159TIP3    H145892   2.854   1.722   6.268 -1.4417  0.7351  0.0087
 8159TIP3    H245893   2.741   1.627   6.300 -0.7402 -0.2505 -0.4196
 8160TIP3   OH245894   3.505   2.307   5.437 -0.3698  0.1091  1.0586
 8160TIP3    H145895   3.453   2.232   5.408  0.8682 -0.6917  0.8452
 8160TIP3    H245896   3.472   2.327   5.524 -1.1448 -0.2827  0.8578
 8161TIP3   OH245897   2.738   3.292  13.793 -0.3610  0.2677  0.4197
 8161TIP3    H145898   2.667   3.229  13.781 -1.4849  1.8349 -1.7017
 8161TIP3    H245899   2.813   3.253  13.749 -0.1876 -0.9646  1.8090
 8162TIP3   OH245900   4.452   5.786  15.493  0.0865 -0.3705  0.7404
 8162TIP3    H145901   4.379   5.755  15.547 -0.9165  0.1152 -0.3139
 8162TIP3    H245902   4.480   5.867  15.535 -1.2331  0.4458  0.1111
 8163TIP3   OH245903   4.767   4.638  12.466  0.4073  0.3521  0.0641
 8163TIP3    H145904   4.708   4.569  12.498 -0.3432  1.1347  0.4106
 8163TIP3    H245905   4.725   4.719  12.494  2.0323  0.9121  0.9495
 8164TIP3   OH245906   4.976   2.096   1.734  0.0165 -0.7367  0.0975
 8164TIP3    H145907   5.067   2.104   1.762  1.4905 -4.9351 -2.9536
 8164TIP3    H245908   4.938   2.031   1.793 -1.0380  0.9461  1.3111
 8165TIP3   OH245909   6.059   0.001  11.612 -0.1082 -0.8855  0.3353
 8165TIP3    H145910   6.006  -0.058  11.667 -1.2896 -1.6875 -1.6204
 8165TIP3    H245911   6.080  -0.051  11.535  1.6993  0.1801  0.0827
 8166TIP3   OH245912   4.342   0.764  15.966 -0.4964 -0.4949 -0.5898
 8166TIP3    H145913   4.340   0.838  15.906 -1.2515  0.6141  0.7958
 8166TIP3    H245914   4.371   0.690  15.912 -0.7966  0.5698 -2.2195
 8167TIP3   OH245915   3.068   3.138   6.673  0.7765  0.3142 -0.0692
 8167TIP3    H145916   3.048   3.209   6.612  1.2700  0.9476  0.4972
 8167TIP3    H245917   3.087   3.063   6.618 -0.7453  0.3409 -0.6695
 8168TIP3   OH245918   2.067   3.542   4.756 -0.4038 -1.0283 -0.1695
 8168TIP3    H145919   2.000   3.555   4.689 -0.7902  0.6986  0.5262
 8168TIP3    H245920   2.103   3.629   4.771  1.5970 -1.8488 -0.1065
 8169TIP3   OH245921   4.567   0.935   4.241 -0.2465 -0.3532  0.1673
 8169TIP3    H145922   4.482   0.893   4.251 -0.2689 -0.2673  0.3583
 8169TIP3    H245923   4.549   1.028   4.252 -0.4280 -0.1561 -1.7743
 8170TIP3   OH245924   4.988   6.773  12.137 -0.3941 -0.1405  0.3734
 8170TIP3    H145925   4.904   6.776  12.183  1.0038 -2.7883  3.3359
 8170TIP3    H245926   5.045   6.829  12.190  0.5065 -0.9475  0.2701
 8171TIP3   OH245927   4.080   2.255   4.289 -0.1976 -0.1799  0.6796
 8171TIP3    H145928   4.081   2.342   4.249  0.0314 -0.4270  0.1374
 8171TIP3    H245929   4.172   2.238   4.311 -0.1176 -0.6333  0.0113
 8172TIP3   OH245930   3.956   2.657  13.477  0.3778  0.1578  0.2447
 8172TIP3    H145931   3.951   2.562  13.466  0.3218  0.1685  0.1821
 8172TIP3    H245932   3.878   2.691  13.434 -1.1244  0.0270  2.8053
 8173TIP3   OH245933   5.076   0.651  13.467 -0.3928  0.4688 -0.5205
 8173TIP3    H145934   5.085   0.563  13.431  2.3051  1.6580 -2.9032
 8173TIP3    H245935   5.012   0.694  13.411 -1.8722 -0.0157  0.7739
 8174TIP3   OH245936   4.053   0.082   2.170  0.1981 -0.5477  0.2966
 8174TIP3    H145937   4.146   0.102   2.161 -0.5213  2.0659 -1.7789
 8174TIP3    H245938   4.030   0.114   2.257  0.6364  1.3652 -0.2671
 8175TIP3   OH245939   3.250   6.610  12.668 -0.4731 -0.0228  0.3250
 8175TIP3    H145940   3.203   6.691  12.687  1.5617  1.6055 -1.3515
 8175TIP3    H245941   3.186   6.541  12.683 -2.3397  1.8940  1.5097
 8176TIP3   OH245942   4.440   2.344  11.295 -0.2900 -0.0195  0.5367
 8176TIP3    H145943   4.411   2.300  11.375 -1.5724  1.7726  1.0818
 8176TIP3    H245944   4.385   2.306  11.226 -1.4663  0.7835  1.0193
 8177TIP3   OH245945   3.920   0.696  15.377 -1.1431 -0.1550  0.4635
 8177TIP3    H145946   3.854   0.764  15.362 -1.5206 -0.2901  1.4611
 8177TIP3    H245947   3.886   0.645  15.451  1.2841  1.3529  2.7515
 8178TIP3   OH245948   2.169   4.760  15.933 -0.1405  0.5056 -0.3311
 8178TIP3    H145949   2.214   4.676  15.939 -0.5552  0.3750  1.1333
 8178TIP3    H245950   2.088   4.747  15.982  0.8822  2.4636  1.9288
 8179TIP3   OH245951   5.087   4.488  11.171  0.2644 -0.7863  0.0826
 8179TIP3    H145952   5.084   4.526  11.084  1.2277 -1.8961 -0.4495
 8179TIP3    H245953   5.158   4.534  11.215  0.4466 -0.9320 -0.0592
 8180TIP3   OH245954   4.635   2.633  13.561  0.1792 -0.2523  0.3792
 8180TIP3    H145955   4.540   2.622  13.552  0.1715  0.8629 -1.1630
 8180TIP3    H245956   4.672   2.572  13.497  0.4431  0.4468 -0.1457
 8181TIP3   OH245957   1.544   0.503   5.814  0.5195  0.6585 -0.4707
 8181TIP3    H145958   1.623   0.460   5.849  0.6742  1.4415  0.1444
 8181TIP3    H245959   1.520   0.449   5.739 -0.2212 -1.4524  1.2255
 8182TIP3   OH245960   4.001   1.270  11.460  0.3751 -0.7747  0.6808
 8182TIP3    H145961   3.988   1.180  11.433  1.3481 -0.1831 -1.9282
 8182TIP3    H245962   4.093   1.288  11.442  0.1632  0.7571  1.0165
 8183TIP3   OH245963   0.755   5.769   3.703  0.2631 -0.1295  0.3075
 8183TIP3    H145964   0.804   5.767   3.786 -0.3607  0.9282  0.7039
 8183TIP3    H245965   0.673   5.725   3.724  0.0802  0.1938  0.2682
 8184TIP3   OH245966   0.798   4.859  15.454  0.6443 -0.7691  0.3266
 8184TIP3    H145967   0.845   4.870  15.372  1.3347  1.2469  0.9554
 8184TIP3    H245968   0.776   4.948  15.481 -0.7890 -1.4861  1.6355
 8185TIP3   OH245969   6.592   1.578   6.247  0.4358  0.5009 -0.1030
 8185TIP3    H145970   6.518   1.604   6.303 -0.4283 -0.4230 -0.7930
 8185TIP3    H245971   6.575   1.487   6.226  1.8171  0.2679 -0.2397
 8186TIP3   OH245972   5.894   5.283   5.271 -0.1625  0.4326 -0.0852
 8186TIP3    H145973   5.932   5.316   5.352 -0.0924 -0.1440  0.1141
 8186TIP3    H245974   5.954   5.312   5.203 -1.0726  2.3436 -0.1036
 8187TIP3   OH245975   0.634   5.197  15.168  0.0657 -0.1236 -0.1422
 8187TIP3    H145976   0.607   5.245  15.090  1.3911 -0.5585 -0.8809
 8187TIP3    H245977   0.638   5.105  15.140  1.2944 -0.1884  0.2262
 8188TIP3   OH245978   3.912   4.685  11.316 -0.4241 -0.5513  1.3502
 8188TIP3    H145979   3.828   4.645  11.339 -0.3098 -0.5201  1.8098
 8188TIP3    H245980   3.920   4.761  11.372 -0.9697  0.5355 -0.0220
 8189TIP3   OH245981   1.009   3.409  17.121  0.2011  0.3760 -0.9375
 8189TIP3    H145982   1.067   3.334  17.109 -0.1224 -0.8270  4.0549
 8189TIP3    H245983   1.066   3.480  17.149 -0.1690  0.3658 -0.1322
 8190TIP3   OH245984   6.284   0.375  13.607 -0.5480  0.2017 -0.7434
 8190TIP3    H145985   6.379   0.371  13.611 -0.6308 -1.4586  0.3706
 8190TIP3    H245986   6.259   0.304  13.548 -1.0932  0.8464 -1.3017
 8191TIP3   OH245987   1.068   3.166   3.195 -0.2386 -0.5474 -0.1135
 8191TIP3    H145988   1.070   3.244   3.250  1.5654 -1.3372  0.9928
 8191TIP3    H245989   1.057   3.200   3.106 -0.0305  0.9358  0.4061
 8192TIP3   OH245990   1.036   6.549   1.053 -0.2858  0.5751  0.7223
 8192TIP3    H145991   1.046   6.459   1.082  1.5971  1.8086  4.2177
 8192TIP3    H245992   1.068   6.550   0.963 -1.2780 -2.4042  0.3054
 8193TIP3   OH245993   2.533   0.962  11.362 -0.0013 -0.0546 -0.4305
 8193TIP3    H145994   2.537   1.000  11.274  1.0333 -0.9592 -0.7778
 8193TIP3    H245995   2.446   0.986  11.394  0.0865  1.3478 -1.2148
 8194TIP3   OH245996   1.760   5.861   0.093  0.0613  0.4662 -0.2233
 8194TIP3    H145997   1.675   5.883   0.130  0.2512 -1.5175  1.4495
 8194TIP3    H245998   1.750   5.771   0.062  2.3804 -0.8846  2.7143
 8195TIP3   OH245999   6.438   5.636  13.409 -0.3231  0.0341 -0.3910
 8195TIP3    H146000   6.480   5.594  13.483 -2.1726 -1.2916 -0.0806
 8195TIP3    H246001   6.407   5.720  13.443  1.0347  0.5210 -0.3302
 8196TIP3   OH246002   6.637   2.492   5.296  0.2673 -0.2046 -0.2100
 8196TIP3    H146003   6.571   2.429   5.324 -0.9462  0.3476 -1.7619
 8196TIP3    H246004   6.680   2.450   5.221  1.3578 -0.3589  0.4908
 8197TIP3   OH246005   1.023   3.934  16.706  0.5008 -0.3845  0.6340
 8197TIP3    H146006   1.081   3.945  16.781 -0.5530 -0.3367  1.4583
 8197TIP3    H246007   0.960   3.867  16.735  0.7168 -1.1293 -0.5904
 8198TIP3   OH246008   3.947   0.310   2.001 -0.0396 -0.1184 -0.3244
 8198TIP3    H146009   3.984   0.237   2.051 -0.0489  0.1262  0.0450
 8198TIP3    H246010   4.023   0.350   1.959  0.1901  0.6961  0.8478
 8199TIP3   OH246011   3.823   3.442  14.045 -0.1732 -0.5602  0.4306
 8199TIP3    H146012   3.898   3.498  14.026 -0.7560  0.6688  1.6090
 8199TIP3    H246013   3.815   3.445  14.141  0.8652 -4.1166  0.7034
 8200TIP3   OH246014   2.235   1.330  16.759  0.0698  0.6179 -0.5566
 8200TIP3    H146015   2.256   1.338  16.852 -5.0142  1.7016  0.6684
 8200TIP3    H246016   2.255   1.417  16.723  0.4098  0.7392 -0.0843
 8201TIP3   OH246017   4.382   6.210  15.230  0.2847 -0.3565  0.6139
 8201TIP3    H146018   4.461   6.176  15.190  1.3858  0.9133  1.6637
 8201TIP3    H246019   4.312   6.190  15.167  1.1443 -2.9307  0.4097
 8202TIP3   OH246020   5.125   4.458   1.076  0.1606 -0.2295  0.0835
 8202TIP3    H146021   5.034   4.430   1.066 -0.2774  1.5306 -1.1657
 8202TIP3    H246022   5.136   4.528   1.011  1.7819  1.0594  1.6903
 8203TIP3   OH246023   3.120   1.408   3.326  0.3698  0.3427 -0.1522
 8203TIP3    H146024   3.174   1.352   3.383  0.5468  0.2526 -0.4078
 8203TIP3    H246025   3.172   1.418   3.247 -0.8286 -1.3571 -1.1772
 8204TIP3   OH246026   4.998   5.828   1.898  0.0802  0.4211 -0.2354
 8204TIP3    H146027   4.965   5.918   1.895 -0.8222  0.0626 -3.5974
 8204TIP3    H246028   5.093   5.838   1.908  0.0324  1.7950 -0.9291
 8205TIP3   OH246029   6.762   3.062   0.885 -0.2683 -0.1073  0.5061
 8205TIP3    H146030   6.854   3.086   0.869  0.4739 -1.1829  3.0596
 8205TIP3    H246031   6.718   3.146   0.897 -0.1505  0.5682 -3.1171
 8206TIP3   OH246032   6.022   2.893   0.346  1.6068  0.5398 -0.3692
 8206TIP3    H146033   5.990   2.848   0.268 -2.7723  1.4373  0.7785
 8206TIP3    H246034   6.084   2.831   0.385 -1.4062 -2.9932 -0.8388
 8207TIP3   OH246035   2.254   3.914   2.608  0.5555  0.1428 -0.1680
 8207TIP3    H146036   2.258   3.903   2.513 -0.6541  0.9933 -0.3280
 8207TIP3    H246037   2.305   3.841   2.643  1.1431 -0.0856 -1.4742
 8208TIP3   OH246038   4.226   1.849   0.108 -0.1023 -0.8668  0.0424
 8208TIP3    H146039   4.188   1.809   0.030  1.2702 -1.0018 -0.5789
 8208TIP3    H246040   4.291   1.910   0.074 -0.9962  0.6669  1.0368
 8209TIP3   OH246041   5.378   2.350  12.967  0.2466  0.5803  0.1882
 8209TIP3    H146042   5.296   2.314  13.003 -0.0671  1.1807  0.0863
 8209TIP3    H246043   5.356   2.441  12.944  0.7947  0.5804 -0.3455
 8210TIP3   OH246044   3.597   5.895  11.154 -0.2563 -0.4561  0.8811
 8210TIP3    H146045   3.660   5.963  11.178 -0.9952 -0.0382  1.6930
 8210TIP3    H246046   3.599   5.892  11.059  1.8432 -1.2656  0.9162
 8211TIP3   OH246047   3.451   4.598   0.747 -0.4724  0.3771 -0.6927
 8211TIP3    H146048   3.528   4.561   0.704 -1.0919 -0.4798 -1.0715
 8211TIP3    H246049   3.465   4.693   0.744 -0.0177  0.2730 -1.8447
 8212TIP3   OH246050   3.266   1.072  16.259 -0.2233 -0.3031  0.5487
 8212TIP3    H146051   3.247   1.039  16.171  0.1257 -0.4863  0.5358
 8212TIP3    H246052   3.280   0.993  16.311 -3.1525 -0.2894  1.4299
 8213TIP3   OH246053   6.769   3.231  15.697 -0.4684 -0.1853 -0.5642
 8213TIP3    H146054   6.837   3.165  15.709 -1.3547 -0.9122  0.5873
 8213TIP3    H246055   6.779   3.291  15.771 -0.8435 -0.0825 -0.5904
 8214TIP3   OH246056   6.327   3.550  16.775  0.1385 -0.1663  0.2407
 8214TIP3    H146057   6.405   3.577  16.822  0.4503  0.1553 -0.4462
 8214TIP3    H246058   6.313   3.619  16.710 -0.3683 -0.5224 -0.0342
 8215TIP3   OH246059   1.101   2.266  14.432 -0.0071  0.0483 -0.1301
 8215TIP3    H146060   1.160   2.299  14.500  0.3565 -1.3474  0.2383
 8215TIP3    H246061   1.081   2.177  14.458 -1.3458  0.1125 -0.8883
 8216TIP3   OH246062   0.008   3.406   4.107 -0.4764  0.3012  0.1270
 8216TIP3    H146063   0.005   3.481   4.047  0.9883 -1.1571 -1.8546
 8216TIP3    H246064   0.024   3.444   4.193 -2.2859  2.4358 -0.4148
 8217TIP3   OH246065   1.458   1.656  14.368  0.1674  0.0540  0.0638
 8217TIP3    H146066   1.395   1.697  14.427 -0.1438  0.5144 -0.5736
 8217TIP3    H246067   1.405   1.618  14.299  0.6198  1.2133 -0.9490
 8218TIP3   OH246068   0.196   3.100   2.938 -0.5703 -0.6517 -0.0476
 8218TIP3    H146069   0.133   3.035   2.904 -1.8026  0.8079 -0.5960
 8218TIP3    H246070   0.155   3.132   3.019  0.0915 -0.6342  0.2795
 8219TIP3   OH246071   4.012   4.229   0.940 -0.6936  0.2466  0.1019
 8219TIP3    H146072   3.950   4.168   0.899 -1.9479  1.1437  0.6511
 8219TIP3    H246073   3.995   4.221   1.034 -0.0708  0.6108  0.2474
 8220TIP3   OH246074   3.732   1.790  15.720  0.2397 -0.2352  0.2782
 8220TIP3    H146075   3.739   1.869  15.774 -0.2745  0.5208 -0.7583
 8220TIP3    H246076   3.650   1.749  15.749  0.3292 -0.2085  0.5721
 8221TIP3   OH246077   3.391   0.770   4.571  0.1768  0.3373  1.0774
 8221TIP3    H146078   3.465   0.803   4.520 -0.1680 -1.4294 -0.6231
 8221TIP3    H246079   3.314   0.790   4.518 -0.2650 -0.7120  1.2951
 8222TIP3   OH246080   0.268   2.068  14.829  0.4001  0.2896  0.3207
 8222TIP3    H146081   0.302   1.984  14.860  0.5089  0.3049  0.2441
 8222TIP3    H246082   0.191   2.044  14.777  0.5802  0.2191  0.0863
 8223TIP3   OH246083   0.836   3.378   6.445  0.0120  0.1905 -0.4957
 8223TIP3    H146084   0.889   3.416   6.376  0.2176 -0.6063 -0.7788
 8223TIP3    H246085   0.843   3.283   6.432  1.0492 -0.0003  1.3569
 8224TIP3   OH246086   0.112   2.450  12.090  0.9954  0.1512  0.3409
 8224TIP3    H146087   0.088   2.540  12.114  1.0755 -0.3018  2.1582
 8224TIP3    H246088   0.090   2.398  12.167  1.9436 -1.2349 -0.3090
 8225TIP3   OH246089   1.840   3.881  12.902 -0.2491  0.6723 -0.0682
 8225TIP3    H146090   1.823   3.794  12.938 -1.5338  0.9087 -0.0749
 8225TIP3    H246091   1.761   3.902  12.851 -0.8559  2.7059  1.6323
 8226TIP3   OH246092   5.424   5.479  14.344  0.6465  0.1928 -0.7872
 8226TIP3    H146093   5.460   5.565  14.367  0.2830  0.3660 -0.8576
 8226TIP3    H246094   5.390   5.491  14.255 -0.0527  0.1752 -0.5256
 8227TIP3   OH246095   0.074   4.896  15.616 -0.1313 -0.1031 -0.0754
 8227TIP3    H146096   0.156   4.945  15.617 -0.4885  0.4924 -0.1686
 8227TIP3    H246097   0.079   4.841  15.538  0.4259 -0.4826  0.2265
 8228TIP3   OH246098   5.481   1.754  13.739 -0.6101 -0.3040  0.1431
 8228TIP3    H146099   5.556   1.806  13.713 -2.2037  1.5265 -0.9747
 8228TIP3    H246100   5.494   1.669  13.697  0.1075  0.4899 -1.2788
 8229TIP3   OH246101   1.970   6.682  15.071 -0.5593 -0.3585  0.4571
 8229TIP3    H146102   1.970   6.631  15.152  1.7240  0.6688  1.1617
 8229TIP3    H246103   1.919   6.629  15.009 -0.9175 -1.9577  2.0644
 8230TIP3   OH246104   1.789   2.043  11.077  0.8982  0.2884  0.7035
 8230TIP3    H146105   1.793   2.062  11.171 -1.1808  2.2238  0.4710
 8230TIP3    H246106   1.803   2.128  11.035  0.0867 -0.2320 -0.6690
 8231TIP3   OH246107   2.989   3.453   3.109 -0.4030 -0.2884  0.2474
 8231TIP3    H146108   3.000   3.361   3.134 -2.8451 -1.2286 -1.8870
 8231TIP3    H246109   3.004   3.454   3.015  0.3783  1.6796  0.3716
 8232TIP3   OH246110   0.168   1.268  13.894  1.1491 -0.0850 -0.2140
 8232TIP3    H146111   0.089   1.267  13.947  0.9580  1.9241 -0.4397
 8232TIP3    H246112   0.216   1.189  13.921 -0.8460 -1.2557 -0.0005
 8233TIP3   OH246113   2.591   1.760  12.249 -0.2341  0.1730 -0.2091
 8233TIP3    H146114   2.598   1.768  12.154  0.6065  0.8151 -0.0949
 8233TIP3    H246115   2.614   1.669  12.268  0.6069  0.3204 -0.5261
 8234TIP3   OH246116   4.512   0.514  12.215 -0.1579  0.1379 -0.3784
 8234TIP3    H146117   4.506   0.450  12.144 -1.2381 -1.6996  1.3115
 8234TIP3    H246118   4.429   0.561  12.213 -1.3451 -1.8067  1.3631
 8235TIP3   OH246119   5.797   3.447   0.259 -0.5656  0.2874 -0.2888
 8235TIP3    H146120   5.889   3.454   0.236 -1.1467  0.7548 -2.6104
 8235TIP3    H246121   5.790   3.490   0.345  1.5612 -0.8958  0.5010
 8236TIP3   OH246122   4.094   3.320   2.929 -0.2749  0.2222 -0.3150
 8236TIP3    H146123   4.150   3.296   3.003 -2.0851 -0.3610  0.8983
 8236TIP3    H246124   4.081   3.238   2.882  0.7769  0.5709 -1.2308
 8237TIP3   OH246125   1.558   3.731  11.188 -0.3331 -0.0476  0.1683
 8237TIP3    H146126   1.651   3.710  11.194 -0.3258  0.3287  1.7045
 8237TIP3    H246127   1.553   3.803  11.125  0.5154  0.4597  0.6696
 8238TIP3   OH246128   4.796   0.646  14.170 -0.9337  0.0356 -0.1600
 8238TIP3    H146129   4.875   0.620  14.123 -2.5025  0.7221 -3.2769
 8238TIP3    H246130   4.784   0.577  14.236  3.2610  0.9184  1.6898
 8239TIP3   OH246131   1.199   5.761   0.367 -0.3774  0.2091  0.2766
 8239TIP3    H146132   1.239   5.697   0.308 -0.3279  0.4728  0.0239
 8239TIP3    H246133   1.211   5.724   0.455 -2.5790 -1.3678 -0.0454
 8240TIP3   OH246134   2.214   2.819  11.993  0.2150  0.5496  0.3030
 8240TIP3    H146135   2.150   2.808  11.923  0.8272  0.6613 -0.2760
 8240TIP3    H246136   2.266   2.895  11.967  1.5572 -0.4548  0.0054
 8241TIP3   OH246137   2.593   1.368   0.987 -0.1094  0.0662 -0.2550
 8241TIP3    H146138   2.616   1.461   0.990  0.5977 -0.0750 -1.0570
 8241TIP3    H246139   2.672   1.325   0.954 -0.7923 -0.6930 -0.9234
 8242TIP3   OH246140   5.528   4.223   4.792  0.3287 -0.4787  0.1983
 8242TIP3    H146141   5.476   4.164   4.846 -0.7415  0.3272  0.0676
 8242TIP3    H246142   5.577   4.276   4.855 -2.9242  2.3069  0.5642
 8243TIP3   OH246143   4.287   3.078  12.062  0.3350  0.0821 -0.5572
 8243TIP3    H146144   4.218   3.140  12.039 -0.5610 -0.8222 -0.3556
 8243TIP3    H246145   4.308   3.099  12.154  0.4923  0.5029 -0.6885
 8244TIP3   OH246146   4.921   2.928  11.792  0.5259 -0.4363 -0.5195
 8244TIP3    H146147   4.993   2.890  11.841 -0.2876  0.5750  1.5267
 8244TIP3    H246148   4.873   2.854  11.756  3.2495 -1.1007 -2.9542
 8245TIP3   OH246149   6.104   4.219   0.418  0.0522 -0.2822 -1.0178
 8245TIP3    H146150   6.055   4.147   0.458  0.7701 -0.1984  0.0166
 8245TIP3    H246151   6.037   4.267   0.369 -1.0438  0.1338  0.8018
 8246TIP3   OH246152   2.320   2.128  13.597  0.5789 -0.1622  0.6441
 8246TIP3    H146153   2.304   2.087  13.682 -1.2208 -0.3321  0.2442
 8246TIP3    H246154   2.273   2.071  13.535  1.1263  0.4621 -0.3439
 8247TIP3   OH246155   2.193   5.783   1.454 -0.4790 -0.6797  0.0775
 8247TIP3    H146156   2.161   5.873   1.446 -1.7425 -0.9951  1.3387
 8247TIP3    H246157   2.129   5.730   1.405 -1.3001 -1.1892  1.6692
 8248TIP3   OH246158   2.808   0.308  12.841  0.1265 -0.2451 -0.5880
 8248TIP3    H146159   2.745   0.239  12.821  1.1142 -1.2109 -0.3969
 8248TIP3    H246160   2.889   0.262  12.864  0.5760  0.9581  0.3019
 8249TIP3   OH246161   6.702   0.654  14.939  0.8254  0.2109 -0.5323
 8249TIP3    H146162   6.712   0.574  14.991 -0.0830 -1.0114 -2.1937
 8249TIP3    H246163   6.665   0.718  15.000 -0.0883 -1.1624  0.3887
 8250TIP3   OH246164   1.646   4.444   4.390  0.1726 -0.2578  0.1317
 8250TIP3    H146165   1.563   4.457   4.344 -0.5234 -0.3771  1.3209
 8250TIP3    H246166   1.700   4.395   4.328 -0.3818  0.4491 -0.9298
 8251TIP3   OH246167   1.731   2.219  15.884 -0.3309  0.1887 -0.2852
 8251TIP3    H146168   1.719   2.314  15.889  1.5917  0.3992  0.6740
 8251TIP3    H246169   1.678   2.193  15.808  0.5702  2.2715 -1.6851
 8252TIP3   OH246170   6.107   4.398   0.631 -0.4815 -0.3709  0.2885
 8252TIP3    H146171   6.182   4.363   0.679  1.0151  0.2291 -1.5516
 8252TIP3    H246172   6.096   4.339   0.557 -2.2296 -0.7962  0.8647
 8253TIP3   OH246173   6.049   4.284  10.621 -0.0812  0.1007 -0.1816
 8253TIP3    H146174   6.128   4.235  10.645  0.0660  0.2564 -0.3481
 8253TIP3    H246175   6.013   4.235  10.547  0.2429  0.4316 -0.5553
 8254TIP3   OH246176   1.346   2.931   5.563 -0.2066 -0.1427 -0.0716
 8254TIP3    H146177   1.402   3.001   5.596 -1.3306  0.9180 -0.3530
 8254TIP3    H246178   1.364   2.856   5.620  1.6073  0.1249 -0.2841
 8255TIP3   OH246179   0.372   5.727   6.306 -0.6315 -0.4352 -0.2502
 8255TIP3    H146180   0.279   5.725   6.330 -0.3882 -1.1635  0.6587
 8255TIP3    H246181   0.379   5.667   6.232 -0.6700 -1.3355  0.4708
 8256TIP3   OH246182   0.719   4.930  16.786 -0.3208 -0.0476 -0.0702
 8256TIP3    H146183   0.719   5.019  16.822 -0.2176  0.1832 -0.6405
 8256TIP3    H246184   0.774   4.935  16.708 -0.4061 -0.5896 -0.1691
 8257TIP3   OH246185   0.171   0.484   0.571 -0.1935 -0.7227  0.5517
 8257TIP3    H146186   0.167   0.413   0.506 -1.0065  0.0002 -0.2072
 8257TIP3    H246187   0.136   0.445   0.651 -0.1200 -1.3341  0.2904
 8258TIP3   OH246188   6.782   5.172   0.561  0.0644 -0.6950  0.3036
 8258TIP3    H146189   6.732   5.096   0.590  1.1352 -1.4041  0.2959
 8258TIP3    H246190   6.741   5.246   0.606 -0.7182 -1.3209  0.6261
 8259TIP3   OH246191   5.526   3.727   5.555 -0.0140 -0.1865 -0.1228
 8259TIP3    H146192   5.588   3.656   5.538  1.2471  1.2040 -1.4812
 8259TIP3    H246193   5.544   3.754   5.645  0.5889 -0.5332 -0.1407
 8260TIP3   OH246194   0.666   4.980   3.023  0.1801 -0.1812  0.2844
 8260TIP3    H146195   0.651   4.886   3.014  1.1854 -0.1010 -2.5292
 8260TIP3    H246196   0.595   5.021   2.976  0.5865  0.4451  0.2081
 8261TIP3   OH246197   2.942   0.612   4.405 -0.1397 -0.2139  0.0041
 8261TIP3    H146198   2.969   0.596   4.496  0.4772 -1.2544 -0.3508
 8261TIP3    H246199   2.866   0.554   4.393  1.2449 -1.8833 -0.8647
 8262TIP3   OH246200   0.378   2.915   4.462  0.1136  0.2313  0.0061
 8262TIP3    H146201   0.291   2.880   4.443 -0.4661  1.0527  1.1124
 8262TIP3    H246202   0.404   2.960   4.381  0.1021 -1.1797 -0.7947
 8263TIP3   OH246203   2.939   6.765   4.231  0.4302  0.0215  0.1262
 8263TIP3    H146204   2.972   6.853   4.214 -2.5590  1.1949  0.2269
 8263TIP3    H246205   2.900   6.771   4.318 -3.2268 -0.3165 -1.4034
 8264TIP3   OH246206   2.839   1.785   5.923  0.1029 -0.3913  0.4510
 8264TIP3    H146207   2.852   1.692   5.944  2.8363 -0.0843  0.2097
 8264TIP3    H246208   2.839   1.828   6.009  0.7115 -0.4020  0.4600
 8265TIP3   OH246209   2.550   1.697   5.884  0.0743 -0.1844 -0.5207
 8265TIP3    H146210   2.620   1.632   5.890  1.4221  1.4270  1.7379
 8265TIP3    H246211   2.529   1.718   5.975 -1.2381  1.5852 -1.2135
 8266TIP3   OH246212   0.269   6.684  11.860  0.2420 -0.1285  0.5070
 8266TIP3    H146213   0.188   6.636  11.875  0.1170 -0.4564 -1.1188
 8266TIP3    H246214   0.242   6.775  11.854  0.3130  0.0318  2.3020
 8267TIP3   OH246215   6.203   5.089   4.638 -0.2820 -0.7994 -0.2891
 8267TIP3    H146216   6.114   5.087   4.671 -0.3658 -1.2784 -0.5364
 8267TIP3    H246217   6.193   5.098   4.543 -0.0536 -0.0273 -0.2473
 8268TIP3   OH246218   3.203   3.509   2.537 -0.0792 -0.7156 -0.5783
 8268TIP3    H146219   3.183   3.509   2.630 -0.1492  0.6486 -0.5765
 8268TIP3    H246220   3.136   3.566   2.498  0.6790 -0.3073 -1.2919
 8269TIP3   OH246221   0.606   2.944   2.390  0.0893  0.4038  0.0337
 8269TIP3    H146222   0.562   2.903   2.315 -1.9031  2.1957  0.1466
 8269TIP3    H246223   0.623   2.872   2.450 -1.2664 -0.6099 -0.7490
 8270TIP3   OH246224   0.467   5.612  16.828 -0.0349  0.4394 -0.1350
 8270TIP3    H146225   0.375   5.616  16.803 -0.5285  0.4517  1.6548
 8270TIP3    H246226   0.468   5.625  16.923  1.9425  2.1747 -0.3480
 8271TIP3   OH246227   3.181   4.932   4.636 -0.3408 -0.1665  0.8368
 8271TIP3    H146228   3.234   4.946   4.557 -0.1801 -0.0943  0.9573
 8271TIP3    H246229   3.190   4.838   4.654 -2.3495 -0.6711 -0.6352
 8272TIP3   OH246230   0.449   4.215  17.228  0.3463 -0.2244 -0.3579
 8272TIP3    H146231   0.516   4.214  17.297  1.6553  2.2985 -1.5277
 8272TIP3    H246232   0.490   4.173  17.153  0.3249  0.5344 -0.8035
 8273TIP3   OH246233   2.615   3.717   4.365  0.0508  0.1352 -0.1865
 8273TIP3    H146234   2.684   3.653   4.349 -0.3075 -0.0839 -0.8440
 8273TIP3    H246235   2.550   3.669   4.416  0.4866  0.4113  0.6524
 8274TIP3   OH246236   3.691   0.076   5.996  0.2805  0.3235  0.2694
 8274TIP3    H146237   3.717   0.046   5.909  0.7360 -0.4817  0.6771
 8274TIP3    H246238   3.660   0.166   5.982  0.1231  0.1190 -0.7545
 8275TIP3   OH246239   2.662   5.211  13.599 -0.5642 -0.4782 -0.5398
 8275TIP3    H146240   2.733   5.229  13.662  0.6322 -0.3530 -1.8941
 8275TIP3    H246241   2.613   5.293  13.595 -0.1352 -0.2128 -0.4102
 8276TIP3   OH246242   4.107   3.050  16.542  1.0230  0.0452  0.0080
 8276TIP3    H146243   4.119   3.143  16.521 -0.4964  0.2857  0.1164
 8276TIP3    H246244   4.127   3.004  16.461 -0.7630  0.6667 -0.8079
 8277TIP3   OH246245   6.536   6.663  14.750  0.2268  0.5579 -0.4178
 8277TIP3    H146246   6.584   6.624  14.823  0.9392  1.1941 -0.5461
 8277TIP3    H246247   6.597   6.725  14.711 -0.4251  0.7955 -1.0724
 8278TIP3   OH246248   1.377   4.514   4.232  0.1392 -0.3048  0.5198
 8278TIP3    H146249   1.421   4.547   4.154 -0.4011 -0.0805  0.3117
 8278TIP3    H246250   1.317   4.447   4.200 -0.9161  0.5922  0.6187
 8279TIP3   OH246251   5.854   5.604   3.079 -0.2025  0.5141 -0.1086
 8279TIP3    H146252   5.926   5.592   3.141  0.3884  0.3495 -0.8276
 8279TIP3    H246253   5.851   5.522   3.030  1.0536  1.6385 -2.1050
 8280TIP3   OH246254   2.202   5.396  13.448 -0.7061  0.1948 -0.0100
 8280TIP3    H146255   2.279   5.366  13.400 -1.3319 -0.2167 -0.7712
 8280TIP3    H246256   2.207   5.351  13.532 -1.0087 -1.1558 -0.6967
 8281TIP3   OH246257   6.599   1.903  10.734 -0.0830  0.4514 -0.3059
 8281TIP3    H146258   6.579   1.844  10.662  0.6512 -0.4790  0.2368
 8281TIP3    H246259   6.652   1.972  10.695 -0.1461  0.2406 -0.7609
 8282TIP3   OH246260   2.279   6.272  16.428 -0.0808 -0.4425  0.4749
 8282TIP3    H146261   2.303   6.351  16.379 -0.8641 -1.1229 -1.0209
 8282TIP3    H246262   2.316   6.286  16.515  1.1766  0.8629 -0.2519
 8283TIP3   OH246263   3.285   2.219  14.722 -0.0527 -0.0636 -0.5600
 8283TIP3    H146264   3.213   2.187  14.777  1.2151  1.3776  2.0396
 8283TIP3    H246265   3.363   2.180  14.761  0.7167 -0.7816 -2.7383
 8284TIP3   OH246266   0.038   5.899   1.117  0.9017  0.0110 -0.3722
 8284TIP3    H146267   0.031   5.804   1.125  2.6251 -0.0931  0.2903
 8284TIP3    H246268  -0.051   5.932   1.130  0.9287 -1.2484  3.8421
 8285TIP3   OH246269   5.233   5.064  15.626  0.1173  0.7192  0.2775
 8285TIP3    H146270   5.191   5.028  15.704  0.8603  1.9649  1.2607
 8285TIP3    H246271   5.295   4.996  15.599 -0.7590 -0.0794  0.2592
 8286TIP3   OH246272   3.146   0.327  14.625  0.3013  0.3288  0.2693
 8286TIP3    H146273   3.058   0.293  14.611  1.4010 -2.2037 -0.6412
 8286TIP3    H246274   3.156   0.396  14.559 -1.1146  0.8783  0.6220
 8287TIP3   OH246275   1.403   5.320   0.841  0.4953  0.2893  0.0665
 8287TIP3    H146276   1.452   5.239   0.847  2.1913  1.2484 -0.3129
 8287TIP3    H246277   1.314   5.293   0.818  0.8436 -1.4836  0.7263
 8288TIP3   OH246278   3.253   2.513   1.989 -0.5597 -0.4111  0.5552
 8288TIP3    H146279   3.333   2.530   1.940 -1.0706 -1.7515 -0.7587
 8288TIP3    H246280   3.215   2.600   2.005  0.5798  0.1454  0.2313
 8289TIP3   OH246281   3.235   2.236  12.807 -0.1999  0.2687  0.7027
 8289TIP3    H146282   3.221   2.267  12.717  0.7181 -1.3455 -0.0051
 8289TIP3    H246283   3.184   2.297  12.861  0.7374  2.4175 -0.7370
 8290TIP3   OH246284   5.606   2.097  13.134 -0.1553 -0.1714  0.4952
 8290TIP3    H146285   5.629   2.166  13.072 -0.8988  0.3868  0.8243
 8290TIP3    H246286   5.606   2.017  13.082  1.3418 -0.0265  0.2436
 8291TIP3   OH246287   4.473   6.687  14.979 -0.1631 -0.2749  0.2387
 8291TIP3    H146288   4.382   6.710  15.001 -0.6562 -2.2776  0.3687
 8291TIP3    H246289   4.525   6.735  15.043 -1.1890  0.1823  0.7458
 8292TIP3   OH246290   5.010   4.486   2.165 -0.2123  0.4635 -0.1524
 8292TIP3    H146291   5.097   4.524   2.160 -0.5194  1.5055  1.9644
 8292TIP3    H246292   5.015   4.406   2.113  1.8484  0.7724 -0.4392
 8293TIP3   OH246293   3.541   2.885  15.195  0.3454  0.0994  0.4392
 8293TIP3    H146294   3.564   2.951  15.261 -1.1509  0.6732  0.4025
 8293TIP3    H246295   3.524   2.806  15.246  0.2916  0.2426  0.6475
 8294TIP3   OH246296   1.442   2.731   4.632  0.1393 -0.0216  0.6685
 8294TIP3    H146297   1.381   2.657   4.640 -0.3459  0.2796 -0.2434
 8294TIP3    H246298   1.516   2.706   4.687 -0.8342 -0.3562  1.8473
 8295TIP3   OH246299   5.725   0.214  13.705 -0.1878 -0.2625  0.0747
 8295TIP3    H146300   5.728   0.286  13.643 -1.2740 -1.3964 -1.3141
 8295TIP3    H246301   5.789   0.151  13.672  0.8717  0.0870  1.3645
 8296TIP3   OH246302   5.153   1.642  14.331 -0.2956  0.3063  0.0300
 8296TIP3    H146303   5.155   1.552  14.298 -1.5118  0.2177  0.1707
 8296TIP3    H246304   5.223   1.686  14.283 -0.2427 -0.5084 -0.6640
 8297TIP3   OH246305   4.045   5.042  13.724  0.4413  0.6403  0.3847
 8297TIP3    H146306   3.991   4.988  13.782 -0.4376  0.5635 -0.5046
 8297TIP3    H246307   4.035   5.131  13.759 -2.2589  1.0077 -1.2570
 8298TIP3   OH246308   3.194   5.041  16.631 -0.2445  0.3417 -0.4428
 8298TIP3    H146309   3.108   5.065  16.596 -1.2620  0.0786  1.7870
 8298TIP3    H246310   3.253   5.106  16.595 -1.2588  0.1361 -2.5546
 8299TIP3   OH246311   0.987   3.476  11.320 -0.7827 -0.4761  0.6737
 8299TIP3    H146312   1.079   3.488  11.295 -0.8157  2.6017  1.8307
 8299TIP3    H246313   0.938   3.501  11.242 -0.6774 -1.1673  0.3797
 8300TIP3   OH246314   1.746   1.387  15.906 -0.0927  0.0255 -0.2695
 8300TIP3    H146315   1.717   1.366  15.995 -0.2472  0.1757 -0.2844
 8300TIP3    H246316   1.833   1.426  15.918  0.0423 -0.2884 -0.2131
 8301TIP3   OH246317   4.508   6.126  14.369  0.2233 -0.0498  0.3993
 8301TIP3    H146318   4.536   6.208  14.329 -0.1637 -0.6583 -1.1494
 8301TIP3    H246319   4.512   6.143  14.463  2.1026  1.0853  0.1451
 8302TIP3   OH246320   5.992   3.490  11.066 -0.2637  0.1788 -0.2548
 8302TIP3    H146321   6.031   3.439  10.994 -0.4149 -0.5212  0.1542
 8302TIP3    H246322   5.938   3.427  11.113 -1.0067  0.8832 -0.1516
 8303TIP3   OH246323   2.105   3.705   1.977 -0.9326 -0.0913  0.6494
 8303TIP3    H146324   2.082   3.666   2.061 -0.9173 -1.5274 -0.0052
 8303TIP3    H246325   2.113   3.631   1.917 -1.0270  0.9219 -0.6417
 8304TIP3   OH246326   4.179   3.606   4.363  0.4820  0.1544  0.2254
 8304TIP3    H146327   4.265   3.565   4.363  0.3394 -0.1457  0.7918
 8304TIP3    H246328   4.196   3.698   4.382  0.6195 -0.0237  0.9694
 8305TIP3   OH246329   5.446   6.389   6.011 -0.5379 -0.4612 -0.1153
 8305TIP3    H146330   5.390   6.449   5.962  0.0758  0.2523  0.0433
 8305TIP3    H246331   5.389   6.353   6.080 -0.6518  0.6875  0.3948
 8306TIP3   OH246332   6.391   4.865   1.595 -0.1054  0.1947  0.2961
 8306TIP3    H146333   6.457   4.809   1.635 -1.0668 -0.3366  1.1791
 8306TIP3    H246334   6.388   4.942   1.652 -0.8639 -0.1745  0.7596
 8307TIP3   OH246335   0.808   0.984  14.450 -0.1811 -0.5478  0.0959
 8307TIP3    H146336   0.819   1.047  14.379  0.8047  0.3332  1.0107
 8307TIP3    H246337   0.836   1.031  14.528 -0.9199 -1.6205  1.0249
 8308TIP3   OH246338   6.665   6.156   1.380 -0.0632 -0.2124 -0.5727
 8308TIP3    H146339   6.575   6.125   1.380 -1.2582  3.0281 -0.4646
 8308TIP3    H246340   6.666   6.227   1.445  1.8759  1.6698 -2.5611
 8309TIP3   OH246341   6.576   1.358   3.658  0.6182  0.0170  0.1572
 8309TIP3    H146342   6.626   1.431   3.694  1.5258 -0.5690  0.1148
 8309TIP3    H246343   6.508   1.341   3.722  0.4888  0.8073  0.2347
 8310TIP3   OH246344   1.147   4.648   3.924 -0.1287  0.0005  0.0637
 8310TIP3    H146345   1.079   4.585   3.901  0.9687 -1.7716  1.5629
 8310TIP3    H246346   1.198   4.659   3.844 -1.1767  0.0949 -0.6037
 8311TIP3   OH246347   4.957   0.312  12.478  0.1301 -0.7078  0.5160
 8311TIP3    H146348   4.911   0.271  12.551 -0.5509 -1.1139 -0.1473
 8311TIP3    H246349   4.901   0.385  12.452 -1.4440 -2.7212 -1.9600
 8312TIP3   OH246350   2.753   4.460   5.132 -0.0716  0.7842 -0.0815
 8312TIP3    H146351   2.744   4.534   5.073  0.2988  0.7416 -0.1934
 8312TIP3    H246352   2.780   4.387   5.076 -2.2958  0.0822 -0.2667
 8313TIP3   OH246353   3.424   2.283   3.505 -0.2383  0.3819 -0.2241
 8313TIP3    H146354   3.517   2.299   3.494 -0.2058  0.6588  0.4254
 8313TIP3    H246355   3.418   2.219   3.577 -0.5577  0.6000 -0.0514
 8314TIP3   OH246356   4.754   3.829   1.179 -0.0917  0.1777  0.4811
 8314TIP3    H146357   4.726   3.907   1.228 -0.1741  0.1984  0.4016
 8314TIP3    H246358   4.682   3.812   1.118 -0.7642 -0.8816  1.5653
 8315TIP3   OH246359   0.533   2.523  16.237 -0.5679  0.2854 -0.1551
 8315TIP3    H146360   0.464   2.575  16.196  0.5101  2.7973  1.1001
 8315TIP3    H246361   0.579   2.585  16.294  0.6344 -2.1253  1.5658
 8316TIP3   OH246362   5.229   3.287  12.308 -0.7674 -0.5391  0.3155
 8316TIP3    H146363   5.297   3.347  12.339 -0.2219 -0.8914 -0.1884
 8316TIP3    H246364   5.228   3.216  12.373 -2.5162  0.7790  1.7941
 8317TIP3   OH246365   2.310   2.243  13.094  0.4257 -0.1882 -0.3490
 8317TIP3    H146366   2.304   2.251  12.999 -0.9863 -1.1092 -0.3418
 8317TIP3    H246367   2.360   2.163  13.109  0.2543 -0.2838 -0.2979
 8318TIP3   OH246368   1.850   1.365   2.967 -0.2077  0.4192  0.3400
 8318TIP3    H146369   1.797   1.410   2.901 -1.1045 -1.3409 -0.1681
 8318TIP3    H246370   1.871   1.433   3.031 -3.2621  1.1360  0.6493
 8319TIP3   OH246371   2.541   2.513   0.434 -0.3180  0.3303 -0.0109
 8319TIP3    H146372   2.604   2.516   0.362 -0.4101  2.6089 -0.0437
 8319TIP3    H246373   2.493   2.432   0.420  2.1004 -1.0774 -0.3961
 8320TIP3   OH246374   4.865   5.345  15.142 -0.1067  0.2341 -0.4997
 8320TIP3    H146375   4.810   5.296  15.203  1.5770 -1.0533  0.0401
 8320TIP3    H246376   4.873   5.431  15.182 -1.6034  0.3987 -0.5173
 8321TIP3   OH246377   5.735   1.891   2.510  0.7983 -0.0235  0.0557
 8321TIP3    H146378   5.648   1.872   2.545  1.5294 -1.7969  0.9682
 8321TIP3    H246379   5.782   1.932   2.583  0.9152  0.4073 -0.2575
 8322TIP3   OH246380   0.558   3.951  15.029 -0.1525 -0.2552  0.4008
 8322TIP3    H146381   0.502   3.990  14.962 -2.0384 -0.9061  1.5609
 8322TIP3    H246382   0.581   4.024  15.086 -0.1099 -0.0449  0.1181
 8323TIP3   OH246383   6.719   3.074   2.058 -0.3364 -0.5608 -0.8902
 8323TIP3    H146384   6.753   3.162   2.043  1.2795 -1.1419 -0.6571
 8323TIP3    H246385   6.678   3.050   1.975 -1.2816  0.6243 -0.7778
 8324TIP3   OH246386   5.061   0.509   2.157  0.6453 -0.3867  0.6243
 8324TIP3    H146387   5.091   0.597   2.182  1.7401 -0.5079 -0.1986
 8324TIP3    H246388   5.038   0.517   2.065  1.5892 -1.1597  0.3114
 8325TIP3   OH246389   5.802   4.357   3.794 -0.1846 -0.0300  0.1149
 8325TIP3    H146390   5.883   4.405   3.809  1.4024 -1.6260 -2.8770
 8325TIP3    H246391   5.755   4.410   3.729 -0.8462  0.0917  0.6832
 8326TIP3   OH246392   0.918   6.156   2.268 -0.3956 -0.1750 -0.2018
 8326TIP3    H146393   0.855   6.198   2.326 -1.0442 -1.1739 -0.1785
 8326TIP3    H246394   0.909   6.062   2.286  0.2319 -0.4112 -1.0758
 8327TIP3   OH246395   5.058   5.360   5.122  0.0549  0.0368 -0.2404
 8327TIP3    H146396   5.113   5.357   5.201 -0.7819 -1.1923  0.3043
 8327TIP3    H246397   5.068   5.273   5.083 -0.8002  0.1183 -0.6379
 8328TIP3   OH246398   0.815   4.214  16.767 -0.1487 -0.3306  0.4921
 8328TIP3    H146399   0.818   4.306  16.745 -0.5817 -1.0889 -2.9331
 8328TIP3    H246400   0.888   4.175  16.720 -1.6191 -2.1522 -0.3646
 8329TIP3   OH246401   3.257   4.190  12.867 -0.2067  0.4118 -0.3411
 8329TIP3    H146402   3.284   4.232  12.948  0.7147  0.2457 -0.5587
 8329TIP3    H246403   3.325   4.213  12.804 -0.1562 -0.6879 -0.6862
 8330TIP3   OH246404   3.209   1.143   1.490 -0.0836 -0.0102  0.5366
 8330TIP3    H146405   3.166   1.059   1.501 -0.3347  0.5563  4.6101
 8330TIP3    H246406   3.290   1.135   1.541 -0.4116  2.4086  1.4691
 8331TIP3   OH246407   5.986   3.469  16.202  0.7405 -0.5097 -0.5524
 8331TIP3    H146408   5.913   3.527  16.224  1.9452  1.4896 -1.6252
 8331TIP3    H246409   5.962   3.429  16.119  0.3905 -0.7220 -0.3534
 8332TIP3   OH246410   3.144   6.152   3.295  0.0879  0.2582  0.0732
 8332TIP3    H146411   3.072   6.161   3.234 -0.5929  1.2074  0.9941
 8332TIP3    H246412   3.114   6.085   3.357  0.8409 -0.8189 -0.7035
 8333TIP3   OH246413   2.193   4.665  16.653 -0.1089 -0.5264 -0.2210
 8333TIP3    H146414   2.280   4.664  16.612 -1.0811  0.1089 -2.3575
 8333TIP3    H246415   2.196   4.738  16.714  0.6038  0.0265 -0.9053
 8334TIP3   OH246416   5.045   0.689  11.823 -0.6697  0.2636 -0.7640
 8334TIP3    H146417   5.062   0.641  11.742 -3.0908  0.2210 -1.2785
 8334TIP3    H246418   5.054   0.781  11.800  1.6800  0.1665 -0.3277
 8335TIP3   OH246419   5.304   3.918  12.139  0.1984 -0.6535 -0.3106
 8335TIP3    H146420   5.332   3.838  12.095  1.8887  0.4410 -1.3216
 8335TIP3    H246421   5.305   3.985  12.070  1.4376  0.7920  1.0630
 8336TIP3   OH246422   1.785   4.314  14.005  0.4759  0.0660 -0.5008
 8336TIP3    H146423   1.750   4.261  13.933 -1.6533  0.4524  0.2102
 8336TIP3    H246424   1.742   4.279  14.084  3.2885 -0.8192  0.7141
 8337TIP3   OH246425   0.454   0.752  12.865 -0.0643 -0.0206 -0.6694
 8337TIP3    H146426   0.479   0.671  12.822 -0.9175 -1.1330  0.8854
 8337TIP3    H246427   0.395   0.725  12.935  1.0263  1.7571  0.9856
 8338TIP3   OH246428   2.559   1.448  11.968 -0.5774  0.1975 -0.1749
 8338TIP3    H146429   2.624   1.504  11.927 -0.6265  0.0984 -0.3876
 8338TIP3    H246430   2.496   1.509  12.006  0.1661  0.3100  0.8912
 8339TIP3   OH246431   4.024   2.841   6.199  0.5367  0.1406 -0.0930
 8339TIP3    H146432   4.116   2.830   6.222  0.3513 -0.7828  0.2353
 8339TIP3    H246433   4.016   2.803   6.112  0.3199 -0.4419  0.1786
 8340TIP3   OH246434   2.154   5.021   3.601  0.6243  0.3895  0.1009
 8340TIP3    H146435   2.069   5.065   3.601  0.0522 -0.6770  0.4802
 8340TIP3    H246436   2.218   5.090   3.582 -0.0839  1.6502  2.1588
 8341TIP3   OH246437   5.476   1.042   3.434  0.1997  0.4192  0.3023
 8341TIP3    H146438   5.552   0.993   3.464  0.2494  1.0792  1.2769
 8341TIP3    H246439   5.445   0.994   3.356  1.5099  0.0635 -0.0098
 8342TIP3   OH246440   5.194   4.440   5.552 -0.1486 -0.4911  0.6612
 8342TIP3    H146441   5.102   4.449   5.524 -0.0131 -0.7038  0.1262
 8342TIP3    H246442   5.225   4.530   5.560  0.0496 -0.4162 -0.7215
 8343TIP3   OH246443   5.296   6.689   5.966 -0.1890 -0.0553  0.1516
 8343TIP3    H146444   5.244   6.697   5.886 -1.9250  0.4569  1.3114
 8343TIP3    H246445   5.386   6.709   5.938 -0.7326 -0.0751 -1.6991
 8344TIP3   OH246446   2.266   4.088  14.987 -0.3434 -0.0497  0.3312
 8344TIP3    H146447   2.235   4.068  15.075 -1.4045  0.3856  0.0603
 8344TIP3    H246448   2.326   4.016  14.966  1.5098  0.8706  2.1794
 8345TIP3   OH246449   4.703   6.060  15.787 -0.3611 -0.0115  0.4706
 8345TIP3    H146450   4.734   6.025  15.871 -0.9042  0.2739  0.7907
 8345TIP3    H246451   4.781   6.063  15.732  0.4111  1.7548  1.6247
 8346TIP3   OH246452   1.702   3.916   1.769 -0.3757  0.2488  0.6130
 8346TIP3    H146453   1.717   4.009   1.753  0.4167 -0.1647 -1.2729
 8346TIP3    H246454   1.751   3.897   1.849 -0.3569  1.4167  0.8828
 8347TIP3   OH246455   0.340   4.677  15.347  0.9827 -0.0239  0.9266
 8347TIP3    H146456   0.399   4.724  15.289  1.1396 -1.1465  0.1671
 8347TIP3    H246457   0.333   4.732  15.425  1.6296  0.9576  0.2899
 8348TIP3   OH246458   0.347   4.515   4.456  0.5556 -0.4673  0.4571
 8348TIP3    H146459   0.402   4.441   4.431 -2.1038 -2.2131 -0.5089
 8348TIP3    H246460   0.274   4.476   4.504 -1.4963  1.3389 -1.0438
 8349TIP3   OH246461   6.256   0.484  15.179  0.5027 -0.0278  0.8045
 8349TIP3    H146462   6.282   0.451  15.093 -1.2145 -0.8368  0.5722
 8349TIP3    H246463   6.271   0.579  15.174 -0.2824  0.0378 -0.6587
 8350TIP3   OH246464   0.486   2.180  12.382 -0.1688 -0.0242 -0.2611
 8350TIP3    H146465   0.475   2.145  12.293 -0.9759 -0.2480 -0.0773
 8350TIP3    H246466   0.427   2.255  12.385 -1.1585 -0.8179  0.5128
 8351TIP3   OH246467   1.857   1.102  12.574 -0.0521  0.5339  0.0037
 8351TIP3    H146468   1.818   1.047  12.642  0.8928  1.4118  1.2706
 8351TIP3    H246469   1.940   1.060  12.553  0.1664  0.8684  0.1909
 8352TIP3   OH246470   3.126   0.237   6.352  0.2114 -0.5148 -1.0318
 8352TIP3    H146471   3.060   0.273   6.411  1.2550 -0.7735  0.3218
 8352TIP3    H246472   3.168   0.314   6.313 -1.0625 -0.3513 -2.1246
 8353TIP3   OH246473   3.177   2.495  15.761  0.3069  0.0054  0.0443
 8353TIP3    H146474   3.150   2.406  15.739 -0.9481  0.1979  0.7051
 8353TIP3    H246475   3.271   2.490  15.774  0.7129 -0.6107 -2.8331
 8354TIP3   OH246476   4.336   4.418   5.202  0.6405  0.8104 -0.1401
 8354TIP3    H146477   4.348   4.473   5.279 -1.5542  0.6183  0.3791
 8354TIP3    H246478   4.420   4.375   5.188  0.9043  0.4422  2.4689
 8355TIP3   OH246479   6.786   0.768   3.241 -0.0677 -0.1139  0.0402
 8355TIP3    H146480   6.833   0.795   3.320  0.0129 -2.7662  0.9256
 8355TIP3    H246481   6.695   0.761   3.269  0.1783 -2.5045  0.2943
 8356TIP3   OH246482   2.612   6.541  12.874  0.4681  0.0663  0.2361
 8356TIP3    H146483   2.519   6.555  12.895  0.2218 -0.8032 -0.2402
 8356TIP3    H246484   2.646   6.493  12.950  0.3756 -0.1542  0.1403
 8357TIP3   OH246485   1.810   0.261  14.667  0.1801 -0.0224 -0.1061
 8357TIP3    H146486   1.721   0.274  14.634 -0.1485  1.2257  1.2043
 8357TIP3    H246487   1.798   0.241  14.760  1.3717  2.1533  0.5326
 8358TIP3   OH246488   5.217   5.266   5.684  0.1653 -0.3675  0.5132
 8358TIP3    H146489   5.152   5.309   5.628 -0.5003 -0.7951  0.9387
 8358TIP3    H246490   5.260   5.337   5.731 -0.3703 -0.1098  0.6227
 8359TIP3   OH246491   0.791   6.693  14.904 -0.5661 -0.1267 -0.2917
 8359TIP3    H146492   0.860   6.704  14.970 -1.3646 -0.7062  0.6687
 8359TIP3    H246493   0.838   6.685  14.821  0.4758  0.3631  0.2409
 8360TIP3   OH246494   1.484   3.012   4.765 -0.4249  0.8370  0.2155
 8360TIP3    H146495   1.572   3.049   4.768  0.0136 -0.1307 -0.5731
 8360TIP3    H246496   1.493   2.931   4.715 -1.8501  0.9629 -0.2768
 8361TIP3   OH246497   1.269   3.998   4.128  0.5639 -0.2355  0.5170
 8361TIP3    H146498   1.337   4.049   4.083 -2.5336  1.9904 -1.8361
 8361TIP3    H246499   1.317   3.927   4.170  4.3422  1.1529 -1.1873
 8362TIP3   OH246500   5.249   5.349   0.516 -0.3634 -0.2048  0.0343
 8362TIP3    H146501   5.301   5.387   0.446  2.1963 -2.9366  0.3415
 8362TIP3    H246502   5.186   5.292   0.471 -1.1381  0.8118 -0.1878
 8363TIP3   OH246503   6.551   6.564  13.436 -0.6111 -0.3727 -0.3327
 8363TIP3    H146504   6.486   6.531  13.374 -1.2210  0.4384 -0.1409
 8363TIP3    H246505   6.619   6.603  13.381  0.3227 -2.2972 -0.5733
 8364TIP3   OH246506   1.324   4.755  11.105  0.4781  0.4305 -0.3077
 8364TIP3    H146507   1.295   4.803  11.182 -0.4595  0.5462 -0.7244
 8364TIP3    H246508   1.255   4.690  11.090 -0.5585  1.9321 -2.4156
 8365TIP3   OH246509   6.072   4.945  12.653  0.5916 -0.0805 -0.4354
 8365TIP3    H146510   6.150   5.001  12.650  1.4940 -1.2762  0.1800
 8365TIP3    H246511   6.034   4.952  12.566 -0.0441  2.5045  0.0228
 8366TIP3   OH246512   3.710   1.624   4.767 -0.4194  0.6193  0.5433
 8366TIP3    H146513   3.627   1.579   4.778  0.1505 -0.3155  1.0866
 8366TIP3    H246514   3.768   1.584   4.832 -0.0602  2.5382  1.4321
 8367TIP3   OH246515   0.092   3.844   0.508 -0.2144 -0.1387  0.1052
 8367TIP3    H146516   0.105   3.926   0.557 -1.3408  1.3801 -2.0585
 8367TIP3    H246517   0.142   3.857   0.427  0.7717 -2.1953  0.3688
 8368TIP3   OH246518   4.332   2.697  12.196 -0.3358  0.0971  0.3627
 8368TIP3    H146519   4.287   2.670  12.115 -0.9939  3.5208 -0.4836
 8368TIP3    H246520   4.265   2.743  12.246  1.0596  1.2470  1.1903
 8369TIP3   OH246521   4.155   1.045  16.509 -0.2699  0.0151  0.1875
 8369TIP3    H146522   4.249   1.032  16.501 -0.1233  1.1023  0.0251
 8369TIP3    H246523   4.146   1.120  16.568 -1.0286  0.0167  0.0767
 8370TIP3   OH246524   5.216   4.966   3.413  0.0305 -0.2700  0.5021
 8370TIP3    H146525   5.284   4.899   3.422  0.7086  0.2704 -0.4169
 8370TIP3    H246526   5.261   5.040   3.372 -1.1807 -0.0164 -0.4098
 8371TIP3   OH246527   2.227   2.948  14.277 -0.2341 -0.1818 -0.2773
 8371TIP3    H146528   2.143   2.907  14.257 -0.4539  0.3913 -0.5595
 8371TIP3    H246529   2.217   2.983  14.365 -0.5777  0.6033 -0.6243
 8372TIP3   OH246530   5.115   2.816  11.960  0.2154  0.3677 -0.1382
 8372TIP3    H146531   5.065   2.757  12.017  1.1920  0.7418  1.1235
 8372TIP3    H246532   5.157   2.877  12.020  2.4727 -0.1580 -1.1377
 8373TIP3   OH246533   1.914   1.397  16.601  0.6554  0.4286 -0.0809
 8373TIP3    H146534   1.897   1.461  16.669  0.7250  0.1405  0.2081
 8373TIP3    H246535   1.961   1.326  16.645  0.4895  0.1319 -0.3747
 8374TIP3   OH246536   5.695   2.037   1.155 -0.0102 -0.4967 -0.1946
 8374TIP3    H146537   5.760   2.038   1.226 -0.1942  0.1738 -0.0323
 8374TIP3    H246538   5.745   2.062   1.077 -0.2770  1.0352  0.1140
 8375TIP3   OH246539   6.384   6.036   3.299  0.1788  0.1767  0.1288
 8375TIP3    H146540   6.477   6.016   3.306 -0.3964 -2.9729 -0.3249
 8375TIP3    H246541   6.356   6.050   3.389  0.3381 -2.8590  0.7152
 8376TIP3   OH246542   5.304   3.740   2.489  0.2790  0.3212  0.2291
 8376TIP3    H146543   5.390   3.760   2.526  0.3879  1.5214 -0.6187
 8376TIP3    H246544   5.306   3.781   2.402 -1.3881  0.9385  0.4605
 8377TIP3   OH246545   1.636   2.232   1.071 -0.7876 -0.3800  0.3422
 8377TIP3    H146546   1.601   2.165   1.130  0.0907 -1.6361 -0.5238
 8377TIP3    H246547   1.715   2.192   1.034  0.5033  1.6681  0.8268
 8378TIP3   OH246548   6.777   1.097   2.053  0.1010 -0.1145 -0.5877
 8378TIP3    H146549   6.826   1.040   2.112 -0.7964  0.5317  0.8068
 8378TIP3    H246550   6.786   1.185   2.091 -1.4260  0.1328 -0.7563
 8379TIP3   OH246551   1.757   0.899   3.341  0.2603 -0.6597  0.0689
 8379TIP3    H146552   1.833   0.950   3.313  0.1667  0.0063  1.0000
 8379TIP3    H246553   1.742   0.926   3.432 -0.3454 -1.6830  0.2850
 8380TIP3   OH246554   6.148   6.684  11.370  0.4921 -0.5608  0.0809
 8380TIP3    H146555   6.174   6.752  11.308  0.8980 -0.1115  0.7404
 8380TIP3    H246556   6.202   6.608  11.346  1.2352 -0.1367  0.4009
 8381TIP3   OH246557   2.774   2.738  15.438  0.1297 -0.2959 -0.8279
 8381TIP3    H146558   2.731   2.778  15.514 -3.2404  1.3702 -3.4850
 8381TIP3    H246559   2.722   2.659  15.421  1.3295 -1.0572 -0.9596
 8382TIP3   OH246560   2.887   0.691  15.566  0.0688  0.0921  0.2857
 8382TIP3    H146561   2.943   0.674  15.641 -0.1636  1.6433  0.8194
 8382TIP3    H246562   2.812   0.632  15.578  0.8497 -0.8929  0.3612
 8383TIP3   OH246563   4.406   5.388  16.966  0.2869  0.0598 -0.5032
 8383TIP3    H146564   4.478   5.339  16.927  0.6281  0.2701 -0.1308
 8383TIP3    H246565   4.337   5.386  16.899 -0.0762 -1.7600 -0.0991
 8384TIP3   OH246566   4.534   5.557  14.645 -0.2342 -0.1746  0.2826
 8384TIP3    H146567   4.628   5.545  14.663  0.0137  0.5065 -0.5010
 8384TIP3    H246568   4.526   5.649  14.621 -1.0980 -0.2520  0.2694
 8385TIP3   OH246569   6.617   4.280  14.321  0.1759 -0.1262  0.2600
 8385TIP3    H146570   6.576   4.249  14.402 -0.6632  0.4910  0.0827
 8385TIP3    H246571   6.578   4.225  14.253  1.4049 -1.1248  0.3360
 8386TIP3   OH246572   3.940   5.089  15.307 -0.1118 -0.1186  0.2559
 8386TIP3    H146573   3.977   5.027  15.371  1.7840 -0.6623 -1.3219
 8386TIP3    H246574   3.873   5.038  15.261 -1.0610  0.0930  1.3897
 8387TIP3   OH246575   5.813   5.644   4.114 -0.9360 -0.3847  0.7341
 8387TIP3    H146576   5.872   5.634   4.189 -0.3967  1.3072  0.5729
 8387TIP3    H246577   5.843   5.579   4.050  1.6078  1.2838  0.1382
 8388TIP3   OH246578   5.940   1.962  15.998 -0.1561  0.1893  0.6667
 8388TIP3    H146579   5.863   2.001  15.956  0.9188  1.6640  0.0132
 8388TIP3    H246580   6.008   2.029  15.990  1.4446 -1.4172  0.4695
 8389TIP3   OH246581   1.919   0.075  12.253 -0.0629 -0.0772  0.4237
 8389TIP3    H146582   1.883   0.094  12.167  1.5290 -0.9070 -0.4379
 8389TIP3    H246583   1.896   0.151  12.306 -2.6064 -0.3549 -0.2342
 8390TIP3   OH246584   1.559   3.374   1.071  0.1070  0.2462  0.7811
 8390TIP3    H146585   1.608   3.380   0.989  0.1385 -0.2222  0.7623
 8390TIP3    H246586   1.538   3.464   1.093  1.3485  0.4915  1.0106
 8391TIP3   OH246587   3.231   2.399  11.746  0.3918 -0.0887  0.5455
 8391TIP3    H146588   3.242   2.318  11.794  0.5126  0.3888  1.3284
 8391TIP3    H246589   3.317   2.418  11.709  0.4773 -0.0527  0.7685
 8392TIP3   OH246590   3.476   5.704  14.536  0.2555 -0.5589 -0.2797
 8392TIP3    H146591   3.462   5.784  14.586  0.5189  1.1866 -2.9063
 8392TIP3    H246592   3.390   5.681  14.502  0.8300  0.9861 -2.9264
 8393TIP3   OH246593   0.937   5.897   2.275  0.2367  0.3386 -0.1635
 8393TIP3    H146594   1.025   5.859   2.286 -0.1967 -0.6122  0.0484
 8393TIP3    H246595   0.918   5.884   2.182 -0.6226 -1.5577  0.2508
 8394TIP3   OH246596   2.342   5.580   6.064  0.0598  0.2682  0.1327
 8394TIP3    H146597   2.285   5.638   6.115 -0.0514  0.9999 -0.8243
 8394TIP3    H246598   2.301   5.494   6.070 -0.2730  0.4674  0.7767
 8395TIP3   OH246599   1.126   0.050   0.349  0.2522  0.2198  0.1772
 8395TIP3    H146600   1.080   0.016   0.426  0.1339  0.7462  0.3389
 8395TIP3    H246601   1.178  -0.025   0.317 -0.5589 -0.3182  0.1048
 8396TIP3   OH246602   2.703   2.032  12.355  0.2753 -0.3973 -0.1390
 8396TIP3    H146603   2.731   1.967  12.291  2.0139 -1.2710  1.4730
 8396TIP3    H246604   2.678   1.980  12.432  1.6728  0.8218  1.1612
 8397TIP3   OH246605   2.476   3.383  15.920 -0.3678  0.9983  0.1650
 8397TIP3    H146606   2.399   3.329  15.903  0.1726  0.1354  0.4325
 8397TIP3    H246607   2.465   3.459  15.862 -1.5119  0.9862  0.3379
 8398TIP3   OH246608   5.886   1.091  10.755  0.3041 -0.0299  0.6509
 8398TIP3    H146609   5.840   1.022  10.708  0.7381 -0.3404  0.6748
 8398TIP3    H246610   5.941   1.133  10.688  1.9046 -1.3153  1.1309
 8399TIP3   OH246611   2.300   0.960  11.673 -0.1981  0.4990  0.2657
 8399TIP3    H146612   2.326   0.872  11.698 -1.0961 -0.2476 -1.3382
 8399TIP3    H246613   2.226   0.980  11.730 -0.7944 -0.2964 -0.2112
 8400TIP3   OH246614   5.676   1.574  12.873  0.0785  0.3387  0.2778
 8400TIP3    H146615   5.743   1.555  12.808  0.3412  2.2649 -0.0217
 8400TIP3    H246616   5.593   1.570  12.825  0.3001  2.1477 -0.2726
 8401TIP3   OH246617   5.508   4.159  15.130 -0.1709 -0.0908 -0.1446
 8401TIP3    H146618   5.603   4.151  15.121 -0.0727 -2.9827  2.7444
 8401TIP3    H246619   5.495   4.251  15.153  1.7639  0.6637 -1.8482
 8402TIP3   OH246620   2.546   5.187   4.589  0.1371  0.2252  0.0822
 8402TIP3    H146621   2.506   5.100   4.596  0.2196  0.2947  1.6936
 8402TIP3    H246622   2.504   5.238   4.658  1.2477  0.9918  0.2091
 8403TIP3   OH246623   2.423   2.042   1.996 -0.3910  0.0811  0.0462
 8403TIP3    H146624   2.370   2.117   2.023  1.1100  1.3981 -0.6160
 8403TIP3    H246625   2.409   1.977   2.065 -3.4795  0.0779 -0.5088
 8404TIP3   OH246626   6.783   2.279  14.293 -0.2185  0.4259  0.2444
 8404TIP3    H146627   6.728   2.202  14.306 -1.5808  0.7536 -3.0019
 8404TIP3    H246628   6.844   2.278  14.367 -1.3564 -2.7644  1.2254
 8405TIP3   OH246629   0.036   2.152  13.904  0.7215 -0.0412  0.2673
 8405TIP3    H146630  -0.046   2.129  13.948  1.1056  1.0364  1.6016
 8405TIP3    H246631   0.099   2.089  13.937  0.8798  0.4093  0.8417
 8406TIP3   OH246632   1.953   2.532  14.379  0.5493  0.2826 -0.2695
 8406TIP3    H146633   1.986   2.444  14.366 -1.3365 -0.7235  1.4333
 8406TIP3    H246634   1.991   2.561  14.462  0.0381  0.5099 -0.1095
 8407TIP3   OH246635   2.801   2.109   2.039 -0.6528  0.2942 -0.3010
 8407TIP3    H146636   2.851   2.133   2.117 -1.5676  1.0941  0.0405
 8407TIP3    H246637   2.816   2.180   1.977 -2.5975  1.3096  0.3652
 8408TIP3   OH246638   6.147   0.902  14.738  0.3135  0.2110  0.2096
 8408TIP3    H146639   6.083   0.970  14.759  1.5768  1.3271  0.4574
 8408TIP3    H246640   6.176   0.922  14.649 -0.0624 -0.6181 -0.1134
 8409TIP3   OH246641   5.197   1.369   0.112 -0.3910 -0.1436  0.3197
 8409TIP3    H146642   5.127   1.431   0.089 -1.2979 -0.6560  1.6317
 8409TIP3    H246643   5.236   1.404   0.192 -1.2613 -1.5096  1.3715
 8410TIP3   OH246644   3.847   6.609  13.162  0.2380 -0.6201 -0.3035
 8410TIP3    H146645   3.854   6.664  13.084  0.1691 -1.2782 -0.7783
 8410TIP3    H246646   3.816   6.668  13.231  1.5127  0.2612 -0.4565
 8411TIP3   OH246647   6.286   5.302  14.206 -0.5409  0.2691  0.6640
 8411TIP3    H146648   6.378   5.285  14.189 -0.1694  0.6406  2.1979
 8411TIP3    H246649   6.277   5.397  14.195 -1.1998 -0.0145 -1.4943
 8412TIP3   OH246650   3.186   1.371  12.299  0.7603  0.1577 -0.1186
 8412TIP3    H146651   3.257   1.406  12.246  0.6942  0.7294  0.1634
 8412TIP3    H246652   3.215   1.385  12.389  1.0005 -1.0636 -0.0058
 8413TIP3   OH246653   3.875   3.030  15.074  0.2039 -0.1063 -0.3091
 8413TIP3    H146654   3.905   3.096  15.011  1.1208 -0.0532  0.1589
 8413TIP3    H246655   3.849   2.956  15.020 -2.2133  1.1507 -0.9231
 8414TIP3   OH246656   1.694   3.625  15.497  0.6800 -0.7006  1.0528
 8414TIP3    H146657   1.603   3.653  15.482  0.7713 -0.9869 -0.0142
 8414TIP3    H246658   1.690   3.530  15.493  0.9423 -0.7324  1.5304
 8415TIP3   OH246659   4.190   2.377  13.974 -0.0311 -0.4047 -0.1004
 8415TIP3    H146660   4.254   2.336  14.032  0.9226 -0.5061 -1.2053
 8415TIP3    H246661   4.154   2.305  13.922 -0.2806 -0.1993 -0.2140
 8416TIP3   OH246662   5.345   0.695  16.696 -0.0873  0.2838 -0.1692
 8416TIP3    H146663   5.280   0.721  16.761  0.0984 -0.9702  0.5296
 8416TIP3    H246664   5.351   0.600  16.705  2.0823  0.4086  0.0147
 8417TIP3   OH246665   1.147   3.411   6.427  0.4954  0.1601 -0.4104
 8417TIP3    H146666   1.097   3.354   6.485 -0.2666  2.0504  0.8476
 8417TIP3    H246667   1.238   3.396   6.450  0.3751 -1.4005 -0.9152
 8418TIP3   OH246668   4.307   0.549   6.263 -0.1616  0.3674  0.0894
 8418TIP3    H146669   4.218   0.580   6.278 -0.4573  0.0005 -0.8429
 8418TIP3    H246670   4.329   0.500   6.342 -1.4847 -1.1041 -0.4352
 8419TIP3   OH246671   0.990   0.548  14.942  0.1264 -0.1637 -0.4770
 8419TIP3    H146672   1.008   0.641  14.960 -0.7504 -0.0777 -0.0494
 8419TIP3    H246673   0.975   0.545  14.847 -1.6950  0.4461 -0.2284
 8420TIP3   OH246674   2.567   4.506   0.680 -0.0491 -0.4217 -0.6290
 8420TIP3    H146675   2.535   4.471   0.597 -0.0119  0.7917 -1.1563
 8420TIP3    H246676   2.621   4.580   0.656 -4.2353  3.2763  0.6538
 8421TIP3   OH246677   0.645   0.092  16.132  0.0266 -0.0976  0.3575
 8421TIP3    H146678   0.604   0.071  16.216  2.1110  0.6990  1.6051
 8421TIP3    H246679   0.652   0.007  16.088 -0.5949 -0.5965  1.1961
 8422TIP3   OH246680   1.444   2.736  14.231 -0.3279 -0.1985 -0.1624
 8422TIP3    H146681   1.526   2.707  14.273 -0.3278  0.5182  0.3287
 8422TIP3    H246682   1.456   2.830  14.218 -0.0319 -0.5349 -2.4352
 8423TIP3   OH246683   2.283   3.199  15.308  0.3255  0.5163  0.7498
 8423TIP3    H146684   2.202   3.195  15.257  0.0501  1.9921  1.0527
 8423TIP3    H246685   2.352   3.207  15.242  0.1231  0.5220  0.5351
 8424TIP3   OH246686   4.785   2.475   6.222 -0.4160 -0.6473 -0.1751
 8424TIP3    H146687   4.818   2.480   6.312  0.8364  0.5732 -0.6750
 8424TIP3    H246688   4.861   2.449   6.171 -1.0461 -1.0214 -0.9247
 8425TIP3   OH246689   5.305   3.987  11.857 -0.8496  0.7463  0.1188
 8425TIP3    H146690   5.230   3.928  11.851 -1.2568  1.2008  0.7399
 8425TIP3    H246691   5.361   3.961  11.784 -1.2721 -0.0647  0.0797
 8426TIP3   OH246692   4.737   5.425   4.266 -0.4753  0.1341  0.2011
 8426TIP3    H146693   4.791   5.502   4.245 -0.9939 -0.2214 -2.7380
 8426TIP3    H246694   4.799   5.352   4.262 -0.4691  0.1285  0.4340
 8427TIP3   OH246695   2.066   4.043  12.264  0.0276 -0.2084  0.3973
 8427TIP3    H146696   2.101   3.985  12.196  0.3270  0.2675  0.1387
 8427TIP3    H246697   2.071   4.131  12.225  1.4926  0.2398  1.5255
 8428TIP3   OH246698   4.490   0.733  14.526  0.2343  0.1765  0.0094
 8428TIP3    H146699   4.429   0.764  14.459 -0.3451 -0.4460  0.2382
 8428TIP3    H246700   4.565   0.698  14.477 -0.2111 -0.3256 -0.3222
 8429TIP3   OH246701   3.232   6.146   0.201 -0.0333 -0.7419  0.0317
 8429TIP3    H146702   3.141   6.147   0.232  0.1051  2.4786  0.4329
 8429TIP3    H246703   3.283   6.119   0.278 -0.4731 -1.0447  0.2210
 8430TIP3   OH246704   6.357   2.736  14.659  0.0779  0.3534  0.7526
 8430TIP3    H146705   6.420   2.720  14.729 -1.5938  1.5021  2.5663
 8430TIP3    H246706   6.300   2.659  14.660 -0.4308  0.7297  1.2089
 8431TIP3   OH246707   5.840   0.215  17.068 -0.5822 -0.0922 -0.0871
 8431TIP3    H146708   5.826   0.308  17.088  0.0724  0.7996 -3.4722
 8431TIP3    H246709   5.935   0.205  17.068 -0.6610 -0.9140  0.7649
 8432TIP3   OH246710   1.374   6.336   3.347  0.2253 -0.5715  0.5190
 8432TIP3    H146711   1.297   6.380   3.312  1.0056  0.9968  0.6925
 8432TIP3    H246712   1.412   6.291   3.271 -0.5127 -0.8350  0.3032
 8433TIP3   OH246713   1.129   4.349   0.017  0.9732 -0.3437  0.3357
 8433TIP3    H146714   1.126   4.373   0.109  1.0340 -1.9049  0.7506
 8433TIP3    H246715   1.215   4.309   0.005  1.3475  0.7129 -0.6304
 8434TIP3   OH246716   2.429   4.578   1.752 -0.0080 -0.7291  0.1023
 8434TIP3    H146717   2.414   4.609   1.663  0.9140  0.3371  0.3058
 8434TIP3    H246718   2.514   4.533   1.749  1.9588  2.7414  1.2396
 8435TIP3   OH246719   4.943   2.358  10.197  0.1294 -0.1182  0.5236
 8435TIP3    H146720   4.989   2.397  10.271 -1.0124 -0.5026  1.4555
 8435TIP3    H246721   4.985   2.272  10.186  0.4249  0.0137  0.6093
 8436TIP3   OH246722   3.589   5.930   0.133 -0.0789  0.9282 -0.3426
 8436TIP3    H146723   3.679   5.960   0.124  0.0328  1.1580  1.4775
 8436TIP3    H246724   3.538   5.987   0.075  0.7973  1.4260 -0.6220
 8437TIP3   OH246725   5.152   6.015  15.188  0.2373  0.2864 -0.1091
 8437TIP3    H146726   5.205   6.084  15.148 -0.9319  0.7122 -0.9549
 8437TIP3    H246727   5.212   5.942  15.199  1.6665  1.6497  1.4156
 8438TIP3   OH246728   2.053   6.275  15.822 -0.1823  0.0253 -0.1131
 8438TIP3    H146729   2.104   6.319  15.890  0.1895  0.0465 -0.4001
 8438TIP3    H246730   2.052   6.183  15.849  1.9555 -0.3839 -1.2622
 8439TIP3   OH246731   4.339   6.767   3.665 -0.6867  0.3028  0.1879
 8439TIP3    H146732   4.295   6.684   3.686 -0.5642 -0.1044 -1.1233
 8439TIP3    H246733   4.287   6.833   3.710  0.3236 -0.6311  2.8799
 8440TIP3   OH246734   3.779   3.598   3.253 -0.0574  0.2656  0.0349
 8440TIP3    H146735   3.808   3.546   3.178  0.2204  1.0245 -0.3933
 8440TIP3    H246736   3.780   3.688   3.221 -0.3393  0.5545  0.8291
 8441TIP3   OH246737   3.227   5.226   6.098 -1.2587 -0.1307  0.1284
 8441TIP3    H146738   3.137   5.258   6.099 -0.9885  0.6145  1.4887
 8441TIP3    H246739   3.278   5.298   6.060 -1.2537 -0.6656 -0.9267
 8442TIP3   OH246740   5.524   4.233   1.480 -0.8377 -0.0376 -0.6850
 8442TIP3    H146741   5.589   4.289   1.522 -0.5671  0.6147 -1.9560
 8442TIP3    H246742   5.542   4.240   1.387 -1.1691 -1.8078 -0.8995
 8443TIP3   OH246743   1.893   6.310   2.321  0.8030  0.0626 -0.0882
 8443TIP3    H146744   1.901   6.377   2.388  0.7345 -0.9321  0.9235
 8443TIP3    H246745   1.934   6.232   2.359  1.4770 -0.2896 -1.5001
 8444TIP3   OH246746   6.209   4.930  17.105  0.5598  0.0423 -0.3702
 8444TIP3    H146747   6.254   4.868  17.162  0.4496 -0.3812 -0.7456
 8444TIP3    H246748   6.223   5.015  17.147  0.1810 -0.3081  0.4763
 8445TIP3   OH246749   1.605   0.231   1.028 -0.1942  0.4482 -0.3879
 8445TIP3    H146750   1.560   0.241   0.945  1.0760  0.4366 -1.0916
 8445TIP3    H246751   1.561   0.292   1.088 -1.2730  0.2616 -0.9961
 8446TIP3   OH246752   0.196   0.682   3.009  0.0912  0.4539  0.0730
 8446TIP3    H146753   0.155   0.716   2.929 -0.3698  1.9799  0.9371
 8446TIP3    H246754   0.140   0.715   3.080  0.0647 -1.5023  0.9930
 8447TIP3   OH246755   5.216   1.410  15.394  0.0343  0.3737  0.3697
 8447TIP3    H146756   5.192   1.503  15.397  1.1016  0.6559  0.1988
 8447TIP3    H246757   5.296   1.408  15.341  2.4257 -0.1246  3.8263
 8448TIP3   OH246758   4.700   4.819   4.198  0.2807  0.3764  0.1648
 8448TIP3    H146759   4.744   4.841   4.116 -1.2573  0.3029 -0.7009
 8448TIP3    H246760   4.759   4.758   4.242  0.7167 -0.2804 -1.3060
 8449TIP3   OH246761   6.750   0.760  11.801  0.0986  0.1234 -0.3618
 8449TIP3    H146762   6.827   0.708  11.777  0.1424  0.3110 -0.6378
 8449TIP3    H246763   6.704   0.773  11.718 -1.3023 -1.6885  0.1040
 8450TIP3   OH246764   2.134   3.130   6.125  0.3816 -0.5285 -0.2045
 8450TIP3    H146765   2.184   3.101   6.048 -1.1995 -1.8137 -0.7761
 8450TIP3    H246766   2.072   3.059   6.142 -2.6441  1.8506 -0.7414
 8451TIP3   OH246767   1.112   3.548  15.005  0.2018  0.0282 -0.0719
 8451TIP3    H146768   1.084   3.615  14.943 -1.6660 -0.7259 -0.0625
 8451TIP3    H246769   1.178   3.592  15.060 -0.9222  1.8193 -0.1285
 8452TIP3   OH246770   1.418   0.245  16.983 -0.3645 -0.0135 -0.2807
 8452TIP3    H146771   1.357   0.183  17.023 -1.0458 -0.3692 -1.8415
 8452TIP3    H246772   1.364   0.295  16.921  0.5341  0.9612 -0.2800
 8453TIP3   OH246773   5.401   5.985  11.757 -0.4200  0.1304 -0.9897
 8453TIP3    H146774   5.392   6.051  11.826 -1.5363  0.4754 -1.4545
 8453TIP3    H246775   5.482   5.939  11.779 -0.3080  0.8027  0.0667
 8454TIP3   OH246776   2.733   5.077  12.210 -0.2114 -1.0404 -0.0081
 8454TIP3    H146777   2.700   5.005  12.263 -0.6589  0.7199  2.1290
 8454TIP3    H246778   2.828   5.064  12.207 -0.1680 -1.0362  1.3934
 8455TIP3   OH246779   6.322   2.094  14.128  0.4955 -0.3793 -0.6896
 8455TIP3    H146780   6.269   2.157  14.078  0.5383 -0.8881 -1.3925
 8455TIP3    H246781   6.258   2.038  14.172  0.4542 -0.3003 -0.6488
 8456TIP3   OH246782   4.852   5.537  12.534  0.3983  0.5573 -0.5905
 8456TIP3    H146783   4.919   5.504  12.473  0.7609  0.5467 -0.1890
 8456TIP3    H246784   4.807   5.606  12.485  1.2501  1.1321 -0.5756
 8457TIP3   OH246785   0.468   2.992  14.931  0.5311  0.2525 -0.4097
 8457TIP3    H146786   0.438   2.950  14.850 -3.6833  0.0896  1.1226
 8457TIP3    H246787   0.507   2.920  14.982 -1.3712 -0.6570 -0.2169
 8458TIP3   OH246788   2.397   4.821  16.504 -0.2251 -0.0269  0.3347
 8458TIP3    H146789   2.429   4.731  16.505 -0.6292 -0.1927 -0.8022
 8458TIP3    H246790   2.422   4.854  16.418  1.2814  1.4498  1.3052
 8459TIP3   OH246791   2.787   5.363  13.820 -0.3106  0.7898 -0.4400
 8459TIP3    H146792   2.704   5.410  13.806 -0.3299  1.3164  1.2435
 8459TIP3    H246793   2.782   5.336  13.912  1.8403  1.7158 -0.0378
 8460TIP3   OH246794   5.142   3.520   5.275 -0.6819 -0.4367 -0.1591
 8460TIP3    H146795   5.072   3.476   5.225  0.6551 -1.2445 -1.3531
 8460TIP3    H246796   5.217   3.521   5.215  0.5142 -0.1073  1.3258
 8461TIP3   OH246797   3.512   6.186  12.572  0.3599  0.3395 -0.1933
 8461TIP3    H146798   3.506   6.192  12.477  0.4176 -0.7526 -0.2708
 8461TIP3    H246799   3.588   6.241  12.595  2.2701 -1.8495 -1.0726
 8462TIP3   OH246800   5.772   4.064   0.864  0.1538 -0.0188 -0.3363
 8462TIP3    H146801   5.683   4.076   0.831  0.9994 -0.1552 -2.7668
 8462TIP3    H246802   5.819   4.144   0.839  1.2687 -0.8816 -1.0888
 8463TIP3   OH246803   4.707   0.390   3.982 -0.4567 -0.5253  0.1280
 8463TIP3    H146804   4.623   0.345   3.974 -1.2004  0.6050  1.3643
 8463TIP3    H246805   4.687   0.482   3.964  0.6863 -0.3794 -0.4565
 8464TIP3   OH246806   6.282   3.238  13.926 -0.1249  0.1295  0.0206
 8464TIP3    H146807   6.277   3.188  14.007 -1.0230 -2.2537 -1.4566
 8464TIP3    H246808   6.191   3.255  13.902  0.0228 -1.6855 -1.9510
 8465TIP3   OH246809   1.481   1.675  12.807  0.2684  0.4142  0.1997
 8465TIP3    H146810   1.498   1.588  12.843  1.1882  1.3329  2.0494
 8465TIP3    H246811   1.503   1.668  12.715  0.5131 -1.2677  0.3729
 8466TIP3   OH246812   3.784   0.478   1.571 -0.1113 -0.5582 -0.0503
 8466TIP3    H146813   3.781   0.494   1.477 -0.7383  0.8463  0.1981
 8466TIP3    H246814   3.847   0.542   1.604 -0.2736 -0.7058  0.5526
 8467TIP3   OH246815   0.748   6.071  15.026  0.0663 -0.1244  0.6092
 8467TIP3    H146816   0.789   6.157  15.036 -0.7668  0.1378  1.8491
 8467TIP3    H246817   0.806   6.024  14.966 -0.1591  1.7529 -1.1325
 8468TIP3   OH246818   3.886   6.571   5.826 -0.2704  0.3438  0.5303
 8468TIP3    H146819   3.893   6.491   5.878  1.0763 -0.5217 -0.9197
 8468TIP3    H246820   3.929   6.638   5.878  1.4057 -0.5958  0.4039
 8469TIP3   OH246821   5.923   1.002  16.682 -0.3369 -0.3517 -0.3255
 8469TIP3    H146822   5.954   1.091  16.662  0.0735 -0.8712 -2.1801
 8469TIP3    H246823   5.961   0.948  16.612 -2.0116 -1.6997 -0.2311
 8470TIP3   OH246824   5.967   6.750  17.220  0.6063  0.5417 -0.0149
 8470TIP3    H146825   6.048   6.750  17.271  0.5326 -2.0323  0.1199
 8470TIP3    H246826   5.898   6.764  17.285  0.6820 -0.6779  0.3398
 8471TIP3   OH246827   6.512   6.009  16.613  0.1312  0.4065 -0.4519
 8471TIP3    H146828   6.435   5.961  16.645  0.4881  0.7332  0.9354
 8471TIP3    H246829   6.517   5.986  16.520 -2.0110  0.8592 -0.7270
 8472TIP3   OH246830   1.657   1.041  12.126  0.0806  0.8753 -0.3609
 8472TIP3    H146831   1.681   1.115  12.182  2.9104 -0.2869  0.0764
 8472TIP3    H246832   1.675   0.964  12.181  0.3407 -0.2180 -1.9576
 8473TIP3   OH246833   4.986   0.997  16.933  0.3230  0.4441 -0.9914
 8473TIP3    H146834   4.935   0.928  16.976  0.9989  0.0057 -0.8930
 8473TIP3    H246835   5.062   1.010  16.989  1.2953 -0.2386 -2.1249
 8474TIP3   OH246836   6.629   0.323  16.720  1.0637  0.0455  0.7436
 8474TIP3    H146837   6.669   0.370  16.793 -0.3323  2.6513 -0.0928
 8474TIP3    H246838   6.544   0.366  16.708  1.2179 -0.4140 -2.3150
 8475TIP3   OH246839   1.967   2.070  16.000  0.5067  0.1840 -0.0517
 8475TIP3    H146840   1.908   2.120  15.943  0.8329  0.8060  0.1453
 8475TIP3    H246841   2.005   2.003  15.943 -0.6491 -0.4433 -0.0981
 8476TIP3   OH246842   0.531   4.156  11.887 -0.0138 -0.7938 -0.7612
 8476TIP3    H146843   0.467   4.216  11.849 -1.0286 -0.8472  0.8084
 8476TIP3    H246844   0.480   4.077  11.906  0.4415 -0.7553  0.7107
 8477TIP3   OH246845   5.969   3.767   2.885 -0.3342 -0.2185 -0.3640
 8477TIP3    H146846   6.016   3.798   2.808  0.4150 -1.0381 -0.2571
 8477TIP3    H246847   6.008   3.815   2.958  2.3204 -2.8466  0.0654
 8478TIP3   OH246848   0.967   2.689   4.256  0.2455 -0.0999  0.5402
 8478TIP3    H146849   1.022   2.767   4.259  1.3982 -0.8964  0.7967
 8478TIP3    H246850   1.007   2.629   4.319 -0.2919 -1.0921 -0.0393
 8479TIP3   OH246851   0.024   0.223  14.118  0.2626  0.3660  0.1950
 8479TIP3    H146852   0.002   0.307  14.158 -0.3636  0.6301 -0.6966
 8479TIP3    H246853  -0.026   0.221  14.036  2.2579  0.2631 -1.0622
 8480TIP3   OH246854   3.420   2.207   3.163  0.3788 -0.0909 -0.3608
 8480TIP3    H146855   3.362   2.246   3.228 -0.4452 -0.7991 -0.6594
 8480TIP3    H246856   3.493   2.268   3.155  0.9332 -0.4208  1.8946
 8481TIP3   OH246857   3.584   3.058  13.322  0.1284 -0.2816 -0.2492
 8481TIP3    H146858   3.560   3.080  13.412  0.1164 -1.5880  0.0772
 8481TIP3    H246859   3.575   3.141  13.274 -0.3208  0.3190  0.8497
 8482TIP3   OH246860   3.863   1.658  12.483  0.2775 -0.3000  0.5830
 8482TIP3    H146861   3.913   1.691  12.558  0.2868  0.1929  0.3613
 8482TIP3    H246862   3.924   1.601  12.436 -0.2934 -2.0928  1.9729
 8483TIP3   OH246863   2.253   5.888   4.771 -0.8862  0.2405  0.4078
 8483TIP3    H146864   2.284   5.969   4.730 -0.2030 -0.5220 -0.5937
 8483TIP3    H246865   2.178   5.915   4.824 -2.8526  0.9935 -2.6752
 8484TIP3   OH246866   5.112   6.169  16.289  0.2625 -0.5386  0.0395
 8484TIP3    H146867   5.040   6.180  16.351 -0.0248 -0.8552 -0.2327
 8484TIP3    H246868   5.170   6.242  16.306 -0.9391  0.6475 -0.8355
 8485TIP3   OH246869   6.154   4.699  12.948 -0.2290  0.0582  0.3687
 8485TIP3    H146870   6.223   4.744  12.899  1.0457 -0.2776  1.8205
 8485TIP3    H246871   6.084   4.686  12.884  1.2435 -0.0350 -1.2639
 8486TIP3   OH246872   3.481   2.871   0.145 -0.3066  0.0393  0.0322
 8486TIP3    H146873   3.564   2.896   0.185 -0.9895  0.4566  1.2166
 8486TIP3    H246874   3.505   2.807   0.077  0.6352 -3.0116  3.1105
 8487TIP3   OH246875   4.599   6.722   3.716 -0.2353  0.4844 -0.0609
 8487TIP3    H146876   4.564   6.707   3.804 -1.5986  0.2366 -0.6325
 8487TIP3    H246877   4.529   6.768   3.670  0.7654  1.2953 -0.8007
 8488TIP3   OH246878   0.731   2.978   2.722  0.0872  0.3967  0.2749
 8488TIP3    H146879   0.692   2.892   2.706 -1.6987  1.3627 -0.6922
 8488TIP3    H246880   0.808   2.960   2.777 -0.6516 -1.7360  0.6402
 8489TIP3   OH246881   3.251   0.013   0.365 -0.0256  0.8459 -0.1897
 8489TIP3    H146882   3.314  -0.015   0.298  0.0923  2.0335 -0.5709
 8489TIP3    H246883   3.171   0.033   0.317 -0.7108 -0.6276  0.2911
 8490TIP3   OH246884   2.550   4.655   5.723 -0.3985  0.4898  0.1612
 8490TIP3    H146885   2.519   4.598   5.794  0.4160  2.1184  1.8577
 8490TIP3    H246886   2.645   4.645   5.724 -0.3392  1.0214 -0.2657
 8491TIP3   OH246887   2.915   6.196  14.090 -0.0829 -0.2695  0.1734
 8491TIP3    H146888   2.916   6.254  14.166 -0.1516 -1.7912  1.3551
 8491TIP3    H246889   2.844   6.230  14.035 -0.6684  0.2818  1.2506
 8492TIP3   OH246890   4.407   5.852   0.235 -0.4413  0.4311  0.5968
 8492TIP3    H146891   4.497   5.820   0.229 -0.6218 -0.0213  0.2839
 8492TIP3    H246892   4.385   5.849   0.328 -0.5941 -0.7280  0.5326
 8493TIP3   OH246893   3.041   5.882   3.809  0.2464 -0.1497 -0.8166
 8493TIP3    H146894   2.973   5.918   3.752  0.4640 -0.5648 -1.3332
 8493TIP3    H246895   3.038   5.938   3.887  0.7685  1.1774 -1.7282
 8494TIP3   OH246896   0.845   3.127  13.261  0.3872 -0.4122 -0.0286
 8494TIP3    H146897   0.913   3.092  13.319 -2.5560 -0.7054  3.3836
 8494TIP3    H246898   0.772   3.066  13.270 -1.4325  1.5276 -1.2622
 8495TIP3   OH246899   0.344   3.827  10.794  0.3720 -0.0829  0.2492
 8495TIP3    H146900   0.403   3.787  10.729 -0.8353 -0.2521 -0.7757
 8495TIP3    H246901   0.347   3.767  10.869  2.7814  0.7885  0.8863
 8496TIP3   OH246902   5.713   5.618   3.374 -0.1168  0.6439  0.2679
 8496TIP3    H146903   5.786   5.569   3.335  1.1512  1.6960  1.3088
 8496TIP3    H246904   5.658   5.641   3.299  0.6588 -0.0714 -0.5366
 8497TIP3   OH246905   3.045   3.806  14.246  0.3221 -0.8008 -0.2117
 8497TIP3    H146906   3.084   3.752  14.315  0.6992 -1.4775 -0.9510
 8497TIP3    H246907   3.017   3.743  14.179 -0.9504 -0.2309 -0.2330
 8498TIP3   OH246908   6.183   6.444   5.348  0.3685 -0.0339  0.6595
 8498TIP3    H146909   6.147   6.484   5.269  2.1173 -0.2367 -0.2432
 8498TIP3    H246910   6.106   6.408   5.393 -0.2950 -3.0924 -2.6848
 8499TIP3   OH246911   5.533   4.980   6.430 -0.3583  0.5506 -0.3659
 8499TIP3    H146912   5.568   5.067   6.409  0.5271  0.5303  0.9133
 8499TIP3    H246913   5.439   4.992   6.435 -0.1973  1.5696  0.3605
 8500TIP3   OH246914   4.860   1.668   3.574 -0.1907 -0.3538 -0.0833
 8500TIP3    H146915   4.900   1.604   3.633  0.0810 -1.0712 -1.0224
 8500TIP3    H246916   4.840   1.744   3.629  1.5855 -0.3647  0.5921
 8501TIP3   OH246917   2.395   2.840  16.460 -0.8117  0.2720 -0.1839
 8501TIP3    H146918   2.400   2.744  16.460 -0.8096  0.2739  0.7423
 8501TIP3    H246919   2.433   2.865  16.375  0.7560 -0.4752  0.2654
 8502TIP3   OH246920   4.522   5.756  12.957 -0.1904  0.0275 -0.3610
 8502TIP3    H146921   4.530   5.815  12.882 -0.5787  0.2502 -0.2265
 8502TIP3    H246922   4.542   5.669  12.922  1.6438  0.4017 -0.2937
 8503TIP3   OH246923   5.444   1.533   6.435 -0.3580  0.2064  0.8000
 8503TIP3    H146924   5.379   1.498   6.495 -1.9077 -0.7072 -1.3453
 8503TIP3    H246925   5.522   1.480   6.451 -1.1366 -0.8564  1.1477
 8504TIP3   OH246926   0.242   1.681  15.438  0.0909  0.3703  0.3074
 8504TIP3    H146927   0.276   1.657  15.525  1.1867 -0.1001 -0.2417
 8504TIP3    H246928   0.320   1.694  15.385 -0.5869 -0.2997 -0.8698
 8505TIP3   OH246929   6.368   3.936   1.883 -0.1099 -0.5424 -0.6593
 8505TIP3    H146930   6.371   3.843   1.860  1.2929 -0.8902  0.8277
 8505TIP3    H246931   6.449   3.972   1.846  1.5183 -0.8368  2.4442
 8506TIP3   OH246932   2.010   2.982  16.985  0.0587  0.1588 -0.5381
 8506TIP3    H146933   1.950   3.014  17.053 -0.9554 -0.6269 -1.0481
 8506TIP3    H246934   2.092   3.028  17.003 -0.0520 -0.3717  1.5025
 8507TIP3   OH246935   5.375   2.665   3.022  0.3138  0.1813 -0.2196
 8507TIP3    H146936   5.281   2.677   3.007  0.4268  0.0275 -1.1118
 8507TIP3    H246937   5.397   2.588   2.969  0.7753 -0.2849  0.6499
 8508TIP3   OH246938   1.213   2.011  15.862  0.1188 -0.1174  0.0192
 8508TIP3    H146939   1.119   2.008  15.882  0.1349  0.3090  0.1492
 8508TIP3    H246940   1.256   2.005  15.947  0.1916  1.2490  0.0814
 8509TIP3   OH246941   1.691   5.657  14.947  0.6982 -0.4123  0.0573
 8509TIP3    H146942   1.750   5.733  14.945 -2.1632  1.8895 -2.8504
 8509TIP3    H246943   1.635   5.673  15.023  0.3863  0.1661 -0.2897
 8510TIP3   OH246944   4.583   2.549  11.437  0.0631 -0.1491  0.2000
 8510TIP3    H146945   4.615   2.494  11.508 -0.6817  1.1779  1.5739
 8510TIP3    H246946   4.524   2.493  11.388  1.0644 -1.2621  0.2424
 8511TIP3   OH246947   3.967   1.247   1.108  0.0931  0.3523 -0.2291
 8511TIP3    H146948   4.001   1.284   1.027 -0.7545  0.9656 -0.3143
 8511TIP3    H246949   3.913   1.317   1.146 -1.3711 -0.6983 -0.3056
 8512TIP3   OH246950   4.574   2.833   2.222  0.3781 -0.1680  0.2011
 8512TIP3    H146951   4.534   2.857   2.138  3.4701 -1.9856 -1.8676
 8512TIP3    H246952   4.548   2.742   2.236  0.6473 -0.1616  0.7512
 8513TIP3   OH246953   4.242   3.392  13.331 -0.4614 -0.3868  0.3858
 8513TIP3    H146954   4.266   3.478  13.296  0.7922 -0.6855  0.4717
 8513TIP3    H246955   4.297   3.330  13.283  0.5603 -0.8879  2.1356
 8514TIP3   OH246956   0.857   2.082  16.664 -0.4252 -0.2975 -0.0107
 8514TIP3    H146957   0.935   2.032  16.638 -1.8415 -1.3854 -2.2980
 8514TIP3    H246958   0.892   2.160  16.708  1.9744 -0.4582 -1.5650
 8515TIP3   OH246959   5.167   5.499  13.911 -0.1978 -0.4048  0.1693
 8515TIP3    H146960   5.169   5.557  13.835 -0.1332 -0.6131  0.0115
 8515TIP3    H246961   5.122   5.550  13.979 -1.7697 -0.8332 -0.5238
 8516TIP3   OH246962   0.716   2.805  11.393 -0.0340  0.7527  0.1914
 8516TIP3    H146963   0.643   2.778  11.448 -0.1518  0.2525 -0.2058
 8516TIP3    H246964   0.749   2.723  11.355 -0.6484  1.2046 -1.3351
 8517TIP3   OH246965   5.023   0.925   0.458 -0.3839 -0.5235  0.3243
 8517TIP3    H146966   4.944   0.907   0.407 -1.2525 -0.4154  1.6111
 8517TIP3    H246967   4.992   0.973   0.535  0.9560 -0.3223  0.7575
 8518TIP3   OH246968   0.520   2.115  12.913 -0.4074  0.3199  0.1036
 8518TIP3    H146969   0.551   2.206  12.909 -1.9455  0.8803  0.5690
 8518TIP3    H246970   0.459   2.107  12.840 -0.6771 -0.1868  0.3844
 8519TIP3   OH246971   3.392   4.611  14.869  0.4047  0.2970 -0.5538
 8519TIP3    H146972   3.373   4.579  14.957  0.0448  0.0467 -0.7236
 8519TIP3    H246973   3.456   4.550  14.834 -0.0944 -0.0981 -0.7834
 8520TIP3   OH246974   5.641   1.236   0.107 -0.4145  0.7418  0.3470
 8520TIP3    H146975   5.704   1.173   0.143 -1.0745  0.9285  1.8625
 8520TIP3    H246976   5.562   1.185   0.092  0.4955  0.1767 -2.9478
 8521TIP3   OH246977   6.332   6.281  10.966 -0.6368 -0.2235  0.2311
 8521TIP3    H146978   6.310   6.220  10.895 -2.9078  1.3859 -0.5058
 8521TIP3    H246979   6.303   6.366  10.934  3.6615  1.5612  0.6761
 8522TIP3   OH246980   4.334   0.816   1.686 -0.0381  0.3467 -0.2063
 8522TIP3    H146981   4.259   0.830   1.744  0.2795 -1.1386  0.6062
 8522TIP3    H246982   4.297   0.815   1.598 -1.0089 -0.5174  0.1963
 8523TIP3   OH246983   0.021   1.155  14.489 -0.2532 -0.8373 -0.3673
 8523TIP3    H146984   0.092   1.094  14.471  0.0732 -0.8563  0.9796
 8523TIP3    H246985   0.051   1.239  14.454  0.5877 -0.7641  0.5221
 8524TIP3   OH246986   0.566   0.355   2.368  0.0777 -0.3904 -0.1958
 8524TIP3    H146987   0.639   0.323   2.315 -2.1012 -1.6459 -2.5548
 8524TIP3    H246988   0.514   0.276   2.387 -0.4815  0.4151  1.7926
 8525TIP3   OH246989   2.523   4.674   2.260  0.8308  0.4117  0.3081
 8525TIP3    H146990   2.530   4.760   2.303  1.7864  0.3339  0.3323
 8525TIP3    H246991   2.486   4.693   2.174 -1.9338  0.4764  1.4454
 8526TIP3   OH246992   0.605   4.556   5.952 -0.6424  0.2802  0.0695
 8526TIP3    H146993   0.553   4.633   5.928 -2.4062  0.0012  2.7209
 8526TIP3    H246994   0.541   4.487   5.966  0.7984 -1.2288 -0.6640
 8527TIP3   OH246995   6.192   6.098  12.969  1.0566 -0.7335 -0.0714
 8527TIP3    H146996   6.167   6.087  12.877  1.5801 -0.0340 -0.3024
 8527TIP3    H246997   6.142   6.173  12.999  0.0126 -1.6749  0.5494
 8528TIP3   OH246998   1.951   5.726  10.416 -0.5859 -0.5292 -0.5347
 8528TIP3    H146999   1.970   5.785  10.490 -0.6761 -1.4244  0.2176
 8528TIP3    H247000   1.906   5.652  10.456  0.7567 -1.7637 -1.2542
 8529TIP3   OH247001   1.451   3.126  14.002  0.0143  0.2264  0.4565
 8529TIP3    H147002   1.409   3.127  13.916  0.3377  0.0855  0.2977
 8529TIP3    H247003   1.380   3.146  14.063 -0.1864  0.4773  0.1448
 8530TIP3   OH247004   3.813   2.656   2.377 -0.3328 -0.2757  0.2864
 8530TIP3    H147005   3.835   2.606   2.455  0.0406 -2.0289 -0.9056
 8530TIP3    H247006   3.738   2.610   2.339 -0.6149  0.6459 -0.2930
 8531TIP3   OH247007   0.073   2.245  14.566  0.2989 -0.1908 -0.2698
 8531TIP3    H147008   0.027   2.275  14.644  0.0959  0.5134 -0.6628
 8531TIP3    H247009   0.057   2.150  14.565  1.0015 -0.3434  0.9991
 8532TIP3   OH247010   2.546   4.797  14.104  0.1113  0.8104  0.1486
 8532TIP3    H147011   2.476   4.815  14.166  2.2225  1.9612  2.2594
 8532TIP3    H247012   2.614   4.755  14.155  0.6231 -1.1773 -2.0675
 8533TIP3   OH247013   2.189   0.487  16.861  0.1995  0.0733  0.0452
 8533TIP3    H147014   2.251   0.543  16.908  0.3717  0.2609 -0.4059
 8533TIP3    H247015   2.121   0.547  16.829  1.6586  0.4132 -2.5710
 8534TIP3   OH247016   1.287   6.702   1.451 -0.0065  0.1301 -0.7520
 8534TIP3    H147017   1.250   6.772   1.505  0.6337  1.0843 -1.5364
 8534TIP3    H247018   1.275   6.732   1.361  1.3037 -0.2313 -1.0592
 8535TIP3   OH247019   3.058   3.062  10.772  0.1390 -0.2273 -0.2727
 8535TIP3    H147020   3.086   2.994  10.833 -0.4207  0.5892  0.9178
 8535TIP3    H247021   3.104   3.141  10.801  0.2669  0.0626 -1.2320
 8536TIP3   OH247022   3.280   3.138  13.153  0.2451  0.2548 -0.3441
 8536TIP3    H147023   3.195   3.146  13.111  0.2005 -0.1902 -0.3416
 8536TIP3    H247024   3.277   3.053  13.197  1.1956 -0.4025 -1.5108
 8537TIP3   OH247025   4.853   5.555   1.814 -0.3510 -0.2300  0.5796
 8537TIP3    H147026   4.775   5.597   1.779 -0.1487  1.0551  1.6542
 8537TIP3    H247027   4.916   5.626   1.824  0.9910 -1.2696 -0.3588
 8538TIP3   OH247028   3.823   1.466  11.435  0.3264  0.1153 -0.4185
 8538TIP3    H147029   3.884   1.394  11.452 -0.2156 -0.2515  0.0155
 8538TIP3    H247030   3.843   1.493  11.346  1.2272  0.1068 -0.2248
 8539TIP3   OH247031   3.058   5.824   3.213  0.4651  0.3017  0.6254
 8539TIP3    H147032   3.034   5.821   3.306 -0.1383  0.0537  0.4651
 8539TIP3    H247033   2.996   5.887   3.175  0.3573 -0.0074  0.2888
 8540TIP3   OH247034   3.113   3.512   4.823 -0.7792 -0.4221  0.4926
 8540TIP3    H147035   3.152   3.451   4.760  1.3238  0.9553  0.4080
 8540TIP3    H247036   3.155   3.596   4.804 -4.1309  1.2648  0.1135
 8541TIP3   OH247037   4.188   5.476  11.126  0.1916  0.1817 -0.1429
 8541TIP3    H147038   4.263   5.532  11.145  1.2940 -0.3710 -2.6346
 8541TIP3    H247039   4.218   5.420  11.054 -1.7204 -1.8747  0.6010
 8542TIP3   OH247040   1.563   0.791  12.851  0.3204  0.4689  0.1920
 8542TIP3    H147041   1.587   0.883  12.863  0.7538  0.6008 -1.5247
 8542TIP3    H247042   1.499   0.793  12.780  1.5423 -0.6964 -0.9703
 8543TIP3   OH247043   2.275   0.042   2.244  0.5380  0.1954  0.1548
 8543TIP3    H147044   2.207  -0.008   2.287 -0.8209  0.1849 -1.9126
 8543TIP3    H247045   2.250   0.042   2.151  3.3555  0.1568 -0.6734
 8544TIP3   OH247046   4.558   6.738   2.456  0.5100 -0.1855  0.2599
 8544TIP3    H147047   4.499   6.803   2.494 -1.0213 -1.3783 -0.0406
 8544TIP3    H247048   4.640   6.748   2.505 -0.4756  0.3221  1.8114
 8545TIP3   OH247049   3.150   3.188  15.058 -0.6075  0.3523 -0.0817
 8545TIP3    H147050   3.172   3.111  15.005  2.1714  0.2654  1.0705
 8545TIP3    H247051   3.162   3.157  15.149 -0.0227  1.9545  0.3993
 8546TIP3   OH247052   1.908   2.549   2.016  0.4722 -1.1964 -0.5031
 8546TIP3    H147053   1.864   2.612   2.074  2.9027  0.1828 -0.0812
 8546TIP3    H247054   1.857   2.553   1.935 -0.4770  0.0051  0.1180
 8547TIP3   OH247055   0.189   4.872  13.639 -0.0152 -0.2096  0.0422
 8547TIP3    H147056   0.219   4.963  13.642 -0.4562 -0.0145 -1.3192
 8547TIP3    H247057   0.270   4.821  13.637  0.2831 -0.0011  3.7800
 8548TIP3   OH247058   2.673   2.930  17.088 -0.0363 -0.1705 -0.3118
 8548TIP3    H147059   2.647   2.951  16.998  0.3566  0.6585 -0.2358
 8548TIP3    H247060   2.745   2.990  17.107  1.7772 -2.2448 -0.4317
 8549TIP3   OH247061   6.073   2.977   5.164  0.5216 -0.1165  0.7760
 8549TIP3    H147062   6.062   2.946   5.074  2.5557 -0.6034  0.6814
 8549TIP3    H247063   6.121   2.907   5.208 -1.8520 -0.6176  2.7075
 8550TIP3   OH247064   0.810   2.253  15.710 -0.5093  0.3575  0.4667
 8550TIP3    H147065   0.738   2.193  15.727 -1.6988  1.3730 -0.8255
 8550TIP3    H247066   0.889   2.202  15.728 -1.4631 -1.8146 -1.2266
 8551TIP3   OH247067   2.481   0.392   6.171 -0.3924  0.0679 -0.6234
 8551TIP3    H147068   2.457   0.340   6.094 -1.3023  0.8480 -0.8843
 8551TIP3    H247069   2.422   0.468   6.168  0.1261  0.5255  0.3867
 8552TIP3   OH247070   4.180   1.770  10.345  0.6406 -0.8432  0.1356
 8552TIP3    H147071   4.273   1.749  10.336  1.4539  1.3490  2.7069
 8552TIP3    H247072   4.142   1.693  10.388  1.5756 -1.1546  0.4233
 8553TIP3   OH247073   5.713   4.401  12.439  0.4113 -0.1029 -0.6308
 8553TIP3    H147074   5.648   4.406  12.510  0.8539 -0.0569 -0.2278
 8553TIP3    H247075   5.731   4.492  12.417  1.0230 -0.1012 -0.1166
 8554TIP3   OH247076   1.262   0.669   3.903 -0.0900  0.0053  0.0268
 8554TIP3    H147077   1.263   0.619   3.984 -1.9623 -0.0638  0.0330
 8554TIP3    H247078   1.244   0.604   3.835  1.6028  0.0415 -0.4619
 8555TIP3   OH247079   6.396   2.528   2.541 -0.4200 -0.1473 -0.4408
 8555TIP3    H147080   6.375   2.471   2.616 -1.5001 -0.3988 -0.9319
 8555TIP3    H247081   6.318   2.526   2.487  0.2106  0.3737 -1.3768
 8556TIP3   OH247082   6.311   0.590  11.079 -0.1918  0.0017 -0.0441
 8556TIP3    H147083   6.366   0.569  11.154 -0.2126  0.0919 -0.0031
 8556TIP3    H247084   6.227   0.548  11.099  0.6779 -2.4983 -1.3681
 8557TIP3   OH247085   3.413   3.419  15.785  0.4363  0.1426 -0.1563
 8557TIP3    H147086   3.463   3.363  15.726  0.9816 -0.6773  1.0463
 8557TIP3    H247087   3.450   3.400  15.872 -2.2639 -0.8037  0.8218
 8558TIP3   OH247088   2.096   5.218  16.051  0.2581  0.2002  0.5143
 8558TIP3    H147089   2.096   5.283  15.981 -1.1213 -0.3048  0.0249
 8558TIP3    H247090   2.151   5.148  16.019  2.0094  1.2509  1.1758
 8559TIP3   OH247091   4.334   5.902   1.876  0.9638 -0.3697  0.3164
 8559TIP3    H147092   4.329   5.811   1.849 -1.4179 -0.4086  0.7826
 8559TIP3    H247093   4.297   5.903   1.964 -1.4260  1.4172 -0.6547
 8560TIP3   OH247094   0.522   2.527  10.557 -0.7382  0.0831  0.7853
 8560TIP3    H147095   0.599   2.470  10.562 -0.9181 -0.1840  0.5428
 8560TIP3    H247096   0.475   2.497  10.479 -0.4199  1.0899  0.2018
 8561TIP3   OH247097   2.573   4.912  16.763 -0.1016 -0.5888 -0.1604
 8561TIP3    H147098   2.604   4.944  16.678 -1.3624  2.5056  0.4758
 8561TIP3    H247099   2.653   4.897  16.813  0.5901  0.0410 -1.0532
 8562TIP3   OH247100   0.836   3.071   2.495  0.1703  0.6695 -0.4724
 8562TIP3    H147101   0.781   3.007   2.450  3.1171 -1.4568 -1.2795
 8562TIP3    H247102   0.812   3.063   2.587 -0.3030 -0.8525 -0.7080
 8563TIP3   OH247103   3.207   1.690  13.867  0.3799  0.4609  0.9377
 8563TIP3    H147104   3.151   1.674  13.942 -1.7431 -1.9805 -1.0767
 8563TIP3    H247105   3.168   1.766  13.824  0.6638  0.8811  1.4153
 8564TIP3   OH247106   1.118   4.340  13.459  0.1827 -0.7231  0.1566
 8564TIP3    H147107   1.053   4.408  13.440 -0.3237 -1.3617 -0.4295
 8564TIP3    H247108   1.193   4.387  13.496 -0.2819  0.1123  0.0363
 8565TIP3   OH247109   2.174   2.558   2.494 -0.4734  0.4496  0.3390
 8565TIP3    H147110   2.088   2.578   2.532  0.2264 -0.6436  2.6537
 8565TIP3    H247111   2.215   2.643   2.479 -2.2054  0.9856 -1.3816
 8566TIP3   OH247112   4.250   5.647  16.055  0.3776  0.0003  0.0386
 8566TIP3    H147113   4.333   5.660  16.010 -0.0347  0.8423 -0.4798
 8566TIP3    H247114   4.274   5.627  16.145  1.1480  0.0174 -0.1646
 8567TIP3   OH247115   4.187   3.226  13.858 -0.3102  0.2196 -0.4420
 8567TIP3    H147116   4.215   3.154  13.915 -1.2712  0.4486  0.3423
 8567TIP3    H247117   4.093   3.235  13.876 -0.5754  0.4794 -1.8672
 8568TIP3   OH247118   4.308   1.717  15.788  0.4821  0.1801 -0.1482
 8568TIP3    H147119   4.384   1.772  15.770  1.0602 -0.3517  0.5772
 8568TIP3    H247120   4.325   1.636  15.739 -0.3164  0.6132 -1.1385
 8569TIP3   OH247121   3.897   6.022  15.244  0.1245 -0.1742 -0.1145
 8569TIP3    H147122   3.981   5.979  15.224 -0.4077 -1.5904  0.6095
 8569TIP3    H247123   3.848   5.956  15.294 -0.4568  1.5380  1.6261
 8570TIP3   OH247124   3.513   5.648   0.047 -0.3701  0.0235  0.3044
 8570TIP3    H147125   3.603   5.614   0.046  0.2546  1.6297 -1.1999
 8570TIP3    H247126   3.519   5.729   0.098 -0.7070  0.7728 -0.8244
 8571TIP3   OH247127   1.213   1.393   1.265  0.3740  0.2343 -0.2069
 8571TIP3    H147128   1.143   1.406   1.202 -0.3596 -3.3486 -0.2540
 8571TIP3    H247129   1.169   1.396   1.350  1.0242  2.9574  0.0759
 8572TIP3   OH247130   1.021   3.597  14.499  0.8562  0.2629  0.0952
 8572TIP3    H147131   1.082   3.671  14.502  0.6773  0.5471 -2.3218
 8572TIP3    H247132   0.938   3.635  14.474  0.3677 -0.5526  0.4591
 8573TIP3   OH247133   4.026   1.798  16.069  0.3769  0.0984  0.2381
 8573TIP3    H147134   3.991   1.770  15.985  1.5264 -0.8777  0.0682
 8573TIP3    H247135   4.042   1.717  16.117 -0.1103  0.6357  1.3389
 8574TIP3   OH247136   3.073   6.385   2.516 -0.1675 -0.1653 -0.5297
 8574TIP3    H147137   2.989   6.430   2.525  0.9688  2.0395 -0.5107
 8574TIP3    H247138   3.112   6.389   2.604  0.3867 -0.3097 -0.7675
 8575TIP3   OH247139   2.820   0.197  12.458  0.4332 -0.1667 -0.2443
 8575TIP3    H147140   2.758   0.131  12.425  1.1056 -0.6183 -0.6297
 8575TIP3    H247141   2.766   0.273  12.479 -0.3019 -0.7042 -0.1843
 8576TIP3   OH247142   1.866   4.557   5.800 -0.7566  0.0157  0.5541
 8576TIP3    H147143   1.908   4.472   5.789 -0.6565 -0.0464  1.3695
 8576TIP3    H247144   1.861   4.569   5.895  2.5160  2.4873  0.5058
 8577TIP3   OH247145   0.549   4.227   1.316 -0.0621 -0.2868  0.3222
 8577TIP3    H147146   0.529   4.273   1.397  1.0026 -0.0651  0.4725
 8577TIP3    H247147   0.605   4.287   1.267 -0.5843 -0.4761 -0.5210
 8578TIP3   OH247148   1.520   2.032   4.057 -0.3144 -0.0650  0.0458
 8578TIP3    H147149   1.443   2.013   4.111 -0.7825  0.2810 -0.4958
 8578TIP3    H247150   1.555   2.113   4.095 -1.6052  1.1068 -1.1837
 8579TIP3   OH247151   2.486   1.959  14.586 -0.1298  0.1583  0.5580
 8579TIP3    H147152   2.447   2.025  14.644  0.4534 -0.4735  1.6859
 8579TIP3    H247153   2.558   2.005  14.542 -2.1705  1.3702 -1.6273
 8580TIP3   OH247154   2.100   0.306   1.439  0.5584 -0.4211 -0.0290
 8580TIP3    H147155   2.021   0.358   1.449  0.2849 -0.8765  0.1753
 8580TIP3    H247156   2.171   0.365   1.465  0.6358  1.1238 -3.5834
 8581TIP3   OH247157   1.185   5.260  15.861  0.2657  0.0409  0.1017
 8581TIP3    H147158   1.201   5.346  15.821  1.8677 -1.6517 -3.0577
 8581TIP3    H247159   1.090   5.257  15.876  0.0872  2.0213 -0.5398
 8582TIP3   OH247160   1.117   0.204  12.383  0.1576  0.1819  0.2602
 8582TIP3    H147161   1.120   0.179  12.290  1.1437  0.5241  0.1888
 8582TIP3    H247162   1.176   0.280  12.389 -0.8457  0.9258  0.9415
 8583TIP3   OH247163   4.314   6.215   5.924  0.6947  0.1001 -0.0601
 8583TIP3    H147164   4.368   6.288   5.954 -1.3586  0.8976  1.8776
 8583TIP3    H247165   4.337   6.143   5.981 -1.3330  0.8794  1.8135
 8584TIP3   OH247166   0.571   1.056   3.881  0.3016 -0.4732  0.4663
 8584TIP3    H147167   0.645   1.050   3.941  1.2929  1.5323 -0.4898
 8584TIP3    H247168   0.589   0.990   3.814  1.2450 -0.0024  0.2444
 8585TIP3   OH247169   2.872   5.474  12.800 -0.0423  0.0625 -0.0184
 8585TIP3    H147170   2.961   5.449  12.825 -0.1280 -0.1265  0.0997
 8585TIP3    H247171   2.884   5.537  12.730  0.2467  1.6255  1.3942
 8586TIP3   OH247172   2.796   0.600  12.826  0.0637 -0.3308 -0.0695
 8586TIP3    H147173   2.802   0.505  12.823  0.7041 -0.3382  0.9714
 8586TIP3    H247174   2.861   0.626  12.892  1.3825  0.9724 -1.8410
 8587TIP3   OH247175   1.725   1.233   5.699 -0.2412  0.2464  0.1054
 8587TIP3    H147176   1.633   1.209   5.684 -0.4968  2.1673 -1.6911
 8587TIP3    H247177   1.725   1.274   5.786 -1.0677  0.1914  0.1370
 8588TIP3   OH247178   2.512   2.968  12.986 -0.1484  0.6626  0.6331
 8588TIP3    H147179   2.462   2.895  12.951 -0.6661  1.5751 -0.5578
 8588TIP3    H247180   2.448   3.022  13.032 -0.3958  2.0892 -1.3085
 8589TIP3   OH247181   5.373   4.341  16.231  0.7008  0.3084 -0.1587
 8589TIP3    H147182   5.333   4.419  16.193  0.7443  1.5190  2.2067
 8589TIP3    H247183   5.440   4.315  16.167 -1.9287 -0.1700 -2.8564
 8590TIP3   OH247184   5.868   0.193   2.504 -0.2492  0.5389 -0.1239
 8590TIP3    H147185   5.917   0.255   2.558  0.2989 -0.2952  0.3486
 8590TIP3    H247186   5.858   0.238   2.419 -0.9548  1.7776  0.5912
 8591TIP3   OH247187   2.005   1.561   0.714 -0.3669  0.0474  0.2269
 8591TIP3    H147188   1.981   1.479   0.671  0.7389 -0.5478  0.7174
 8591TIP3    H247189   1.980   1.548   0.805  0.5150 -0.0454  0.4599
 8592TIP3   OH247190   1.429   2.226  14.984  0.1965  0.0680  0.3071
 8592TIP3    H147191   1.470   2.240  15.070 -1.0040  0.7428  0.7840
 8592TIP3    H247192   1.375   2.304  14.971  1.8153  0.8549 -1.9282
 8593TIP3   OH247193   5.673   1.704  15.812  0.1712  0.0623  0.1037
 8593TIP3    H147194   5.587   1.701  15.853  0.0022  1.8321 -0.1084
 8593TIP3    H247195   5.672   1.783  15.759  2.4875  0.9487  1.3336
 8594TIP3   OH247196   6.323   2.158   4.111  0.1171 -0.6069  0.3268
 8594TIP3    H147197   6.381   2.087   4.140 -0.0348 -1.0691 -0.4983
 8594TIP3    H247198   6.248   2.113   4.071 -1.5489 -0.0480  2.7248
 8595TIP3   OH247199   0.012   3.239   5.691 -0.7329  0.0287  0.1016
 8595TIP3    H147200  -0.007   3.329   5.717  0.5418  0.5324 -0.6491
 8595TIP3    H247201  -0.067   3.209   5.648 -1.4433  0.5303  1.0356
 8596TIP3   OH247202   4.784   2.107  16.672  0.3044  0.0814 -0.2763
 8596TIP3    H147203   4.732   2.176  16.632 -1.2863 -0.3742  0.9270
 8596TIP3    H247204   4.799   2.137  16.762  0.0016 -0.8940  0.1172
 8597TIP3   OH247205   0.082   1.959  11.160  0.2336  0.1324  0.4048
 8597TIP3    H147206   0.016   1.985  11.095  0.8715 -1.1238 -0.7642
 8597TIP3    H247207   0.163   1.952  11.111  0.7702 -0.6286  1.3718
 8598TIP3   OH247208   3.404   2.495  10.762 -0.0597 -0.1049  0.0337
 8598TIP3    H147209   3.382   2.430  10.828 -1.8504 -0.0274 -0.4500
 8598TIP3    H247210   3.465   2.450  10.703  0.9760 -0.3982  1.3240
 8599TIP3   OH247211   4.375   2.614   1.619 -0.2492  0.2416  0.6090
 8599TIP3    H147212   4.346   2.705   1.621 -0.0169  0.3289  0.1461
 8599TIP3    H247213   4.294   2.563   1.620 -0.3562  0.3937  3.0349
 8600TIP3   OH247214   3.791   4.646  11.049 -0.1576  0.0994  0.0426
 8600TIP3    H147215   3.883   4.630  11.070 -0.3444 -1.8067 -0.5177
 8600TIP3    H247216   3.791   4.733  11.009  1.3648  0.2179  0.2639
 8601TIP3   OH247217   2.483   2.486  10.638 -0.4349  0.2944  0.1505
 8601TIP3    H147218   2.412   2.534  10.597  0.8742  2.2561  0.1346
 8601TIP3    H247219   2.529   2.550  10.692  1.2833 -0.9334  0.2202
 8602TIP3   OH247220   4.311   1.696  10.604  0.0240  0.0911 -0.1008
 8602TIP3    H147221   4.231   1.670  10.649  0.1410  1.6768  1.0830
 8602TIP3    H247222   4.379   1.692  10.671  0.4269  1.2980 -0.4214
 8603TIP3   OH247223   3.981   3.619  13.904  0.4633 -0.5764 -0.1934
 8603TIP3    H147224   4.032   3.563  13.846 -0.9437  1.4737 -3.5386
 8603TIP3    H247225   3.908   3.650  13.851 -0.3746  2.1599  2.3796
 8604TIP3   OH247226   0.388   4.797   0.449 -0.0936 -0.4563  0.1020
 8604TIP3    H147227   0.472   4.842   0.441 -0.1162 -0.5799 -0.8431
 8604TIP3    H247228   0.332   4.859   0.495  1.1145 -1.1820  2.7217
 8605TIP3   OH247229   3.137   0.685   1.687 -0.0713  0.1280 -0.1157
 8605TIP3    H147230   3.198   0.630   1.737  1.3643 -0.5093 -2.4644
 8605TIP3    H247231   3.176   0.772   1.689  1.4498 -0.4379 -2.2924
 8606TIP3   OH247232   2.458   4.047  14.258  0.0625  0.1351  0.5358
 8606TIP3    H147233   2.538   3.996  14.260 -0.0336 -0.0024  1.4695
 8606TIP3    H247234   2.455   4.087  14.171  0.4071 -1.0221 -0.0051
 8607TIP3   OH247235   5.831   2.740   5.394 -0.1278 -0.9187 -0.4213
 8607TIP3    H147236   5.815   2.748   5.300 -0.4944 -0.5109 -0.3218
 8607TIP3    H247237   5.754   2.779   5.436  1.3352  1.6187  0.0448
 8608TIP3   OH247238   4.349   2.794  17.192  0.4370 -0.1522  0.4901
 8608TIP3    H147239   4.425   2.751  17.151  0.0178 -0.2451 -0.1859
 8608TIP3    H247240   4.380   2.817  17.280  0.7217 -1.7044  0.8213
 8609TIP3   OH247241   5.888   3.445   1.764 -0.0657 -0.5505  0.7479
 8609TIP3    H147242   5.840   3.405   1.692 -0.0198 -0.4195  0.6437
 8609TIP3    H247243   5.828   3.513   1.798  0.1440 -0.2180  0.4566
 8610TIP3   OH247244   1.770   5.084  16.728  0.5506 -0.1880 -0.0375
 8610TIP3    H147245   1.771   5.135  16.647  0.0047 -1.5096 -0.8894
 8610TIP3    H247246   1.847   5.028  16.723  1.8870  1.4225  1.5005
 8611TIP3   OH247247   4.874   4.937  16.181  0.2281 -0.0591  0.4314
 8611TIP3    H147248   4.842   5.014  16.133  3.4661  1.7991  1.1096
 8611TIP3    H247249   4.830   4.942  16.266  1.2292  1.7261  0.8833
 8612TIP3   OH247250   3.606   5.811  14.012  0.2208  0.0022  0.6455
 8612TIP3    H147251   3.648   5.813  14.098 -1.0898  1.4693  1.2713
 8612TIP3    H247252   3.522   5.856  14.024  0.4559  1.1571 -1.6373
 8613TIP3   OH247253   1.143   0.978   3.768  0.6589 -0.1664 -0.1329
 8613TIP3    H147254   1.124   0.896   3.813 -4.3371 -0.0258 -1.6441
 8613TIP3    H247255   1.195   0.953   3.692 -1.1940 -2.0672 -0.8217
 8614TIP3   OH247256   2.705   1.507  13.581 -0.2545 -1.0760  0.3287
 8614TIP3    H147257   2.788   1.526  13.538 -0.4785 -1.0436 -0.0904
 8614TIP3    H247258   2.726   1.439  13.645  0.3293 -0.2092  1.0677
 8615TIP3   OH247259   5.044   2.223  11.567  0.0315  0.3161  0.1310
 8615TIP3    H147260   5.030   2.312  11.599  0.1446  0.6976 -0.8703
 8615TIP3    H247261   4.957   2.184  11.565 -0.1201  0.6820 -0.2569
 8616TIP3   OH247262   1.935   0.333  16.768  0.4896 -0.3391 -0.4113
 8616TIP3    H147263   2.014   0.386  16.760 -0.0196  0.6337  0.8315
 8616TIP3    H247264   1.966   0.243  16.762  1.3713  0.0748 -2.4279
 8617TIP3   OH247265   3.547   1.241  14.148  0.1022  0.0349  0.3038
 8617TIP3    H147266   3.504   1.281  14.072 -0.2636  0.3714  0.6917
 8617TIP3    H247267   3.638   1.230  14.121 -0.2720 -0.8992 -0.6126
 8618TIP3   OH247268   3.605   0.976  13.618 -0.1291  0.0496  0.3312
 8618TIP3    H147269   3.552   1.034  13.563 -0.9502  0.2236  1.2940
 8618TIP3    H247270   3.624   1.028  13.696  2.8156  0.5521 -0.6904
 8619TIP3   OH247271   1.428   1.276  14.987  0.6718  0.0729  0.5635
 8619TIP3    H147272   1.405   1.351  14.932  0.3737 -1.0083 -0.8268
 8619TIP3    H247273   1.523   1.271  14.982  0.8150  1.3029  1.9427
 8620TIP3   OH247274   0.754   4.472  12.910  0.6232 -0.0585 -0.0713
 8620TIP3    H147275   0.843   4.485  12.878  0.4154  1.6652 -0.0209
 8620TIP3    H247276   0.699   4.517  12.846 -0.0381  0.6696  0.9951
 8621TIP3   OH247277   1.539   5.070  17.141  0.0373  0.1928  0.0458
 8621TIP3    H147278   1.617   5.092  17.191 -0.1644 -2.7997  1.7993
 8621TIP3    H247279   1.572   5.035  17.058  0.4751  1.5308 -0.3487
 8622TIP3   OH247280   3.550   5.425  14.500  0.3932  0.1954  0.3136
 8622TIP3    H147281   3.509   5.360  14.557  1.6285 -0.6055  0.3027
 8622TIP3    H247282   3.539   5.508  14.547 -3.8036  0.5213 -1.0354
 8623TIP3   OH247283   5.493   3.532  11.764  0.2593  0.1191  0.1806
 8623TIP3    H147284   5.575   3.542  11.715  0.4543 -2.8491 -0.2431
 8623TIP3    H247285   5.424   3.538  11.698  0.3561 -0.8074 -0.0179
 8624TIP3   OH247286   1.457   4.997  14.825  0.6360 -0.0572  0.0936
 8624TIP3    H147287   1.424   4.926  14.879  1.8758 -1.2185 -0.6492
 8624TIP3    H247288   1.385   5.019  14.766  0.2143 -0.5969  0.4097
 8625TIP3   OH247289   0.174   3.066  14.757  0.6299  0.6135  0.0239
 8625TIP3    H147290   0.216   3.133  14.703  2.8790 -1.0173 -0.3225
 8625TIP3    H247291   0.196   3.091  14.847  2.1313 -0.0791 -0.1426
 8626TIP3   OH247292   2.662   6.638  12.627 -0.2205  0.3041  0.3329
 8626TIP3    H147293   2.677   6.595  12.712 -0.1669 -2.8979 -1.2481
 8626TIP3    H247294   2.746   6.630  12.582 -1.0132 -0.3670 -1.0359
 8627TIP3   OH247295   0.409   5.094   6.736  0.7325  0.2417  0.4089
 8627TIP3    H147296   0.468   5.026   6.704 -0.3842 -0.3454 -0.4511
 8627TIP3    H247297   0.328   5.047   6.756 -0.7665  1.6033 -2.1792
 8628TIP3   OH247298   2.295   6.062   4.145  0.1880  0.0506  0.0603
 8628TIP3    H147299   2.234   6.114   4.094 -1.7490 -0.9849  1.2378
 8628TIP3    H247300   2.286   6.096   4.234  0.1482 -1.1578  0.5261
 8629TIP3   OH247301   6.096   4.143   3.941  0.2081 -0.0591 -0.1042
 8629TIP3    H147302   6.059   4.155   3.853 -1.3063  0.5718  0.5848
 8629TIP3    H247303   6.029   4.093   3.988  1.2099 -0.7888  0.5685
 8630TIP3   OH247304   2.850   5.037  15.302 -0.1829 -0.0363  0.2341
 8630TIP3    H147305   2.927   5.056  15.249 -0.1005 -1.7645 -0.3151
 8630TIP3    H247306   2.790   4.993  15.241 -0.0428 -2.1383  1.5766
 8631TIP3   OH247307   5.095   2.986   5.082 -0.3711 -0.5402  0.2527
 8631TIP3    H147308   5.174   3.039   5.076  0.1892 -1.5074 -0.9603
 8631TIP3    H247309   5.023   3.049   5.074  0.2475 -0.2846 -4.8861
 8632TIP3   OH247310   0.761   1.958  12.142  0.4460 -0.5557 -1.0729
 8632TIP3    H147311   0.780   1.976  12.049 -1.2932  0.4892 -1.2316
 8632TIP3    H247312   0.727   1.868  12.142  0.1957 -0.4646 -1.4882
 8633TIP3   OH247313   5.188   1.119   0.308  0.2504  0.8268  0.6726
 8633TIP3    H147314   5.140   1.147   0.230  1.8596 -1.7759 -1.3260
 8633TIP3    H247315   5.124   1.070   0.359  0.0154 -0.2247 -0.6021
 8634TIP3   OH247316   2.923   4.975  12.522 -0.4995 -0.1507  0.4780
 8634TIP3    H147317   2.944   4.989  12.429  2.1834 -0.7805  0.9441
 8634TIP3    H247318   2.883   5.057  12.550 -0.1625  0.5193 -0.9204
 8635TIP3   OH247319   0.461   4.968   2.066  0.4446 -0.3105  0.0552
 8635TIP3    H147320   0.469   5.015   2.149  1.4240 -0.6753  0.1681
 8635TIP3    H247321   0.393   5.015   2.018 -0.0614 -0.0425  1.0306
 8636TIP3   OH247322   4.223   6.361   0.478  0.2847 -0.6105  0.9174
 8636TIP3    H147323   4.226   6.374   0.384 -0.0565  1.0666  1.1194
 8636TIP3    H247324   4.266   6.277   0.492 -0.3456 -1.2412 -0.7910
 8637TIP3   OH247325   0.498   3.121  12.772 -0.1915  0.6240  0.2619
 8637TIP3    H147326   0.455   3.203  12.747  2.1434  1.8278 -0.0211
 8637TIP3    H247327   0.486   3.115  12.867  0.8112  2.0413  0.4933
 8638TIP3   OH247328   6.426   5.495  17.044 -0.5770 -0.1614 -0.1112
 8638TIP3    H147329   6.464   5.582  17.049 -0.7445 -0.0024 -1.3517
 8638TIP3    H247330   6.399   5.475  17.134 -0.1794  0.8924  0.2508
 8639TIP3   OH247331   0.296   5.461  13.186 -0.4065 -0.6597 -0.4413
 8639TIP3    H147332   0.375   5.486  13.235  0.8077 -1.3814 -1.9747
 8639TIP3    H247333   0.316   5.374  13.151 -1.8187 -0.7691 -1.0010
 8640TIP3   OH247334   1.840   2.225  15.308 -0.3958 -0.0158 -0.4361
 8640TIP3    H147335   1.833   2.320  15.313  0.2518  0.0455 -0.6658
 8640TIP3    H247336   1.922   2.209  15.261 -0.3777 -0.6920 -0.1823
 8641TIP3   OH247337   2.092   5.161  11.977  0.0943 -0.5235  0.7335
 8641TIP3    H147338   2.028   5.090  11.987  0.9862 -1.4062  0.3345
 8641TIP3    H247339   2.176   5.115  11.965  0.0821  0.4873 -4.2924
 8642TIP3   OH247340   5.733   2.741   2.060  0.1926  0.2721  0.3932
 8642TIP3    H147341   5.752   2.835   2.059  1.0336  0.1175 -1.2573
 8642TIP3    H247342   5.817   2.700   2.081  0.6363 -0.2311 -2.2286
 8643TIP3   OH247343   3.363   4.950  13.698  0.1290  0.6112 -0.2907
 8643TIP3    H147344   3.279   4.960  13.743 -0.3867  1.9048 -1.4940
 8643TIP3    H247345   3.422   5.008  13.746  0.5281 -0.8335  0.9905
 8644TIP3   OH247346   3.604   6.316   1.058  0.1367  0.5008 -0.7856
 8644TIP3    H147347   3.656   6.396   1.063 -1.4126  1.5249 -0.6912
 8644TIP3    H247348   3.516   6.346   1.037 -1.4781 -0.7717  3.5799
 8645TIP3   OH247349   1.728   1.569   0.321 -0.4305  0.0893 -0.2566
 8645TIP3    H147350   1.741   1.492   0.267  0.4077  0.6154 -0.8140
 8645TIP3    H247351   1.758   1.642   0.267 -1.8815  0.8864 -0.0151
 8646TIP3   OH247352   2.764   3.193   1.571  0.4406  0.5007  0.4085
 8646TIP3    H147353   2.844   3.238   1.541 -1.1362  3.0542 -0.1387
 8646TIP3    H247354   2.693   3.242   1.530 -1.4738 -0.8561  2.0534
 8647TIP3   OH247355   2.397   5.942  16.423  0.1175  0.0609 -0.2718
 8647TIP3    H147356   2.415   5.914  16.512 -0.3887  2.2870  0.5701
 8647TIP3    H247357   2.468   5.904  16.371  1.1028 -0.2442  1.2737
 8648TIP3   OH247358   5.790   2.116   3.931  0.2295  0.1784 -0.0013
 8648TIP3    H147359   5.777   2.021   3.930  0.5054  0.1084  1.6099
 8648TIP3    H247360   5.882   2.126   3.956  0.4004  0.8659 -0.8885
 8649TIP3   OH247361   2.930   0.701  13.044 -0.0663  0.1994  0.2992
 8649TIP3    H147362   2.946   0.652  13.125  1.1961 -0.0175 -0.0663
 8649TIP3    H247363   3.016   0.737  13.021 -0.5280  0.6965 -0.6600
 8650TIP3   OH247364   4.490   0.101   5.118 -0.5761 -0.0412  0.2375
 8650TIP3    H147365   4.486   0.084   5.024  0.9897  0.2692  0.1072
 8650TIP3    H247366   4.428   0.038   5.156 -0.7741 -0.5737 -0.9435
 8651TIP3   OH247367   6.217   3.453  15.433 -0.3716 -0.4366 -0.6361
 8651TIP3    H147368   6.147   3.391  15.454  0.5572 -1.7830 -1.3954
 8651TIP3    H247369   6.175   3.539  15.434 -1.7708 -1.1154  0.0620
 8652TIP3   OH247370   1.599   4.516   2.942 -0.0334 -0.5369  0.3164
 8652TIP3    H147371   1.532   4.448   2.942  0.3135 -0.8767  0.0674
 8652TIP3    H247372   1.643   4.507   2.857  0.3042 -0.2889  0.4626
 8653TIP3   OH247373   2.071   0.177   1.187  0.4577 -0.1325  0.0144
 8653TIP3    H147374   2.063   0.217   1.274 -0.1531 -3.1557  1.4436
 8653TIP3    H247375   2.162   0.147   1.183  0.4103 -0.2340 -0.2742
 8654TIP3   OH247376   5.127   2.084  12.554 -0.2562 -0.0928  0.3697
 8654TIP3    H147377   5.204   2.141  12.556 -0.2713 -0.0669  0.2225
 8654TIP3    H247378   5.098   2.081  12.645 -0.4437  0.3981  0.3316
 8655TIP3   OH247379   3.604   5.949   4.615 -0.4617  0.1045 -0.2557
 8655TIP3    H147380   3.624   6.039   4.641  1.3365 -0.2919 -0.1438
 8655TIP3    H247381   3.546   5.916   4.683 -1.2915  1.2471 -0.4046
 8656TIP3   OH247382   1.267   5.051  12.583 -0.2243  0.0958  0.0441
 8656TIP3    H147383   1.226   5.107  12.516 -1.1362 -1.6397 -0.8774
 8656TIP3    H247384   1.196   5.032  12.645  0.0356 -0.2087  0.2452
 8657TIP3   OH247385   4.848   0.059   5.957 -0.4163  0.8063 -0.0811
 8657TIP3    H147386   4.756   0.084   5.959 -0.2241  1.4105  1.2369
 8657TIP3    H247387   4.849  -0.031   5.991 -0.4045  1.1620  0.8686
 8658TIP3   OH247388   5.197   1.846   3.309 -0.6206 -0.5556 -0.2268
 8658TIP3    H147389   5.221   1.769   3.256 -0.0770 -1.3543  1.1612
 8658TIP3    H247390   5.274   1.903   3.304 -0.2779 -0.9647  0.2949
 8659TIP3   OH247391   5.146   3.981   5.511 -0.5280  0.3012  0.4236
 8659TIP3    H147392   5.143   4.052   5.575 -0.8215  1.2446 -0.6220
 8659TIP3    H247393   5.224   3.998   5.458  0.7852 -1.5297  1.6969
 8660TIP3   OH247394   2.371   3.025  15.491  0.2151 -0.3724  0.8812
 8660TIP3    H147395   2.326   3.087  15.434 -0.5304 -0.6537  1.1500
 8660TIP3    H247396   2.455   3.009  15.448 -0.3698 -0.6442 -0.1810
 8661TIP3   OH247397   5.509   2.002  14.157 -0.0402 -0.0153 -0.3592
 8661TIP3    H147398   5.600   1.982  14.133  0.1414 -0.1346  0.4271
 8661TIP3    H247399   5.506   2.098  14.162  0.0205 -0.0073 -0.4687
 8662TIP3   OH247400   0.506   5.422  14.136 -0.4726 -0.9975  0.0667
 8662TIP3    H147401   0.552   5.480  14.196 -0.1765 -0.4133 -0.7150
 8662TIP3    H247402   0.562   5.419  14.058 -2.2022  0.5084 -1.3028
 8663TIP3   OH247403   3.956   3.521  17.235 -0.2175  0.6438 -0.9747
 8663TIP3    H147404   3.935   3.528  17.328  1.3797  1.3545 -0.6537
 8663TIP3    H247405   3.921   3.436  17.209 -2.2909  1.2185 -0.1678
 8664TIP3   OH247406   0.050   6.215   1.731  0.1622 -0.1940  0.2865
 8664TIP3    H147407   0.103   6.293   1.745 -0.2056 -0.0264  0.7528
 8664TIP3    H247408  -0.036   6.237   1.767  0.0889 -0.8481  0.5325
 8665TIP3   OH247409   6.188   6.614   2.666  0.2493 -0.0378  0.2507
 8665TIP3    H147410   6.140   6.538   2.633 -0.6887 -0.1019  1.7125
 8665TIP3    H247411   6.211   6.591   2.756 -0.3562  1.5270  0.8355
 8666TIP3   OH247412   5.858   4.198  16.075  0.1047  0.1088 -0.1457
 8666TIP3    H147413   5.890   4.288  16.081  0.5190 -0.1714  2.6779
 8666TIP3    H247414   5.866   4.175  15.983  1.7597  2.3329 -0.5876
 8667TIP3   OH247415   3.836   1.903  11.098  0.2586  0.1538  0.7719
 8667TIP3    H147416   3.743   1.893  11.077  0.2289  0.5713  0.7097
 8667TIP3    H247417   3.852   1.836  11.164 -0.6350  1.5675  2.4589
 8668TIP3   OH247418   6.178   1.445   0.394 -0.4322  0.1178 -0.4575
 8668TIP3    H147419   6.135   1.530   0.403  0.2330  0.5536 -1.2380
 8668TIP3    H247420   6.195   1.417   0.483 -1.6612  0.2811 -0.1620
 8669TIP3   OH247421   2.051   0.530  12.285  0.0952  0.0911 -0.4603
 8669TIP3    H147422   1.985   0.599  12.272 -0.9492 -0.9496 -0.7898
 8669TIP3    H247423   2.095   0.523  12.200 -1.4943 -1.3614 -1.1864
 8670TIP3   OH247424   4.991   3.871  15.703 -0.1060  0.0367  0.5039
 8670TIP3    H147425   5.006   3.917  15.621 -1.3417 -1.2124 -0.4479
 8670TIP3    H247426   4.975   3.780  15.677 -0.0516 -0.4770  2.1659
 8671TIP3   OH247427   3.822   3.413   4.821  0.2698 -0.2859  0.1081
 8671TIP3    H147428   3.800   3.339   4.765  4.2517 -0.6841 -1.0673
 8671TIP3    H247429   3.910   3.395   4.852 -0.5980  1.5434  3.9422
 8672TIP3   OH247430   5.590   1.839  16.945 -0.1277 -0.3000  0.1082
 8672TIP3    H147431   5.513   1.894  16.933  0.7081  0.6266 -1.0642
 8672TIP3    H247432   5.603   1.797  16.859  2.2072  1.5580 -0.4819
 8673TIP3   OH247433   2.881   1.949   3.589 -0.2235 -0.2287 -0.6379
 8673TIP3    H147434   2.937   1.877   3.620  0.3494  0.6168  0.3274
 8673TIP3    H247435   2.923   1.977   3.508  1.5099  1.2231  0.7175
 8674TIP3   OH247436   4.864   3.987   4.748  0.0740 -0.0163  0.1102
 8674TIP3    H147437   4.803   3.913   4.745  0.8217 -0.5856 -1.2550
 8674TIP3    H247438   4.819   4.057   4.702  0.6703 -0.6242 -1.4416
 8675TIP3   OH247439   2.826   5.875   5.603  0.4990 -0.3535 -0.2022
 8675TIP3    H147440   2.803   5.968   5.612 -1.2436 -0.6673 -1.1319
 8675TIP3    H247441   2.827   5.842   5.693  1.1260  0.5588  0.1352
 8676TIP3   OH247442   6.325   1.906  14.523 -0.6141 -0.0189  0.1365
 8676TIP3    H147443   6.275   1.972  14.474 -1.9146 -1.4186 -0.4634
 8676TIP3    H247444   6.339   1.946  14.609 -2.7414  0.4601  0.3063
 8677TIP3   OH247445   4.978   6.523   4.902 -0.1620 -0.2799 -0.0008
 8677TIP3    H147446   4.906   6.579   4.930  0.4463 -0.1472  1.3962
 8677TIP3    H247447   5.040   6.582   4.861  0.2232  0.0055  0.9649
 8678TIP3   OH247448   4.786   3.988   3.674 -0.0383  0.2774  0.4646
 8678TIP3    H147449   4.820   4.034   3.597 -0.0847 -0.1287  0.2010
 8678TIP3    H247450   4.696   3.967   3.651  0.2701 -0.7792  0.2085
 8679TIP3   OH247451   3.996   0.561  10.682 -0.0533 -0.5970 -0.4796
 8679TIP3    H147452   3.960   0.500  10.617  1.6541 -0.7619 -1.3012
 8679TIP3    H247453   3.962   0.529  10.765 -0.9612 -1.3559 -1.1154
 8680TIP3   OH247454   4.466   1.208   4.662  0.4880  0.1652 -0.6940
 8680TIP3    H147455   4.440   1.122   4.697 -0.9167  0.2598 -1.4555
 8680TIP3    H247456   4.558   1.197   4.637  0.3475 -1.0935 -0.7043
 8681TIP3   OH247457   2.924   0.303   0.408  0.2706 -0.1094 -0.3964
 8681TIP3    H147458   2.930   0.379   0.349 -0.1215  0.5099  0.3629
 8681TIP3    H247459   2.851   0.252   0.372  1.7591 -1.1247 -2.0514
 8682TIP3   OH247460   6.063   4.812   0.868  0.3088 -0.1090  0.1510
 8682TIP3    H147461   6.069   4.869   0.791  1.0325  0.3127  0.5138
 8682TIP3    H247462   5.992   4.751   0.847  0.3252  0.1690 -0.7376
 8683TIP3   OH247463   5.043   3.715  11.640  0.3280 -0.0562 -0.2453
 8683TIP3    H147464   4.971   3.654  11.651  0.0798  0.2717 -0.0554
 8683TIP3    H247465   5.057   3.753  11.727  0.3647  0.2902 -0.4013
 8684TIP3   OH247466   0.212   3.961   4.559 -0.1602  0.0839 -0.6960
 8684TIP3    H147467   0.118   3.966   4.542 -0.3373 -0.3085  0.1328
 8684TIP3    H247468   0.241   4.053   4.559 -0.0044  0.0945 -3.7630
 8685TIP3   OH247469   5.494   5.546   3.855 -0.5127  0.0135 -0.2300
 8685TIP3    H147470   5.560   5.608   3.883 -0.5570  0.6448 -1.4761
 8685TIP3    H247471   5.501   5.544   3.759 -0.5590 -1.8388 -0.2281
 8686TIP3   OH247472   6.464   3.679  17.089 -0.2080  0.4591  0.2396
 8686TIP3    H147473   6.422   3.764  17.076 -1.7822 -0.1535  1.1430
 8686TIP3    H247474   6.400   3.628  17.139  2.2483 -0.0134  3.0396
 8687TIP3   OH247475   1.754   0.779  10.723  0.3013 -0.1972  0.1869
 8687TIP3    H147476   1.719   0.842  10.661  1.3662 -0.1125 -0.3265
 8687TIP3    H247477   1.782   0.705  10.670  1.0717 -0.1898  0.5785
 8688TIP3   OH247478   2.063   4.243  11.265  0.8114 -0.1039 -0.5282
 8688TIP3    H147479   2.042   4.294  11.344 -0.2367  0.0977 -0.9262
 8688TIP3    H247480   1.984   4.249  11.212  0.8911 -1.6712 -0.8326
 8689TIP3   OH247481   2.987   3.583  15.631  0.4074  0.5069  0.0869
 8689TIP3    H147482   3.000   3.549  15.720  0.7754 -2.6192 -1.0812
 8689TIP3    H247483   3.069   3.627  15.610  1.6978 -1.8059  0.0610
 8690TIP3   OH247484   2.265   2.981  13.914  0.1004  0.2749  0.2082
 8690TIP3    H147485   2.318   3.008  13.990 -0.1230 -2.8074  1.5413
 8690TIP3    H247486   2.184   2.948  13.953 -1.1055  1.0998 -1.5674
 8691TIP3   OH247487   0.874   5.705  14.346 -0.7018 -0.0956  0.2432
 8691TIP3    H147488   0.915   5.724  14.262 -0.5713 -1.4995 -0.0312
 8691TIP3    H247489   0.780   5.714  14.330 -0.6916 -0.6309 -0.1283
 8692TIP3   OH247490   2.723   0.328   4.663  0.8266 -0.4627  0.3683
 8692TIP3    H147491   2.692   0.350   4.751  0.7840  0.6017  0.0994
 8692TIP3    H247492   2.815   0.302   4.676  0.3733 -1.8051  0.9186
 8693TIP3   OH247493   0.831   0.535   0.248 -0.2399 -0.2948  0.1537
 8693TIP3    H147494   0.812   0.442   0.238 -1.0298 -0.3060  1.5633
 8693TIP3    H247495   0.853   0.545   0.341  0.9071  0.7432 -0.2045
 8694TIP3   OH247496   2.325   0.617   2.728  0.1855 -0.0375  0.0460
 8694TIP3    H147497   2.243   0.570   2.740  1.2354 -1.8611  0.2145
 8694TIP3    H247498   2.328   0.678   2.801 -1.1587  0.2669 -0.1329
 8695TIP3   OH247499   5.096   3.651   0.238  0.4024 -0.1007 -0.0435
 8695TIP3    H147500   5.154   3.580   0.266 -0.5156 -0.3880  1.1247
 8695TIP3    H247501   5.046   3.674   0.316 -2.8170 -1.5147 -1.6292
 8696TIP3   OH247502   4.801   1.108  14.791  0.4487  0.1175  0.2844
 8696TIP3    H147503   4.716   1.077  14.823  0.3260  0.6612  0.4937
 8696TIP3    H247504   4.786   1.128  14.699  0.2080  0.6829  0.4374
 8697TIP3   OH247505   0.416   1.659  16.252 -0.3894  0.0688  0.0218
 8697TIP3    H147506   0.390   1.597  16.185 -0.5761  0.7877 -0.5823
 8697TIP3    H247507   0.485   1.615  16.301  0.7425  0.0757 -1.5293
 8698TIP3   OH247508   0.535   2.795  14.389  0.1744  0.3487  0.1897
 8698TIP3    H147509   0.476   2.728  14.353 -0.7519  1.5664 -0.6199
 8698TIP3    H247510   0.622   2.768  14.359 -0.0540 -1.0560  0.7505
 8699TIP3   OH247511   3.881   2.351  12.182 -0.5283 -0.0571  0.0372
 8699TIP3    H147512   3.947   2.361  12.114 -0.5296 -0.3516 -0.0075
 8699TIP3    H247513   3.853   2.441  12.202 -0.7031  0.0145 -0.5174
 8700TIP3   OH247514   4.021   2.248   5.773  0.3252  0.1625 -0.3922
 8700TIP3    H147515   4.052   2.196   5.847 -1.3108  1.2505  1.1037
 8700TIP3    H247516   3.935   2.279   5.800  0.3536  1.8649 -2.1247
 8701TIP3   OH247517   1.937   1.502   5.475  0.3841  0.3073 -0.0945
 8701TIP3    H147518   1.963   1.556   5.401  0.5190 -2.4993 -2.1767
 8701TIP3    H247519   1.889   1.429   5.436  1.2436 -1.7232  2.4865
 8702TIP3   OH247520   5.805   3.850   2.593 -0.1922 -0.3990 -0.6043
 8702TIP3    H147521   5.759   3.776   2.633  0.3644 -0.0454  0.7131
 8702TIP3    H247522   5.778   3.926   2.644  0.8159  0.0072 -0.6689
 8703TIP3   OH247523   4.833   1.122   0.321 -0.0589 -0.0393 -0.3711
 8703TIP3    H147524   4.841   1.216   0.337 -2.2466  0.3091 -1.1729
 8703TIP3    H247525   4.824   1.115   0.226 -2.4521 -0.8296 -0.1252
 8704TIP3   OH247526   0.895   3.773   2.773  0.3066 -0.5849  0.1169
 8704TIP3    H147527   0.895   3.705   2.842  0.2009  0.4982  1.2000
 8704TIP3    H247528   0.848   3.846   2.812 -0.4868 -0.2539 -1.4325
 8705TIP3   OH247529   4.341   2.989  13.949 -0.3667  0.0615  0.0502
 8705TIP3    H147530   4.360   2.969  13.857 -1.2724  0.5315 -0.2409
 8705TIP3    H247531   4.283   2.918  13.977 -0.0512 -0.1093  0.2786
 8706TIP3   OH247532   1.160   1.958  12.917 -0.1899 -0.1692  0.5193
 8706TIP3    H147533   1.088   1.957  12.853  0.8688 -0.1946 -0.6777
 8706TIP3    H247534   1.125   2.009  12.990 -1.1362  0.5544 -0.4165
 8707TIP3   OH247535   3.588   0.651  12.996  0.7841  1.1379  0.3283
 8707TIP3    H147536   3.592   0.715  12.924  0.9252 -0.7423 -1.3707
 8707TIP3    H247537   3.672   0.605  12.992  0.7727  0.9774  1.6863
 8708TIP3   OH247538   1.418   3.077  12.764  0.5400 -0.0591 -0.3925
 8708TIP3    H147539   1.462   3.156  12.736  1.4823 -1.2860 -2.5045
 8708TIP3    H247540   1.343   3.069  12.705  0.9278 -1.1592 -0.7618
 8709TIP3   OH247541   0.701   0.717  15.613  0.7425  0.0036 -0.0218
 8709TIP3    H147542   0.666   0.628  15.624  1.1904 -0.2849 -0.8686
 8709TIP3    H247543   0.629   0.766  15.573 -0.0872  0.4632  1.9766
 8710TIP3   OH247544   1.011   5.570  16.877 -0.6738 -0.1716 -0.4213
 8710TIP3    H147545   0.924   5.584  16.840  0.6315  3.2940 -2.4242
 8710TIP3    H247546   1.061   5.527  16.808  0.3782  1.7857 -0.9202
 8711TIP3   OH247547   4.542   0.024  14.380  0.2153 -0.1474 -0.2381
 8711TIP3    H147548   4.562  -0.067  14.358  1.7640 -0.0573  0.7400
 8711TIP3    H247549   4.605   0.046  14.449 -1.4537  1.0452  0.9251
 8712TIP3   OH247550   5.810   6.636  16.226  0.5270  0.3089  0.2391
 8712TIP3    H147551   5.777   6.669  16.143  2.2747  0.0056 -0.5919
 8712TIP3    H247552   5.905   6.628  16.214  0.6210 -1.2792  1.7100
 8713TIP3   OH247553   4.743   6.170   4.279 -0.0026  0.1520  0.6779
 8713TIP3    H147554   4.721   6.234   4.211 -1.5748 -0.7474  0.3370
 8713TIP3    H247555   4.827   6.201   4.313 -0.4622  2.1000  0.1455
 8714TIP3   OH247556   5.047   4.864  10.843  0.0556  0.0331  0.7510
 8714TIP3    H147557   5.025   4.928  10.776 -0.7497 -0.6664  0.3497
 8714TIP3    H247558   4.972   4.805  10.846  0.2917 -0.2081  1.9407
 8715TIP3   OH247559   1.538   4.455  13.174 -0.3536  0.1889 -0.1535
 8715TIP3    H147560   1.567   4.418  13.091 -0.8242 -0.9174  0.1740
 8715TIP3    H247561   1.473   4.393  13.207 -0.8263  1.0719  0.6141
 8716TIP3   OH247562   3.123   2.899   5.039  0.2476 -0.2845 -0.4222
 8716TIP3    H147563   3.091   2.865   4.956  1.1393 -1.2421 -0.3848
 8716TIP3    H247564   3.080   2.844   5.105  1.3040 -1.0281 -0.3437
 8717TIP3   OH247565   5.771   5.951  14.996  0.2069 -0.1875 -0.3322
 8717TIP3    H147566   5.782   5.868  15.042  1.7347  1.1737  1.8827
 8717TIP3    H247567   5.834   5.947  14.924  1.3365 -0.4035  0.6401
 8718TIP3   OH247568   0.493   2.995  10.857 -0.0424 -0.1659 -0.3211
 8718TIP3    H147569   0.530   3.075  10.820 -1.5369  0.7215  0.0701
 8718TIP3    H247570   0.569   2.946  10.890  0.9025  0.9265 -0.8444
 8719TIP3   OH247571   5.985   2.286  11.023  0.0201  0.2584  0.1462
 8719TIP3    H147572   5.974   2.329  11.108  0.1954  0.3488  0.1236
 8719TIP3    H247573   5.956   2.351  10.960  1.1476  0.6760  0.0557
 8720TIP3   OH247574   6.753   5.133   3.386  0.0655  0.8019 -0.1226
 8720TIP3    H147575   6.661   5.142   3.362  0.0946  0.7477 -0.2552
 8720TIP3    H247576   6.772   5.210   3.439 -0.4183  0.1126  1.0621
 8721TIP3   OH247577   5.378   1.839   5.698 -0.8454  0.1434 -0.0270
 8721TIP3    H147578   5.465   1.801   5.685 -0.3627  0.7353  1.4021
 8721TIP3    H247579   5.322   1.765   5.719 -0.5427 -0.1487 -0.2395
 8722TIP3   OH247580   3.958   6.484  11.520 -0.2780  0.0299 -0.5251
 8722TIP3    H147581   3.993   6.511  11.435 -0.5965 -2.8229 -1.6276
 8722TIP3    H247582   3.864   6.472  11.506 -0.3131 -0.6024  0.1613
 8723TIP3   OH247583   0.116   6.500   1.237 -0.1152 -0.1805  0.5571
 8723TIP3    H147584   0.050   6.440   1.270  1.0046 -2.9978 -2.0056
 8723TIP3    H247585   0.190   6.490   1.296 -0.6177  0.1271  1.2411
 8724TIP3   OH247586   0.224   2.070  12.958 -0.4235  0.8787 -0.6617
 8724TIP3    H147587   0.298   2.012  12.944 -1.0235  0.0221 -0.3281
 8724TIP3    H247588   0.237   2.105  13.046  0.5285  2.1355 -1.2807
 8725TIP3   OH247589   5.528   2.388   4.813  0.0489 -0.2935 -0.5401
 8725TIP3    H147590   5.460   2.445   4.776  0.3572 -0.3921 -1.2677
 8725TIP3    H247591   5.535   2.416   4.904 -0.1253  0.5261 -0.7727
 8726TIP3   OH247592   2.059   1.951   5.246 -0.0390 -0.3729  0.0481
 8726TIP3    H147593   2.153   1.946   5.260  0.1097 -0.9095 -1.0350
 8726TIP3    H247594   2.050   1.978   5.154 -0.9280 -1.2257 -0.1260
 8727TIP3   OH247595   0.801   1.500   3.509 -0.1793 -0.4307  0.0692
 8727TIP3    H147596   0.817   1.440   3.436 -0.5133  1.0147 -1.2211
 8727TIP3    H247597   0.872   1.482   3.570 -0.6457 -2.5972  0.0143
 8728TIP3   OH247598   4.760   1.200   2.695 -0.0636  0.7549 -0.3675
 8728TIP3    H147599   4.713   1.139   2.752  0.9821 -0.1685 -0.4819
 8728TIP3    H247600   4.728   1.181   2.607  1.5592 -0.8778 -0.6312
 8729TIP3   OH247601   0.442   1.842  12.856 -0.0890  0.4061  0.0285
 8729TIP3    H147602   0.481   1.775  12.801  1.2839  1.7238 -0.6593
 8729TIP3    H247603   0.507   1.913  12.856 -1.2181  1.4588  1.2406
 8730TIP3   OH247604   0.919   6.021   3.903 -0.5271 -0.0226 -0.4430
 8730TIP3    H147605   0.827   6.043   3.917 -0.4718  0.6101 -1.0266
 8730TIP3    H247606   0.938   6.053   3.814  0.6252  1.1506  0.1994
 8731TIP3   OH247607   3.548   3.043   1.225 -0.0320  0.0197 -0.1862
 8731TIP3    H147608   3.538   3.135   1.201  0.2274  0.0686 -0.1053
 8731TIP3    H247609   3.485   2.997   1.169 -2.0005  0.5019  1.5580
 8732TIP3   OH247610   5.966   6.515  14.302  0.8900 -0.3448  0.1888
 8732TIP3    H147611   5.939   6.489  14.214  1.1443  1.4489 -0.4490
 8732TIP3    H247612   6.060   6.497  14.305  0.8984 -0.3220  0.0581
 8733TIP3   OH247613   2.776   4.018  16.375  0.4212  0.4454 -0.0001
 8733TIP3    H147614   2.795   3.960  16.302 -0.5427  1.4714 -1.0986
 8733TIP3    H247615   2.760   3.960  16.449  1.0230 -0.6205 -0.6978
 8734TIP3   OH247616   6.283   3.165   1.677 -0.4589 -0.4805 -0.2841
 8734TIP3    H147617   6.278   3.260   1.678  1.4206 -0.3804  0.7108
 8734TIP3    H247618   6.211   3.136   1.733 -0.3107  0.3844  0.3542
 8735TIP3   OH247619   3.128   6.447   1.649  0.3609  0.0620 -0.4816
 8735TIP3    H147620   3.157   6.470   1.560  0.1506  0.0072 -0.5639
 8735TIP3    H247621   3.158   6.357   1.661 -1.0302 -0.4959 -1.1049
 8736TIP3   OH247622   3.106   0.892   4.757 -0.0541  0.3876  0.1425
 8736TIP3    H147623   3.019   0.914   4.725  0.3113 -0.7013 -1.6826
 8736TIP3    H247624   3.166   0.933   4.694  0.7651  0.9824  1.2809
 8737TIP3   OH247625   4.977   4.938  14.556 -0.2387 -0.0169 -0.0968
 8737TIP3    H147626   4.989   4.989  14.476  0.6230 -0.1708 -0.0651
 8737TIP3    H247627   4.911   4.986  14.605  0.5913  1.0849 -0.0561
 8738TIP3   OH247628   6.688   1.051  13.889  0.0847  0.2711  0.6155
 8738TIP3    H147629   6.763   1.026  13.835 -0.6615  1.1104 -0.8485
 8738TIP3    H247630   6.707   1.140  13.916 -0.8416  0.8655 -0.6266
 8739TIP3   OH247631   0.993   2.671  13.505 -0.2403 -0.5027  0.2388
 8739TIP3    H147632   1.016   2.603  13.569 -0.3511 -1.1746 -0.4196
 8739TIP3    H247633   0.898   2.676  13.508 -0.2477 -0.5571  0.1091
 8740TIP3   OH247634   5.766   3.861  17.129 -0.6448  0.1106  0.4613
 8740TIP3    H147635   5.676   3.888  17.149 -0.9615 -0.5998  0.0452
 8740TIP3    H247636   5.783   3.788  17.189  0.1976  1.2292  1.5880
 8741TIP3   OH247637   3.713   3.896  14.071  0.0380 -0.0207 -0.3950
 8741TIP3    H147638   3.643   3.831  14.078 -0.7264  0.7106 -1.0552
 8741TIP3    H247639   3.685   3.967  14.128  0.4498  0.0977 -0.3423
 8742TIP3   OH247640   0.541   0.102   0.206 -0.4514 -0.4578 -0.1614
 8742TIP3    H147641   0.560   0.195   0.208 -0.1944 -0.5455  2.3007
 8742TIP3    H247642   0.591   0.069   0.131 -0.5348  1.3461 -1.0472
 8743TIP3   OH247643   2.933   3.517  14.043 -0.2904 -0.3682 -0.3896
 8743TIP3    H147644   3.007   3.476  14.087 -1.5820 -1.5074  0.7962
 8743TIP3    H247645   2.970   3.554  13.963  1.4767 -1.2306 -0.0044
 8744TIP3   OH247646   5.872   5.859  11.709 -0.0668  0.3129  0.2989
 8744TIP3    H147647   5.941   5.812  11.663 -1.0257 -0.9849  0.1556
 8744TIP3    H247648   5.804   5.793  11.724 -0.7631  1.2776  1.5012
 8745TIP3   OH247649   4.486   4.648  17.080 -0.1503  0.1096 -0.1782
 8745TIP3    H147650   4.480   4.553  17.066 -1.2432  0.2571 -0.7902
 8745TIP3    H247651   4.403   4.670  17.124  0.4100  0.6774  0.6139
 8746TIP3   OH247652   6.114   5.602   2.900 -0.0197  0.6249 -0.1106
 8746TIP3    H147653   6.172   5.633   2.969 -0.9435  1.1367  0.4594
 8746TIP3    H247654   6.157   5.626   2.818  0.4165  1.2664  0.3072
 8747TIP3   OH247655   2.519   1.542   4.900 -0.0789  0.0609 -0.3019
 8747TIP3    H147656   2.552   1.517   4.814 -0.1536  0.3633 -0.4184
 8747TIP3    H247657   2.598   1.552   4.954 -0.0330 -0.1369 -0.3300
 8748TIP3   OH247658   2.734   1.558   0.485 -0.4013 -0.4495  0.1657
 8748TIP3    H147659   2.801   1.538   0.420  0.0627  0.9444  0.1958
 8748TIP3    H247660   2.655   1.513   0.453 -0.3767  0.8026 -1.7620
 8749TIP3   OH247661   2.467   4.445  15.057 -0.4457 -0.5713  0.5662
 8749TIP3    H147662   2.518   4.526  15.049 -0.3965 -0.6089  0.4963
 8749TIP3    H247663   2.506   4.386  14.991 -1.3503 -0.2028 -0.3058
 8750TIP3   OH247664   3.046   0.144  12.576  0.4680 -0.2166 -0.2649
 8750TIP3    H147665   2.958   0.170  12.550 -0.7649 -2.1650  1.8463
 8750TIP3    H247666   3.097   0.225  12.569 -1.3858  0.8655 -1.7955
 8751TIP3   OH247667   5.688   6.458  15.961  0.0035  0.3183 -0.3904
 8751TIP3    H147668   5.706   6.396  16.032 -1.7825 -0.4991 -0.6136
 8751TIP3    H247669   5.773   6.474  15.920  0.5876 -1.5112  0.0690
 8752TIP3   OH247670   6.053   5.214  14.905 -0.3320 -0.0221  0.6924
 8752TIP3    H147671   6.110   5.198  14.829  1.5273  2.4872  1.4660
 8752TIP3    H247672   6.033   5.127  14.939  1.8009 -1.0460 -0.5408
 8753TIP3   OH247673   4.996   6.418  14.471  0.0686  0.3828  0.2073
 8753TIP3    H147674   4.950   6.338  14.446  2.4923 -0.4926 -1.6568
 8753TIP3    H247675   4.946   6.488  14.428  0.5003 -0.5652 -1.9120
 8754TIP3   OH247676   1.745   4.984  12.456 -0.0138  0.1626 -0.0025
 8754TIP3    H147677   1.690   4.955  12.383 -0.9104 -1.5181  1.2924
 8754TIP3    H247678   1.683   5.016  12.521  0.6135 -0.5289  0.9457
 8755TIP3   OH247679   0.196   3.037  12.164  0.1196 -0.9418 -0.1598
 8755TIP3    H147680   0.100   3.035  12.168 -0.0531  2.0780 -0.9600
 8755TIP3    H247681   0.223   3.075  12.248  0.4134  0.6831 -0.9602
 8756TIP3   OH247682   6.267   6.670  15.251 -0.1329  0.4328  0.8936
 8756TIP3    H147683   6.281   6.745  15.310 -1.5255  1.2489  0.2186
 8756TIP3    H247684   6.322   6.690  15.175  1.1423 -0.2883  1.6166
 8757TIP3   OH247685   6.605   5.623   0.908 -0.5120 -0.2123  0.6731
 8757TIP3    H147686   6.580   5.666   0.990 -0.1158  1.1019  0.1220
 8757TIP3    H247687   6.614   5.531   0.931 -0.8903  0.0728  1.9988
 8758TIP3   OH247688   1.613   3.259   3.467  0.0658 -0.0931  0.1275
 8758TIP3    H147689   1.622   3.262   3.563 -0.9799  0.1865  0.2239
 8758TIP3    H247690   1.520   3.276   3.451 -0.0941 -1.7737 -0.8616
 8759TIP3   OH247691   2.494   3.280  17.081  0.5821  0.2607 -0.0148
 8759TIP3    H147692   2.551   3.208  17.054  0.6319  0.5032 -0.5568
 8759TIP3    H247693   2.513   3.291  17.174  2.2060  1.0372 -0.4186
 8760TIP3   OH247694   0.070   2.166  15.681 -0.1360  0.0283  0.1811
 8760TIP3    H147695   0.011   2.174  15.756 -1.0925 -0.0437 -0.5678
 8760TIP3    H247696   0.026   2.106  15.621  0.9297 -0.4269 -0.1512
 8761TIP3   OH247697   4.619   2.737  14.379 -0.2507  0.1218  0.0835
 8761TIP3    H147698   4.565   2.723  14.302  0.4468 -0.2824 -0.3360
 8761TIP3    H247699   4.695   2.681  14.366 -0.8817 -1.2147  1.8139
 8762TIP3   OH247700   6.292   1.869  16.514  0.4099 -0.1711  0.7576
 8762TIP3    H147701   6.385   1.852  16.528  0.7738  1.9498  1.1160
 8762TIP3    H247702   6.283   1.964  16.524 -1.6275 -0.2221 -0.2189
 8763TIP3   OH247703   0.922   5.924  12.400  0.1018 -0.7807  0.2082
 8763TIP3    H147704   0.944   5.912  12.492  1.2282 -0.3013  0.0174
 8763TIP3    H247705   0.872   6.005  12.397 -0.2447 -0.9862  0.4420
 8764TIP3   OH247706   6.603   4.921  16.463  0.7191 -0.9960  0.2141
 8764TIP3    H147707   6.595   4.835  16.504 -1.9949  0.6306  3.2891
 8764TIP3    H247708   6.513   4.946  16.442  1.5875  0.6243 -1.7112
 8765TIP3   OH247709   0.320   4.530   2.498  0.3999 -0.0830  0.0147
 8765TIP3    H147710   0.242   4.574   2.532  0.3305 -0.4964  0.3930
 8765TIP3    H247711   0.368   4.502   2.576 -0.4271 -2.2254 -0.2107
 8766TIP3   OH247712   2.138   1.700  12.436 -0.0428 -0.3240  0.2598
 8766TIP3    H147713   2.132   1.611  12.401 -1.8509  0.3277 -1.1950
 8766TIP3    H247714   2.137   1.688  12.531  0.1904 -1.8830  0.0822
 8767TIP3   OH247715   5.581   1.760   3.612 -0.1076  0.2502 -0.0642
 8767TIP3    H147716   5.503   1.814   3.600  0.1214  0.3223 -1.2665
 8767TIP3    H247717   5.571   1.690   3.547  0.4789 -0.1530  0.2774
 8768TIP3   OH247718   3.856   0.896   3.616 -0.3008 -0.3998 -0.2854
 8768TIP3    H147719   3.797   0.930   3.549 -0.9659  1.1726  1.0481
 8768TIP3    H247720   3.863   0.968   3.680  0.3282 -1.8409  1.2974
 8769TIP3   OH247721   4.128   6.363   2.319 -0.4338  0.2598  0.5467
 8769TIP3    H147722   4.052   6.418   2.338 -0.3377  0.3708  0.6123
 8769TIP3    H247723   4.183   6.369   2.397  0.9807  2.4439 -0.5434
 8770TIP3   OH247724   1.816   0.760   1.673  0.3084 -0.2197 -0.3174
 8770TIP3    H147725   1.883   0.827   1.684 -0.5139  0.7573 -1.2102
 8770TIP3    H247726   1.755   0.796   1.609 -3.1687  0.5713  3.2343
 8771TIP3   OH247727   6.135   1.390  16.711  0.2118 -0.1795 -0.4619
 8771TIP3    H147728   6.046   1.377  16.678 -0.3810  0.0095  1.0275
 8771TIP3    H247729   6.165   1.471  16.669 -0.7055  0.3199 -0.1552
 8772TIP3   OH247730   2.597   1.291  14.339  0.6539 -0.1653  0.3896
 8772TIP3    H147731   2.598   1.375  14.385 -2.0318 -0.7170  1.5549
 8772TIP3    H247732   2.654   1.304  14.263  0.5116  2.5836  0.7227
 8773TIP3   OH247733   4.222   6.016  15.882  0.4927 -0.3590  0.3457
 8773TIP3    H147734   4.174   5.981  15.807  0.4169 -0.7452  0.5716
 8773TIP3    H247735   4.251   6.103  15.854  1.7873 -1.1047 -0.7027
 8774TIP3   OH247736   1.617   3.034  16.677 -0.3722  0.5303 -0.6266
 8774TIP3    H147737   1.698   3.016  16.629 -0.2596  1.1225 -0.6676
 8774TIP3    H247738   1.576   2.948  16.688  0.1495  0.2559 -0.8083
 8775TIP3   OH247739   2.827   6.530   2.194  0.5960  0.0158 -0.1036
 8775TIP3    H147740   2.896   6.556   2.133  1.8639 -0.9866  0.8675
 8775TIP3    H247741   2.749   6.524   2.140  1.2710  1.1070 -1.2465
 8776TIP3   OH247742   3.489   3.746  13.922  0.0602  0.0001  0.5532
 8776TIP3    H147743   3.443   3.827  13.898 -0.2024 -0.1784  0.4615
 8776TIP3    H247744   3.556   3.735  13.854  1.3691  1.1822  1.6069
 8777TIP3   OH247745   4.196   4.487  11.949  0.3921  0.5415  0.2728
 8777TIP3    H147746   4.199   4.431  12.026 -0.4219 -2.3945 -1.7251
 8777TIP3    H247747   4.127   4.550  11.969 -0.5438 -0.8316  1.5611
 8778TIP3   OH247748   4.905   0.982   4.525  0.5114 -0.5216 -0.1885
 8778TIP3    H147749   4.907   0.887   4.537 -1.0072 -0.5023  0.3254
 8778TIP3    H247750   4.960   1.016   4.595 -0.1532 -0.9461  0.5456
 8779TIP3   OH247751   5.084   4.144   4.710  0.0642 -0.4229 -0.3918
 8779TIP3    H147752   5.145   4.100   4.651  0.2023  0.0875 -0.6395
 8779TIP3    H247753   5.007   4.086   4.714  0.1163 -0.5309 -0.9559
 8780TIP3   OH247754   2.074   5.105  13.505  0.2397 -0.6343  0.2088
 8780TIP3    H147755   2.140   5.083  13.439 -0.9910  0.1742 -1.3539
 8780TIP3    H247756   2.028   5.023  13.522 -0.8921 -0.4158 -1.6411
 8781TIP3   OH247757   5.865   2.345   0.854  0.5972  0.9036  0.8734
 8781TIP3    H147758   5.824   2.354   0.768  0.0940  0.4526  1.0607
 8781TIP3    H247759   5.911   2.427   0.867 -1.1682  1.8801  1.1381
 8782TIP3   OH247760   0.815   3.783   0.580  0.6404 -0.3474 -0.1585
 8782TIP3    H147761   0.783   3.733   0.656  0.5247  0.8182  0.5696
 8782TIP3    H247762   0.908   3.795   0.598  1.0473 -1.8318 -1.2039
 8783TIP3   OH247763   3.257   5.428   3.062  0.3528 -0.0539  0.3228
 8783TIP3    H147764   3.220   5.346   3.030  2.0562 -1.1740  1.1798
 8783TIP3    H247765   3.315   5.458   2.992  1.0617 -0.4856  0.7174
 8784TIP3   OH247766   4.571   4.699  11.655  0.0426  0.1795 -0.7301
 8784TIP3    H147767   4.494   4.745  11.621 -0.9506  0.2743  1.4953
 8784TIP3    H247768   4.627   4.769  11.689  1.9352  0.2433 -3.8044
 8785TIP3   OH247769   4.769   2.865   5.471 -0.5629 -0.1298 -0.0215
 8785TIP3    H147770   4.840   2.838   5.412  1.2530  2.2612  0.9598
 8785TIP3    H247771   4.707   2.911   5.415  0.1138  0.2836 -0.4376
 8786TIP3   OH247772   0.616   1.377  16.132 -0.2433  0.1974 -0.2177
 8786TIP3    H147773   0.681   1.409  16.069 -0.9291 -1.8089 -2.0113
 8786TIP3    H247774   0.633   1.283  16.137 -1.4666  0.0368  1.1391
 8787TIP3   OH247775   6.228   2.470   4.838 -0.0902  0.5033 -0.3525
 8787TIP3    H147776   6.255   2.382   4.814  0.8391  0.6418  0.1476
 8787TIP3    H247777   6.158   2.492   4.777  0.2985 -0.2297 -1.0669
 8788TIP3   OH247778   2.821   1.010  13.968 -0.5969  0.0190 -0.1198
 8788TIP3    H147779   2.916   1.010  13.975 -0.7073  0.9334  1.3916
 8788TIP3    H247780   2.794   0.928  14.010 -0.6355  0.9611  1.7100
 8789TIP3   OH247781   4.392   2.002   5.198 -0.3743 -0.3344  0.1026
 8789TIP3    H147782   4.347   1.918   5.191 -1.4196  0.1258  1.2604
 8789TIP3    H247783   4.412   2.011   5.291  1.3750 -0.1317 -0.2703
 8790TIP3   OH247784   6.718   1.414  11.538 -0.0992  0.0628  0.1089
 8790TIP3    H147785   6.677   1.333  11.569  0.6527  0.1902  1.5071
 8790TIP3    H247786   6.645   1.467  11.506 -0.8211 -0.4446  0.8783
 8791TIP3   OH247787   5.060   0.646  14.909  0.3232 -0.0533 -0.3206
 8791TIP3    H147788   4.981   0.623  14.957  0.2724 -1.3558 -1.0238
 8791TIP3    H247789   5.050   0.739  14.889  0.5749  0.6359  2.6104
 8792TIP3   OH247790   1.295   0.964  11.742  0.4970  0.4158 -0.0958
 8792TIP3    H147791   1.246   0.984  11.661  1.0467  0.3456 -0.4469
 8792TIP3    H247792   1.293   0.869  11.748  0.6427  0.4091 -0.1451
 8793TIP3   OH247793   4.621   3.840   4.452  0.1904  0.1947 -0.1812
 8793TIP3    H147794   4.643   3.918   4.503  1.0701 -0.1081 -0.1031
 8793TIP3    H247795   4.623   3.870   4.361 -0.0328  0.3997 -0.1195
 8794TIP3   OH247796   2.151   1.366  14.470 -1.0344  0.0044  0.1456
 8794TIP3    H147797   2.204   1.301  14.423 -1.1832  0.1175 -0.1757
 8794TIP3    H247798   2.214   1.433  14.497 -0.7694 -0.6075  1.0586
 8795TIP3   OH247799   4.397   1.935  16.651 -0.7665 -0.2076 -0.2998
 8795TIP3    H147800   4.351   2.000  16.599  0.1219  0.6498 -0.0216
 8795TIP3    H247801   4.428   1.870  16.587 -0.3230  0.4489 -0.7544
 8796TIP3   OH247802   0.013   5.821  14.976 -0.7762  0.3260 -0.1333
 8796TIP3    H147803  -0.031   5.753  15.026  2.5338 -0.1300  2.3011
 8796TIP3    H247804   0.025   5.783  14.889  0.2952 -1.8941  0.9584
 8797TIP3   OH247805   1.689   4.789  12.920 -0.7870  0.2213 -0.1582
 8797TIP3    H147806   1.756   4.813  12.857 -0.5259 -0.1031 -0.0061
 8797TIP3    H247807   1.732   4.795  13.005 -0.9705  0.0837 -0.0537
 8798TIP3   OH247808   6.247   1.111  16.827 -0.1409 -0.0962 -0.2762
 8798TIP3    H147809   6.236   1.117  16.922 -0.5357 -0.9439 -0.2659
 8798TIP3    H247810   6.225   1.199  16.795 -1.0063 -0.0852  0.3199
 8799TIP3   OH247811   5.430   3.447  12.371  1.0280  0.4558  0.3105
 8799TIP3    H147812   5.462   3.513  12.309  0.0024 -0.0825 -0.8408
 8799TIP3    H247813   5.502   3.432  12.431  1.1229  2.9639  0.8703
 8800TIP3   OH247814   2.492   6.053   0.180 -0.1315  0.1722 -0.4192
 8800TIP3    H147815   2.460   5.964   0.169  0.2054 -0.0387  0.2904
 8800TIP3    H247816   2.474   6.074   0.272 -1.3053  1.2685 -0.8694
 8801TIP3   OH247817   2.326   3.739   4.549 -0.3692 -0.0637  0.0722
 8801TIP3    H147818   2.289   3.768   4.632  1.5082 -0.6341  1.1395
 8801TIP3    H247819   2.377   3.813   4.517 -0.8699  0.0619 -0.4524
 8802TIP3   OH247820   0.894   5.935   3.492 -0.0296  0.3417  0.5776
 8802TIP3    H147821   0.893   5.855   3.544  1.6193 -0.1604 -0.1405
 8802TIP3    H247822   0.885   6.005   3.557  0.8179 -0.3233  1.4280
 8803TIP3   OH247823   1.045   0.779  12.811  0.2162  0.5550  0.0300
 8803TIP3    H147824   1.075   0.794  12.721 -0.7478  0.2991 -0.3392
 8803TIP3    H247825   0.978   0.846  12.825  0.2214  0.4647  0.4838
 8804TIP3   OH247826   1.375   3.909   2.257  0.0159 -0.2794 -0.1441
 8804TIP3    H147827   1.283   3.890   2.274 -0.2338 -0.3340 -1.5049
 8804TIP3    H247828   1.390   3.993   2.300 -0.1661 -1.1575  1.6813
 8805TIP3   OH247829   5.657   3.194  14.691 -0.3690  0.4290 -0.8955
 8805TIP3    H147830   5.660   3.286  14.666  0.7093  0.3128 -1.2376
 8805TIP3    H247831   5.746   3.175  14.723 -1.1835  0.0659  1.2315
 8806TIP3   OH247832   3.760   1.745   3.151 -0.5766 -0.6614  0.0981
 8806TIP3    H147833   3.688   1.805   3.131  0.1507 -0.5962 -2.5050
 8806TIP3    H247834   3.716   1.663   3.175 -1.5440  0.3531  1.8972
 8807TIP3   OH247835   6.168   6.740   5.629  0.0932 -0.3162  0.0172
 8807TIP3    H147836   6.171   6.824   5.676 -0.0542 -0.2009 -0.1790
 8807TIP3    H247837   6.136   6.678   5.694 -0.7253 -0.0317 -0.1158
 8808TIP3   OH247838   3.892   1.930   1.696  0.0530  0.5480  0.0593
 8808TIP3    H147839   3.884   1.916   1.790 -0.8281 -0.0656 -0.1014
 8808TIP3    H247840   3.881   2.025   1.685 -0.4506  0.5442  0.5151
 8809TIP3   OH247841   3.261   3.438   2.166  0.1036 -0.1323 -0.5127
 8809TIP3    H147842   3.217   3.368   2.118  0.3683  1.2280 -2.8025
 8809TIP3    H247843   3.197   3.465   2.233 -0.0635 -2.3981  0.2775
 8810TIP3   OH247844   2.212   5.925  11.599  0.1333  0.0140 -0.2786
 8810TIP3    H147845   2.233   6.000  11.543  0.8804  1.3585  1.7308
 8810TIP3    H247846   2.117   5.925  11.606  0.1073  0.5064 -0.6473
 8811TIP3   OH247847   5.283   4.436  17.155 -0.5337 -0.7961 -0.0170
 8811TIP3    H147848   5.335   4.505  17.114 -0.1690 -1.1727 -0.1991
 8811TIP3    H247849   5.196   4.444  17.115 -1.0647  0.8258  1.4262
 8812TIP3   OH247850   1.022   4.772  16.835  0.3190 -0.3359  0.2345
 8812TIP3    H147851   0.992   4.734  16.917 -0.7021 -0.2064 -0.0653
 8812TIP3    H247852   1.042   4.697  16.779  1.3324 -0.4240  0.7057
 8813TIP3   OH247853   5.644   4.761  15.983  0.1735 -0.0986  0.3940
 8813TIP3    H147854   5.675   4.701  16.051 -2.4902  0.3590  2.0904
 8813TIP3    H247855   5.616   4.704  15.912 -1.0813 -0.8357  1.4534
 8814TIP3   OH247856   4.390   0.260   3.082  0.5244  0.0769 -0.3978
 8814TIP3    H147857   4.353   0.346   3.104  1.7406  0.3742  0.5839
 8814TIP3    H247858   4.320   0.198   3.100  0.0237  0.7588  0.0309
 8815TIP3   OH247859   1.105   0.479  11.049 -0.5222 -0.3602  0.0567
 8815TIP3    H147860   1.032   0.427  11.014  0.4619 -2.4273  0.9893
 8815TIP3    H247861   1.141   0.522  10.972 -3.4657  1.6902 -0.2523
 8816TIP3   OH247862   4.237   0.413  13.177 -0.6916 -0.2186  0.0470
 8816TIP3    H147863   4.287   0.442  13.254  1.2022 -1.9154 -0.4981
 8816TIP3    H247864   4.299   0.421  13.104 -2.0249  0.0402 -1.0695
 8817TIP3   OH247865   4.118   2.076  13.877 -0.3512  0.2903  0.0208
 8817TIP3    H147866   4.197   2.024  13.891 -0.3430  0.6582  1.3390
 8817TIP3    H247867   4.047   2.011  13.871 -0.4617  0.1522  2.4972
 8818TIP3   OH247868   1.010   5.355   4.152 -0.0616  0.4442  0.4225
 8818TIP3    H147869   0.966   5.294   4.211 -0.2790  1.2546  1.1003
 8818TIP3    H247870   1.103   5.333   4.160 -0.3786 -1.7932 -1.6063
 8819TIP3   OH247871   3.047   0.163   5.914 -0.0594 -0.5020 -0.0079
 8819TIP3    H147872   2.970   0.213   5.938 -0.0157  0.4778 -1.7977
 8819TIP3    H247873   3.029   0.134   5.824  1.8593  0.1528 -0.6182
 8820TIP3   OH247874   4.424   2.745  12.931  0.0548  0.1202 -0.1458
 8820TIP3    H147875   4.413   2.651  12.944  0.9486  0.1674  1.0553
 8820TIP3    H247876   4.373   2.765  12.852  1.9128 -1.8172 -1.9063
 8821TIP3   OH247877   2.809   0.980  12.319  0.6119  0.1066  0.4507
 8821TIP3    H147878   2.766   1.056  12.280  1.4210  0.6012  0.4905
 8821TIP3    H247879   2.754   0.955  12.393  0.6215  0.9934  0.7583
 8822TIP3   OH247880   2.883   3.627  15.232  0.2092 -0.2667 -0.0509
 8822TIP3    H147881   2.938   3.679  15.290 -1.2541  0.4882  0.6791
 8822TIP3    H247882   2.904   3.536  15.254  0.3617  0.0184  1.0058
 8823TIP3   OH247883   1.216   3.611   1.365 -0.5522  0.0314 -0.0464
 8823TIP3    H147884   1.226   3.702   1.393 -1.2985 -0.3801  1.6067
 8823TIP3    H247885   1.304   3.574   1.371 -0.1319  0.7921 -1.3072
 8824TIP3   OH247886   3.755   0.524   1.300  0.3049  0.3585  0.0878
 8824TIP3    H147887   3.702   0.592   1.257 -2.5987 -0.5611  2.0593
 8824TIP3    H247888   3.770   0.459   1.232 -1.1229  0.6630 -0.5487
 8825TIP3   OH247889   2.800   2.874  12.241  0.5642 -0.1970 -0.5495
 8825TIP3    H147890   2.856   2.816  12.191  1.2866 -2.0001  2.2354
 8825TIP3    H247891   2.860   2.938  12.279  0.2909 -0.0492 -0.3647
 8826TIP3   OH247892   6.535   5.052  14.387  0.2190  0.5449 -0.3960
 8826TIP3    H147893   6.582   5.006  14.319 -1.8798 -1.2469 -0.6969
 8826TIP3    H247894   6.466   4.992  14.414 -0.4393  2.1415  1.6724
 8827TIP3   OH247895   5.576   1.536  15.579 -0.5194  0.3084 -0.1162
 8827TIP3    H147896   5.517   1.537  15.655 -0.0129  0.5652  0.2876
 8827TIP3    H247897   5.601   1.628  15.568  1.7346 -0.0761  1.2734
 8828TIP3   OH247898   3.113   4.942   5.187 -0.4350  0.1424  0.5334
 8828TIP3    H147899   3.203   4.921   5.210 -0.3335 -1.0847 -0.8776
 8828TIP3    H247900   3.120   5.001   5.111 -0.8214 -1.6190 -0.9007
 8829TIP3   OH247901   0.834   3.133  10.925  0.0889 -0.2512  0.2340
 8829TIP3    H147902   0.825   3.084  10.843  1.5149 -1.1656  0.6040
 8829TIP3    H247903   0.923   3.113  10.955 -0.5729 -0.2863  2.2241
 8830TIP3   OH247904   5.577   2.339   0.995  0.3053  0.3768  0.0699
 8830TIP3    H147905   5.518   2.350   1.070  0.7758  0.8679  0.3686
 8830TIP3    H247906   5.634   2.415   0.998  0.7268  0.0825 -0.4354
 8831TIP3   OH247907   0.116   6.064  11.692 -0.2943  0.5458 -0.2465
 8831TIP3    H147908   0.140   6.156  11.698  1.1461  0.2329 -0.8133
 8831TIP3    H247909   0.085   6.041  11.779  0.8065  1.1871  0.3321
 8832TIP3   OH247910   5.668   4.038   4.214  0.1109 -0.0685 -0.5185
 8832TIP3    H147911   5.616   4.071   4.288  0.7557 -0.1468 -0.0303
 8832TIP3    H247912   5.692   4.116   4.165  0.7735  0.0938  0.0703
 8833TIP3   OH247913   4.787   6.595  12.608 -0.3222  0.3924  0.3632
 8833TIP3    H147914   4.741   6.678  12.591 -0.2664  0.6457  1.3901
 8833TIP3    H247915   4.841   6.582  12.530 -0.6250  1.1235  0.0167
 8834TIP3   OH247916   0.582   3.036   3.135 -0.3450  0.4254 -0.1066
 8834TIP3    H147917   0.612   2.946   3.122 -0.0985  0.4513  0.2673
 8834TIP3    H247918   0.547   3.062   3.050 -1.6464 -0.4780  0.1398
 8835TIP3   OH247919   4.549   1.989   3.353 -0.3336 -0.1482 -0.3438
 8835TIP3    H147920   4.537   1.942   3.270 -0.7946  0.8882 -0.8747
 8835TIP3    H247921   4.507   2.073   3.339  0.1795  0.2968  0.7250
 8836TIP3   OH247922   4.724   4.248   1.819  0.2211 -0.3459 -0.1361
 8836TIP3    H147923   4.758   4.335   1.797 -1.3900  0.0595 -1.1148
 8836TIP3    H247924   4.777   4.187   1.768  3.0351 -0.1720  2.4483
 8837TIP3   OH247925   3.344   3.945   0.073 -0.3614  0.4967  0.4658
 8837TIP3    H147926   3.319   4.036   0.091 -2.7588 -0.1153  0.3650
 8837TIP3    H247927   3.313   3.929  -0.016 -4.0726 -1.7597  2.0509
 8838TIP3   OH247928   5.739   4.630  14.784  0.3026 -0.1058  0.1266
 8838TIP3    H147929   5.765   4.667  14.699  1.6238 -3.3541 -0.9731
 8838TIP3    H247930   5.644   4.620  14.777  0.1032  1.7462 -0.0687
 8839TIP3   OH247931   2.101   3.829  10.863  0.2553  0.0078  0.0972
 8839TIP3    H147932   2.064   3.912  10.834  0.2458  0.1579  0.5319
 8839TIP3    H247933   2.189   3.851  10.894  0.9715 -0.4548 -1.5496
 8840TIP3   OH247934   1.171   6.422  12.899  0.0581  0.7692  0.6436
 8840TIP3    H147935   1.259   6.425  12.862  0.0248  0.5931  0.5545
 8840TIP3    H247936   1.121   6.486  12.848 -0.9557 -2.0711 -2.0609
 8841TIP3   OH247937   3.755   6.158   1.902 -0.5724 -0.8584  0.1677
 8841TIP3    H147938   3.700   6.097   1.855 -0.5836  0.3001 -1.3591
 8841TIP3    H247939   3.801   6.207   1.834 -0.6266  0.8894  1.3540
 8842TIP3   OH247940   6.552   2.465   2.114 -0.5098 -0.0126  0.3456
 8842TIP3    H147941   6.522   2.443   2.202 -0.6958  3.7185  1.3097
 8842TIP3    H247942   6.489   2.531   2.083  0.0868 -0.5824 -2.2216
 8843TIP3   OH247943   5.137   4.559  16.834  0.3478  0.2383  0.0926
 8843TIP3    H147944   5.197   4.486  16.821 -0.8621 -1.1559  2.1627
 8843TIP3    H247945   5.051   4.518  16.846 -0.9708  2.1533 -2.1196
 8844TIP3   OH247946   2.884   6.698  13.463  0.8243  0.5330 -0.1203
 8844TIP3    H147947   2.831   6.694  13.543 -0.8809  0.9246 -1.1981
 8844TIP3    H247948   2.951   6.764  13.483  0.6082  0.3997  1.1018
 8845TIP3   OH247949   4.890   3.611   4.788 -0.5638 -0.2172  0.4074
 8845TIP3    H147950   4.844   3.695   4.787 -0.3306 -0.0936 -1.2042
 8845TIP3    H247951   4.835   3.553   4.734  0.1329 -0.6325  0.1396
 8846TIP3   OH247952   2.173   4.897  12.344 -0.3283  0.1119  0.3991
 8846TIP3    H147953   2.218   4.829  12.293 -2.2150 -0.9582  0.0859
 8846TIP3    H247954   2.238   4.965  12.358  1.2801 -1.2751 -0.2686
 8847TIP3   OH247955   2.912   1.919  14.052 -0.1452 -0.3459  0.3131
 8847TIP3    H147956   2.954   1.909  14.138 -1.1330  0.6355  0.9222
 8847TIP3    H247957   2.833   1.864  14.058 -1.1300  1.0815  0.6670
 8848TIP3   OH247958   3.542   2.622  11.229  0.4970  0.5303 -0.8902
 8848TIP3    H147959   3.465   2.570  11.205  0.9228 -1.1417  1.2860
 8848TIP3    H247960   3.507   2.708  11.250 -1.1405 -0.8966  2.5279
 8849TIP3   OH247961   3.243   1.864  10.654  0.4788  0.0070 -0.1540
 8849TIP3    H147962   3.223   1.954  10.679  1.7479 -0.0746  1.2237
 8849TIP3    H247963   3.330   1.869  10.616  1.2796 -0.8775  1.5032
 8850TIP3   OH247964   6.126   0.509  11.627  0.7582  0.0561  0.2476
 8850TIP3    H147965   6.046   0.465  11.656  0.6422  0.5712  0.7355
 8850TIP3    H247966   6.166   0.450  11.564  0.1223 -0.3201  0.2029
 8851TIP3   OH247967   3.709   0.786  17.037 -0.1021 -0.3665 -0.1086
 8851TIP3    H147968   3.747   0.818  16.956  0.1509  0.5256  0.3578
 8851TIP3    H247969   3.746   0.698  17.048  2.2539  0.6784  0.6137
 8852TIP3   OH247970   2.921   0.629   4.054 -0.4223  0.1409 -0.1762
 8852TIP3    H147971   2.983   0.696   4.026 -0.3191 -0.7801 -2.2545
 8852TIP3    H247972   2.964   0.583   4.126  1.5738 -0.8756 -1.9865
 8853TIP3   OH247973   1.715   5.359  11.440  0.0486 -0.1674  0.6683
 8853TIP3    H147974   1.694   5.453  11.437 -0.2653 -0.2730 -1.0367
 8853TIP3    H247975   1.810   5.356  11.450  0.3991  0.3654 -2.0783
 8854TIP3   OH247976   0.285   4.710  12.209 -0.3977 -0.3433 -0.2881
 8854TIP3    H147977   0.193   4.706  12.183 -0.6981  0.9032  0.5177
 8854TIP3    H247978   0.323   4.778  12.154 -0.4899  0.6630  0.8590
 8855TIP3   OH247979   0.016   1.463  16.781  0.0219  0.4868  0.0877
 8855TIP3    H147980   0.000   1.372  16.754  0.1614 -0.0051  1.5884
 8855TIP3    H247981  -0.048   1.479  16.850  0.0250  1.5291 -0.1422
 8856TIP3   OH247982   2.086   0.979   4.536  0.4529  0.1391  0.4454
 8856TIP3    H147983   2.067   0.919   4.608 -0.1909  0.5496  0.6188
 8856TIP3    H247984   2.070   1.066   4.572 -0.4969  0.3169 -0.3745
 8857TIP3   OH247985   1.130   5.595   4.362  0.7985 -0.3271  0.5864
 8857TIP3    H147986   1.044   5.596   4.320  1.3502  0.1016 -0.5404
 8857TIP3    H247987   1.113   5.560   4.449 -0.5029 -0.3574  0.3323
 8858TIP3   OH247988   0.096   4.702   0.068  0.5411 -0.4213  0.3053
 8858TIP3    H147989   0.065   4.785   0.105  0.9986 -0.4896  0.8567
 8858TIP3    H247990   0.019   4.645   0.070 -0.0086  0.2512 -0.8957
 8859TIP3   OH247991   0.748   1.541   2.605  1.3221 -0.2264  0.2535
 8859TIP3    H147992   0.686   1.516   2.537  0.7978  1.3819  0.1398
 8859TIP3    H247993   0.697   1.593   2.667  2.5132  0.9863  0.2330
 8860TIP3   OH247994   4.792   0.801   3.406  0.5991  0.0118  0.5593
 8860TIP3    H147995   4.766   0.718   3.366  0.2263  0.8118 -0.8854
 8860TIP3    H247996   4.752   0.799   3.493  1.2043 -1.6358  0.8271
 8861TIP3   OH247997   3.274   1.453  16.846  1.0930  0.3178 -0.7293
 8861TIP3    H147998   3.294   1.539  16.809  0.2182  0.1898 -1.5148
 8861TIP3    H247999   3.255   1.398  16.770 -2.2726  0.4457 -0.0497
 8862TIP3   OH248000   0.256   5.171   3.210 -0.2227 -0.1656  0.9485
 8862TIP3    H148001   0.228   5.118   3.135  2.1667 -1.9659  1.2896
 8862TIP3    H248002   0.241   5.261   3.182  0.5263 -0.8175 -1.6693
 8863TIP3   OH248003   6.065   2.262   3.079  0.0297 -0.5712 -0.0023
 8863TIP3    H148004   6.001   2.319   3.035  0.5007 -0.4259 -0.5023
 8863TIP3    H248005   6.125   2.322   3.122 -0.5300 -0.7152  0.9973
 8864TIP3   OH248006   6.183   5.852   4.054 -0.2187  0.2860 -0.0310
 8864TIP3    H148007   6.188   5.774   3.999 -0.4847  1.2577 -1.4540
 8864TIP3    H248008   6.144   5.919   3.997 -0.4742  1.3090  1.3318
 8865TIP3   OH248009   3.594   0.657   6.232  0.5780 -0.6264 -0.5089
 8865TIP3    H148010   3.509   0.629   6.267  0.5590  0.5582  0.4122
 8865TIP3    H248011   3.639   0.695   6.307  2.6526 -2.8541 -0.5537
 8866TIP3   OH248012   2.024   3.669   5.184 -0.4707  0.4812 -0.0675
 8866TIP3    H148013   1.932   3.667   5.210 -0.5414  0.5493 -0.3059
 8866TIP3    H248014   2.036   3.590   5.132 -0.4259  0.5339 -0.1384
 8867TIP3   OH248015   2.103   6.224   3.644 -0.4192 -0.5378  0.8048
 8867TIP3    H148016   2.023   6.227   3.591 -0.1536 -2.4745  0.2383
 8867TIP3    H248017   2.167   6.272   3.593 -0.3192 -1.9116 -0.4152
 8868TIP3   OH248018   1.334   1.890  15.192 -0.0729  0.0843 -0.0338
 8868TIP3    H148019   1.338   1.932  15.106 -1.5834  1.6911  0.6657
 8868TIP3    H248020   1.257   1.833  15.188 -0.6782  0.8569  0.5580
 8869TIP3   OH248021   6.266   1.494  12.978  0.0187 -0.5720  0.1083
 8869TIP3    H148022   6.291   1.418  12.926  0.7723 -0.2589  0.0011
 8869TIP3    H248023   6.171   1.499  12.970 -0.0190 -1.4162  0.0043
 8870TIP3   OH248024   5.463   2.713   1.971 -0.2998 -0.4345 -0.1890
 8870TIP3    H148025   5.552   2.713   2.007 -0.5190 -1.1510  0.3533
 8870TIP3    H248026   5.430   2.802   1.988 -1.0959 -1.3260  3.1216
 8871TIP3   OH248027   6.041   6.566   5.773  0.3220 -0.2513 -0.6099
 8871TIP3    H148028   5.985   6.549   5.849  1.7079  1.6214  0.8607
 8871TIP3    H248029   6.128   6.539   5.801  0.8251  0.3274 -1.6091
 8872TIP3   OH248030   6.418   5.662  14.226 -0.7751  0.0667  0.0687
 8872TIP3    H148031   6.473   5.583  14.230  1.5901  1.7371  1.4379
 8872TIP3    H248032   6.440   5.702  14.142 -2.8013 -1.2556 -1.1399
 8873TIP3   OH248033   3.825   1.807   4.989  0.0687  0.3569  0.2691
 8873TIP3    H148034   3.748   1.808   4.932 -0.2699 -0.5241  0.6808
 8873TIP3    H248035   3.858   1.896   4.988 -0.6887  0.6337 -0.2937
 8874TIP3   OH248036   6.086   5.508  16.670 -0.3805  0.2443 -0.1990
 8874TIP3    H148037   6.050   5.420  16.682 -0.3021  0.2765  0.2716
 8874TIP3    H248038   6.117   5.509  16.580  0.1674 -0.4056 -0.0182
 8875TIP3   OH248039   0.103   1.245   2.283 -0.4960  0.0712  0.4291
 8875TIP3    H148040   0.169   1.192   2.238 -0.2134  1.9798 -1.4938
 8875TIP3    H248041   0.112   1.223   2.375  0.0273 -2.7552 -0.2406
 8876TIP3   OH248042   1.044   0.725  11.886 -0.3714 -0.7632  0.1730
 8876TIP3    H148043   1.010   0.644  11.923  0.0263 -1.4193 -0.8968
 8876TIP3    H248044   1.128   0.701  11.848 -0.6231 -0.0320 -0.8721
 8877TIP3   OH248045   3.431   6.435  15.230 -0.2713  0.4566 -0.3101
 8877TIP3    H148046   3.499   6.436  15.162  0.6878  0.4382  0.6369
 8877TIP3    H248047   3.364   6.376  15.196 -0.4955  1.5997 -1.9019
 8878TIP3   OH248048   3.610   3.827  16.549  0.2749 -1.3057 -1.0272
 8878TIP3    H148049   3.669   3.823  16.474  2.4316  1.8155  0.4161
 8878TIP3    H248050   3.667   3.814  16.625 -0.6821  2.3795  0.4386
 8879TIP3   OH248051   4.757   2.255  17.206 -0.1615  0.0877 -0.2069
 8879TIP3    H148052   4.729   2.337  17.165 -1.4727 -1.3691 -2.3501
 8879TIP3    H248053   4.685   2.232  17.265 -0.1115  0.1007 -0.1399
 8880TIP3   OH248054   3.482   2.950  12.525  0.2348 -1.3203  0.4017
 8880TIP3    H148055   3.575   2.939  12.503  0.6931  0.6755  1.1756
 8880TIP3    H248056   3.462   2.878  12.585  1.6511 -1.0307  1.2483
 8881TIP3   OH248057   0.768   3.460   0.979 -0.0534 -0.3172 -0.4517
 8881TIP3    H148058   0.801   3.512   1.053 -1.4628  2.0465 -1.4365
 8881TIP3    H248059   0.678   3.439   1.003 -0.0963 -0.6825 -0.9305
 8882TIP3   OH248060   6.313   4.504  11.454  0.1628 -0.1360 -0.0967
 8882TIP3    H148061   6.373   4.432  11.437  0.2424  0.3998 -2.1515
 8882TIP3    H248062   6.360   4.582  11.425 -0.0682  0.7223  1.7715
 8883TIP3   OH248063   3.915   6.038  13.155 -0.1860  0.3629  0.2190
 8883TIP3    H148064   3.876   5.978  13.091  0.0684 -0.7094  1.0701
 8883TIP3    H248065   3.886   6.006  13.240  2.3260 -0.3285  0.8662
 8884TIP3   OH248066   1.397   3.617  15.983 -0.0437  0.1349  0.2734
 8884TIP3    H148067   1.444   3.640  15.903 -1.5845 -1.9167 -1.2620
 8884TIP3    H248068   1.332   3.686  15.994 -0.8151 -0.3755 -1.0764
 8885TIP3   OH248069   0.860   5.703   1.180  0.0458  0.8905  0.1815
 8885TIP3    H148070   0.816   5.686   1.263 -1.7144 -1.3961 -1.1591
 8885TIP3    H248071   0.940   5.751   1.204 -0.6666  0.6836  3.1110
 8886TIP3   OH248072   5.418   3.109   1.365  0.0405  0.5447  0.1110
 8886TIP3    H148073   5.456   3.084   1.449 -0.8057  0.9472  0.6098
 8886TIP3    H248074   5.340   3.054   1.356 -0.1296  0.8337 -0.1932
 8887TIP3   OH248075   4.993   3.503  13.391  0.1862 -0.8366  0.4375
 8887TIP3    H148076   5.006   3.440  13.320 -1.1108 -1.0825  0.4064
 8887TIP3    H248077   5.023   3.586  13.355  0.3742 -1.1264 -0.0886
 8888TIP3   OH248078   0.036   1.976  14.686  0.4644  0.0497  0.3196
 8888TIP3    H148079  -0.045   2.025  14.700  1.5357  1.8418  0.4229
 8888TIP3    H248080   0.009   1.900  14.634 -1.1084  1.2054 -0.6247
 8889TIP3   OH248081   5.949   3.039   6.207 -0.4104  0.4103  0.1239
 8889TIP3    H148082   6.034   3.007   6.176  0.0119  2.1208 -0.5417
 8889TIP3    H248083   5.968   3.086   6.288 -0.9003 -0.2273  0.6172
 8890TIP3   OH248084   1.277   3.523  16.945  0.3804  0.5928  0.4827
 8890TIP3    H148085   1.327   3.476  16.879  0.8668 -1.8139  2.5184
 8890TIP3    H248086   1.203   3.560  16.897  1.0509 -0.6205 -1.5220
 8891TIP3   OH248087   5.640   2.199  16.405 -0.5369  0.5401 -0.4986
 8891TIP3    H148088   5.672   2.170  16.320  1.0097  1.5952 -0.2871
 8891TIP3    H248089   5.580   2.271  16.384 -0.6534  0.3784 -0.7243
 8892TIP3   OH248090   3.122   0.511  12.384  0.4292  0.3089  0.1840
 8892TIP3    H148091   3.218   0.505  12.384  0.4981  1.0950  1.1153
 8892TIP3    H248092   3.101   0.554  12.302  0.7950 -0.8856 -0.5426
 8893TIP3   OH248093   2.265   3.851   3.797 -0.1513 -0.3321 -0.0573
 8893TIP3    H148094   2.176   3.876   3.773 -0.8525 -1.9105  0.7861
 8893TIP3    H248095   2.295   3.797   3.724  0.6250  1.2721 -0.9536
 8894TIP3   OH248096   2.554   2.391   5.455  0.3786  0.0851 -0.0977
 8894TIP3    H148097   2.597   2.476   5.465  0.5036 -0.1089  1.1846
 8894TIP3    H248098   2.616   2.328   5.491 -0.1737 -0.4225 -0.0158
 8895TIP3   OH248099   2.233   1.311  13.810  0.5886 -0.0408  0.1102
 8895TIP3    H148100   2.258   1.336  13.721  0.6182 -0.1459  0.0895
 8895TIP3    H248101   2.138   1.304  13.807  0.5241  0.7261  0.2838
 8896TIP3   OH248102   2.727   5.510   5.884 -0.8986  0.1069 -0.2764
 8896TIP3    H148103   2.650   5.528   5.938  0.5193 -0.0732  1.8808
 8896TIP3    H248104   2.754   5.597   5.853 -0.1880  0.5551  1.5130
 8897TIP3   OH248105   0.764   1.546  11.294 -0.1058 -0.6760 -0.0229
 8897TIP3    H148106   0.677   1.510  11.275 -1.3874  1.2433  1.9476
 8897TIP3    H248107   0.792   1.498  11.372 -0.2443  0.0303  0.4669
 8898TIP3   OH248108   6.529   3.637  16.366  0.0222 -0.3562 -0.3476
 8898TIP3    H148109   6.482   3.637  16.283 -0.0876 -1.0857 -0.2885
 8898TIP3    H248110   6.572   3.551  16.370  1.4150  0.3129 -0.4338
 8899TIP3   OH248111   0.403   2.519  17.149  0.0438  0.4467  0.1706
 8899TIP3    H148112   0.310   2.533  17.170 -0.6260 -0.6160 -1.9152
 8899TIP3    H248113   0.430   2.601  17.107 -0.2289  0.3824 -0.1315
 8900TIP3   OH248114   3.217   4.416   2.202 -0.4160  0.1298 -0.1760
 8900TIP3    H148115   3.230   4.328   2.167  1.6479  0.7463 -1.0238
 8900TIP3    H248116   3.145   4.453   2.150 -1.1943 -0.9856  0.0961
 8901TIP3   OH248117   0.621   1.724   4.760  0.0194 -0.2548  0.4237
 8901TIP3    H148118   0.640   1.778   4.683  2.0153 -0.2293  0.9022
 8901TIP3    H248119   0.534   1.751   4.788 -0.3062  0.4713 -1.2132
 8902TIP3   OH248120   4.063   0.820  14.124 -0.1588 -0.3516 -0.2176
 8902TIP3    H148121   4.112   0.781  14.052 -0.7287 -2.1992  0.3689
 8902TIP3    H248122   4.012   0.890  14.084 -0.4959 -1.3894 -1.6124
 8903TIP3   OH248123   6.784   4.116   5.269  0.6989  0.2934 -0.3957
 8903TIP3    H148124   6.751   4.026   5.264 -0.2620  0.7376 -2.3175
 8903TIP3    H248125   6.878   4.107   5.286  0.3784 -1.0473  0.6892
 8904TIP3   OH248126   3.722   5.176   4.256  0.3257 -0.3976 -0.1021
 8904TIP3    H148127   3.764   5.151   4.338  2.4718 -1.0889 -1.3706
 8904TIP3    H248128   3.713   5.271   4.261  1.1743 -0.3448  0.6038
 8905TIP3   OH248129   5.609   0.179  15.536  0.6153  0.1044 -0.2364
 8905TIP3    H148130   5.593   0.156  15.628  0.1807  0.0309 -0.3297
 8905TIP3    H248131   5.524   0.167  15.493  0.3204  2.0628 -0.2513
 8906TIP3   OH248132   0.865   3.362  16.683  0.2127 -0.3183 -0.5568
 8906TIP3    H148133   0.939   3.302  16.675 -0.6325 -1.3658 -0.6239
 8906TIP3    H248134   0.790   3.313  16.650 -0.6930  0.3854  0.4121
 8907TIP3   OH248135   1.844   4.614  16.692  0.8058  0.1081 -0.0645
 8907TIP3    H148136   1.924   4.565  16.711  0.4814  0.7966  3.3177
 8907TIP3    H248137   1.864   4.704  16.718 -0.5183  0.6342 -0.8156
 8908TIP3   OH248138   2.605   4.278  14.451 -0.3551 -0.4221 -0.6636
 8908TIP3    H148139   2.591   4.197  14.500 -1.1102 -0.8957 -1.6416
 8908TIP3    H248140   2.551   4.268  14.373 -0.4899  1.0522 -0.7653
 8909TIP3   OH248141   3.969   3.029  11.921 -0.1243 -0.1978 -0.3924
 8909TIP3    H148142   3.884   3.072  11.913  0.9729  2.4668  1.6931
 8909TIP3    H248143   4.021   3.063  11.848  0.0864  0.4639  0.0626
 8910TIP3   OH248144   4.783   3.618  16.682  0.3198  0.2254  0.3507
 8910TIP3    H148145   4.740   3.558  16.621  1.2377 -0.1902  0.0983
 8910TIP3    H248146   4.824   3.561  16.747 -1.7128  0.6999  2.0998
 8911TIP3   OH248147   6.007   5.078   3.806 -0.3588  0.3057  0.1486
 8911TIP3    H148148   5.941   5.077   3.736 -0.6481  1.2076  0.4022
 8911TIP3    H248149   6.050   5.163   3.797  1.1880 -0.5083 -0.3822
 8912TIP3   OH248150   0.864   1.136  14.220 -0.3379  0.3906 -0.1394
 8912TIP3    H148151   0.937   1.090  14.179 -0.8329  0.8181 -1.5140
 8912TIP3    H248152   0.865   1.224  14.181 -1.1815  0.6122  0.3146
 8913TIP3   OH248153   4.342   1.587   3.402  0.2542  0.1352 -0.1093
 8913TIP3    H148154   4.291   1.520   3.448  1.6968 -1.1354 -0.3314
 8913TIP3    H248155   4.353   1.552   3.314  1.1508  0.6029 -0.1815
 8914TIP3   OH248156   6.707   1.307  14.025 -0.3068  0.3129  0.2998
 8914TIP3    H148157   6.673   1.380  13.974 -2.0232 -1.6133 -1.3919
 8914TIP3    H248158   6.639   1.289  14.090 -1.6521 -2.1220 -1.6832
 8915TIP3   OH248159   3.985   6.423   0.612 -0.6361  0.0032  0.2323
 8915TIP3    H148160   4.065   6.421   0.561 -2.3446 -2.4076 -2.4744
 8915TIP3    H248161   3.989   6.507   0.659  2.6132  0.6980 -1.1283
 8916TIP3   OH248162   1.611   1.778   4.453 -0.3129 -0.7371  0.1280
 8916TIP3    H148163   1.706   1.780   4.457 -0.3167  0.5149 -0.2228
 8916TIP3    H248164   1.584   1.866   4.479 -1.4937 -1.8340  2.7785
 8917TIP3   OH248165   5.742   0.648  15.648 -0.1429  0.0664  0.2149
 8917TIP3    H148166   5.807   0.580  15.628  1.6794  1.5892  0.8403
 8917TIP3    H248167   5.764   0.675  15.737 -1.9281  0.3040  0.5866
 8918TIP3   OH248168   0.332   1.217   3.470 -0.5579 -0.5211  0.3065
 8918TIP3    H148169   0.316   1.301   3.514 -0.6011 -0.3411 -0.0524
 8918TIP3    H248170   0.342   1.154   3.542 -0.6282 -0.2283  0.5752
 8919TIP3   OH248171   5.188   1.017  17.100 -0.3105  0.2044 -0.0412
 8919TIP3    H148172   5.110   1.023  17.154 -1.2746  0.3293 -1.4138
 8919TIP3    H248173   5.259   1.050  17.156 -1.3503  0.7440  0.9800
 8920TIP3   OH248174   6.273   5.841  15.604 -0.2039  0.1833 -0.2172
 8920TIP3    H148175   6.247   5.836  15.696 -0.5227  1.3475 -0.2326
 8920TIP3    H248176   6.324   5.922  15.599 -0.0241  0.0171 -1.0270
 8921TIP3   OH248177   2.871   2.393   2.299  0.5523  0.2350  1.0395
 8921TIP3    H148178   2.880   2.451   2.223  0.4284  0.7261  1.3942
 8921TIP3    H248179   2.776   2.380   2.309  0.6240 -0.9135  0.3049
 8922TIP3   OH248180   3.883   5.986   1.565  0.0583  0.2437 -0.0420
 8922TIP3    H148181   3.953   5.948   1.618 -2.0144 -0.9504  1.9113
 8922TIP3    H248182   3.870   6.074   1.602 -0.0702  0.1410  0.1562
 8923TIP3   OH248183   5.021   1.258   4.990  0.0254 -0.1079  0.3162
 8923TIP3    H148184   4.987   1.331   4.939  0.0664 -0.4297 -0.1830
 8923TIP3    H248185   5.060   1.298   5.068  0.1354  0.4032  0.0001
 8924TIP3   OH248186   6.604   3.215  11.748  0.8848 -0.0799  0.0112
 8924TIP3    H148187   6.570   3.148  11.689  0.9181 -0.8675  0.8796
 8924TIP3    H248188   6.698   3.198  11.753  0.8105 -0.2948  0.6500
 8925TIP3   OH248189   2.481   5.300   6.709 -0.4154  0.4444  0.2527
 8925TIP3    H148190   2.390   5.299   6.739 -0.5716  0.8104 -0.2117
 8925TIP3    H248191   2.523   5.367   6.764 -0.6978  1.1038 -0.3261
 8926TIP3   OH248192   0.502   1.272  16.625  0.6278  0.2100 -0.0788
 8926TIP3    H148193   0.443   1.339  16.659 -0.7703 -1.3312  0.6092
 8926TIP3    H248194   0.565   1.258  16.696 -1.3720 -1.8976  1.4011
 8927TIP3   OH248195   3.046   0.710   3.096  0.0956  0.1470 -0.2615
 8927TIP3    H148196   3.134   0.727   3.062  0.2278 -1.0816 -0.5773
 8927TIP3    H248197   3.052   0.623   3.135 -0.4845  0.8821  1.4827
 8928TIP3   OH248198   5.847   1.434  16.621  0.2673  0.0989 -0.2152
 8928TIP3    H148199   5.841   1.530  16.615 -1.7596  0.0695  1.0112
 8928TIP3    H248200   5.773   1.408  16.675  2.0868 -2.0097  1.3813
 8929TIP3   OH248201   3.199   6.196  13.375 -0.1666 -0.5381  0.0897
 8929TIP3    H148202   3.140   6.242  13.434  0.7524 -0.6209  1.0998
 8929TIP3    H248203   3.280   6.247  13.377  0.6119 -1.7605  0.6526
 8930TIP3   OH248204   1.222   0.390   5.333  0.5246 -0.5300  0.7097
 8930TIP3    H148205   1.209   0.379   5.239 -1.6597 -1.1447  1.0640
 8930TIP3    H248206   1.274   0.314   5.358 -0.8359 -1.6000  0.3639
 8931TIP3   OH248207   6.461   3.709  11.852 -0.7033 -0.0538 -0.2535
 8931TIP3    H148208   6.416   3.746  11.776  0.1720  0.1735 -0.6592
 8931TIP3    H248209   6.479   3.618  11.827 -1.7957 -0.4246  0.2852
 8932TIP3   OH248210   2.406   5.729  12.787 -0.0146 -0.2726  0.4093
 8932TIP3    H148211   2.433   5.816  12.757 -1.5385  0.6825  1.7452
 8932TIP3    H248212   2.474   5.703  12.850 -0.0186  0.3462  0.6744
 8933TIP3   OH248213   5.159   2.700  11.434  0.1911 -0.3056 -0.2370
 8933TIP3    H148214   5.071   2.736  11.423  0.2075 -0.1780  0.0342
 8933TIP3    H248215   5.150   2.638  11.507 -0.1379 -1.8990 -1.6086
 8934TIP3   OH248216   3.045   4.556   2.006 -0.2622 -0.1916  0.1305
 8934TIP3    H148217   2.984   4.495   2.047 -1.0126  1.8919  2.2097
 8934TIP3    H248218   3.010   4.643   2.025  0.8787  0.9544 -2.6168
 8935TIP3   OH248219   6.351   3.784   3.273  0.5937 -0.0867 -0.1748
 8935TIP3    H148220   6.439   3.753   3.250  0.2070 -2.2639  1.0810
 8935TIP3    H248221   6.355   3.797   3.368  0.7477  3.9504 -0.6614
 8936TIP3   OH248222   5.382   3.212   0.493  0.0179  0.4319  0.5317
 8936TIP3    H148223   5.402   3.138   0.436 -0.6286 -0.5712  1.5817
 8936TIP3    H248224   5.468   3.248   0.517  0.2921  0.8275 -1.0109
 8937TIP3   OH248225   1.389   5.068  15.830 -0.5868  0.7383 -0.0867
 8937TIP3    H148226   1.342   5.142  15.867  0.3366  0.8786  0.8229
 8937TIP3    H248227   1.428   5.023  15.905 -0.5424 -0.2515 -0.6894
 8938TIP3   OH248228   4.009   5.289  13.584 -0.0394  0.8008  0.1289
 8938TIP3    H148229   4.102   5.297  13.561 -0.2695 -4.1249 -3.4285
 8938TIP3    H248230   3.963   5.315  13.504 -1.5120 -0.6886  0.4684
 8939TIP3   OH248231   2.174   0.861  16.788  0.5086 -0.7601 -0.3705
 8939TIP3    H148232   2.157   0.914  16.866 -0.7086 -0.7825 -0.6097
 8939TIP3    H248233   2.268   0.843  16.791  0.3564 -1.3700  1.4855
 8940TIP3   OH248234   2.305   2.826   1.276  0.4319 -0.4092 -0.0178
 8940TIP3    H148235   2.259   2.746   1.251 -0.6703 -0.1850  1.2269
 8940TIP3    H248236   2.254   2.861   1.350  0.4206  1.8576 -1.0326
 8941TIP3   OH248237   0.637   2.455   0.018 -0.3393 -0.1001 -0.4779
 8941TIP3    H148238   0.548   2.483  -0.004 -0.3190 -0.4052 -0.9490
 8941TIP3    H248239   0.634   2.360   0.013  0.0429 -0.1045 -0.5941
 8942TIP3   OH248240   0.648   2.712   2.711  0.5568 -0.2019  0.3081
 8942TIP3    H148241   0.561   2.674   2.719 -1.1342  3.2786 -0.8277
 8942TIP3    H248242   0.668   2.708   2.617  0.5286  1.3023  0.2294
 8943TIP3   OH248243   2.748   6.258  11.593 -0.1515 -0.1541  0.2090
 8943TIP3    H148244   2.691   6.334  11.583 -1.1285 -1.2972 -4.4793
 8943TIP3    H248245   2.834   6.290  11.566 -0.3318 -0.3577 -0.6508
 8944TIP3   OH248246   4.348   0.478  15.846 -0.4347  0.2370 -0.7066
 8944TIP3    H148247   4.275   0.500  15.788  0.1892  0.6085 -1.3717
 8944TIP3    H248248   4.361   0.384  15.833 -2.0793 -0.2482  0.9372
 8945TIP3   OH248249   3.865   2.047   0.680 -0.5087 -0.6804  0.0845
 8945TIP3    H148250   3.882   2.114   0.746 -0.3105  1.3696 -1.9904
 8945TIP3    H248251   3.776   2.017   0.699 -1.4866  1.8604 -0.3806
 8946TIP3   OH248252   2.574   5.527  13.857 -0.6710  0.5252 -0.5186
 8946TIP3    H148253   2.482   5.520  13.882  0.2152  0.8953  3.2069
 8946TIP3    H248254   2.611   5.590  13.919  2.1781  0.0787 -1.6629
 8947TIP3   OH248255   3.059   5.601   2.259  0.5365  0.5358  0.1042
 8947TIP3    H148256   3.141   5.586   2.305  1.1037 -0.4035 -1.2064
 8947TIP3    H248257   2.991   5.585   2.324  1.4034  2.3418  1.4848
 8948TIP3   OH248258   5.496   4.285   5.247  0.4824 -0.1020  0.1263
 8948TIP3    H148259   5.568   4.280   5.184  0.8972 -0.8342  0.6548
 8948TIP3    H248260   5.441   4.357   5.214 -0.2639 -1.6043 -2.0616
 8949TIP3   OH248261   2.554   3.160  13.479 -0.2611 -0.2934  0.0680
 8949TIP3    H148262   2.547   3.108  13.559 -1.5336 -1.6164 -0.8825
 8949TIP3    H248263   2.616   3.112  13.424  0.6674  0.6494  0.2876
 8950TIP3   OH248264   0.725   2.755  12.416 -0.2099  0.3261 -0.0279
 8950TIP3    H148265   0.739   2.806  12.496 -1.7116  1.9573 -0.7932
 8950TIP3    H248266   0.656   2.801  12.369  1.0642 -0.2945 -2.5741
 8951TIP3   OH248267   3.203   1.451  16.563  0.0628  0.4624 -0.1766
 8951TIP3    H148268   3.108   1.455  16.552  0.3385  2.0480 -2.3336
 8951TIP3    H248269   3.237   1.448  16.474  2.1205  2.3926  0.4934
 8952TIP3   OH248270   4.688   4.574   5.093  0.6587 -0.3973 -0.7798
 8952TIP3    H148271   4.687   4.532   5.179 -0.5784 -0.1290 -0.6553
 8952TIP3    H248272   4.706   4.666   5.111 -0.7972 -0.1152 -0.6900
 8953TIP3   OH248273   4.510   0.059   0.686  0.0395  0.0003  0.0907
 8953TIP3    H148274   4.438   0.001   0.710 -0.8329  1.5039  1.2161
 8953TIP3    H248275   4.491   0.140   0.733  1.1879  1.2203 -1.5136
 8954TIP3   OH248276   4.567   5.503   2.682 -0.4017 -0.8901 -0.3727
 8954TIP3    H148277   4.603   5.462   2.604  0.6398 -0.9808  0.1370
 8954TIP3    H248278   4.602   5.593   2.680 -1.1101 -0.6164 -0.4891
 8955TIP3   OH248279   3.796   3.201  13.589 -0.0004  0.2383 -0.1688
 8955TIP3    H148280   3.834   3.177  13.504 -0.3557  0.7418 -0.4804
 8955TIP3    H248281   3.871   3.228  13.642 -0.0219  2.7135 -1.2804
 8956TIP3   OH248282   3.131   1.228  17.221  0.0076 -0.5968  0.0995
 8956TIP3    H148283   3.102   1.143  17.253  0.1941 -0.2150  1.3404
 8956TIP3    H248284   3.226   1.222  17.220  0.1259  0.3223  2.3636
 8957TIP3   OH248285   5.407   3.439   3.981  0.4358 -0.1564  0.4035
 8957TIP3    H148286   5.445   3.397   4.058 -1.6514  0.3013  1.7137
 8957TIP3    H248287   5.435   3.531   3.987  0.5932 -0.2041  0.3993
 8958TIP3   OH248288   1.112   1.790   4.224  0.3108  0.1248  0.0378
 8958TIP3    H148289   1.110   1.758   4.134 -2.9906  1.0294 -0.2717
 8958TIP3    H248290   1.148   1.716   4.274 -1.0321 -1.6781 -1.5526
 8959TIP3   OH248291   2.018   2.325   5.580 -0.2748 -0.0122 -0.5551
 8959TIP3    H148292   2.114   2.324   5.585 -0.3613 -1.4698  1.8084
 8959TIP3    H248293   1.996   2.256   5.517  0.2312 -0.1805 -0.5500
 8960TIP3   OH248294   6.621   6.544   4.508  0.4611  0.8897 -0.4925
 8960TIP3    H148295   6.645   6.637   4.500  0.4209  0.8899 -0.6139
 8960TIP3    H248296   6.676   6.499   4.444  2.4987  0.4720  1.4966
 8961TIP3   OH248297   3.090   2.827  10.617  0.4322 -0.0732  0.5882
 8961TIP3    H148298   3.157   2.805  10.682  4.0540  1.8476 -2.3459
 8961TIP3    H248299   3.085   2.922  10.618  0.7197 -0.0015 -2.1011
 8962TIP3   OH248300   2.792   3.656   3.171  0.3515 -0.0944  0.5800
 8962TIP3    H148301   2.863   3.598   3.197  2.1264  1.1123 -1.4053
 8962TIP3    H248302   2.754   3.614   3.093  0.0711  0.1990  0.5560
 8963TIP3   OH248303   4.515   1.748   5.428 -0.7892 -0.1179 -0.0002
 8963TIP3    H148304   4.456   1.732   5.354 -0.3153 -0.6868 -0.2687
 8963TIP3    H248305   4.588   1.687   5.413 -1.2454 -1.0908  1.5598
 8964TIP3   OH248306   3.992   2.639   2.179 -0.5957 -0.0374 -0.0402
 8964TIP3    H148307   3.942   2.651   2.260 -0.3948  1.0206 -0.0635
 8964TIP3    H248308   4.046   2.718   2.173 -0.8671  0.0507 -1.3928
 8965TIP3   OH248309   2.166   3.088   1.149  0.4673 -0.2899  0.0102
 8965TIP3    H148310   2.186   2.994   1.150 -0.4207 -0.4844  0.7802
 8965TIP3    H248311   2.169   3.113   1.242  0.2569  0.3344 -0.1538
 8966TIP3   OH248312   1.149   0.106   1.586 -0.0958  0.4611 -0.2525
 8966TIP3    H148313   1.057   0.096   1.612 -0.2037 -0.0277 -0.8251
 8966TIP3    H248314   1.152   0.191   1.542 -0.4163  0.1726 -0.8417
 8967TIP3   OH248315   4.561   3.572   0.919  0.0498 -0.3111  0.5341
 8967TIP3    H148316   4.547   3.576   0.824 -0.4471 -1.6519  0.5453
 8967TIP3    H248317   4.645   3.528   0.930  0.3723  0.3428  0.7046
 8968TIP3   OH248318   3.756   6.081  14.088  0.5834  0.2524  0.2948
 8968TIP3    H148319   3.793   6.119  14.168 -1.0306 -1.3193  1.8410
 8968TIP3    H248320   3.662   6.074  14.106  0.3565 -1.1411 -1.3173
 8969TIP3   OH248321   0.515   4.523   2.327  0.5645  0.2372  0.4645
 8969TIP3    H148322   0.440   4.525   2.386  1.2411 -1.9020  1.4601
 8969TIP3    H248323   0.580   4.580   2.370  1.4710 -2.1756  2.4821
 8970TIP3   OH248324   1.126   2.476   3.843 -0.6391 -0.2276  0.1136
 8970TIP3    H148325   1.109   2.559   3.888 -0.5115 -0.1808  0.0792
 8970TIP3    H248326   1.222   2.470   3.841 -0.6398 -0.1548 -0.2815
 8971TIP3   OH248327   5.764   2.677  13.638  0.6100 -0.1038  0.4346
 8971TIP3    H148328   5.677   2.683  13.596  1.4587 -0.5213 -1.4480
 8971TIP3    H248329   5.818   2.631  13.573  2.1043 -0.3244  1.8204
 8972TIP3   OH248330   4.381   3.033   3.968  0.9164  0.1219  0.0675
 8972TIP3    H148331   4.384   2.938   3.974 -1.0901 -0.0605 -1.2397
 8972TIP3    H248332   4.472   3.061   3.978  1.4007 -1.8618  1.4081
 8973TIP3   OH248333   2.040   4.353  15.983 -0.4011 -0.5954  0.2446
 8973TIP3    H148334   1.978   4.374  16.053  0.5087  0.5743  0.7117
 8973TIP3    H248335   2.126   4.365  16.023  0.1407 -2.0311 -0.4486
 8974TIP3   OH248336   5.347   1.824  15.349 -0.3959  0.8273  0.1166
 8974TIP3    H148337   5.421   1.852  15.295  0.0197  0.4794  0.4954
 8974TIP3    H248338   5.367   1.857  15.436 -0.8585  1.0238  0.1501
 8975TIP3   OH248339   5.393   4.862  13.357 -0.4170  0.2760  0.2260
 8975TIP3    H148340   5.387   4.793  13.291 -0.1574  0.9463 -0.4971
 8975TIP3    H248341   5.466   4.917  13.329 -0.8074  1.0157  0.6390
 8976TIP3   OH248342   2.045   1.018   1.084  0.2052  0.2492  0.3690
 8976TIP3    H148343   2.074   0.931   1.059 -0.8445  0.5522 -2.0674
 8976TIP3    H248344   2.018   1.059   1.002 -2.3730  1.7244  1.8737
 8977TIP3   OH248345   6.517   2.810  13.085  0.2625  0.2285 -0.6379
 8977TIP3    H148346   6.438   2.794  13.033  0.3382 -1.2794 -0.3029
 8977TIP3    H248347   6.541   2.724  13.120  1.6605  0.7886 -0.1769
 8978TIP3   OH248348   6.642   1.947  11.006  0.0495 -0.3744 -0.3512
 8978TIP3    H148349   6.602   1.876  11.057 -0.9227 -0.1894 -0.8332
 8978TIP3    H248350   6.646   1.913  10.917  0.5957 -0.2275 -0.3846
 8979TIP3   OH248351   1.105   4.914   2.446  0.6115 -0.0845  0.3510
 8979TIP3    H148352   1.080   4.843   2.387 -0.2867  0.8052 -0.3533
 8979TIP3    H248353   1.025   4.935   2.494  0.9808  0.1594  0.8619
 8980TIP3   OH248354   0.848   1.889  15.250  0.4342  0.2019  0.0483
 8980TIP3    H148355   0.775   1.863  15.193  0.2002  0.3782  0.2654
 8980TIP3    H248356   0.852   1.985  15.240  0.9407  0.1437 -0.3284
 8981TIP3   OH248357   5.218   2.204   4.563 -0.0547 -0.0246  0.1354
 8981TIP3    H148358   5.142   2.160   4.525 -0.1523  0.3438 -0.1000
 8981TIP3    H248359   5.198   2.209   4.657  0.5716 -1.6880  0.3631
 8982TIP3   OH248360   5.937   0.586   5.590 -0.3209  0.2593 -0.7478
 8982TIP3    H148361   5.868   0.642   5.555 -0.5500  0.5037  0.0847
 8982TIP3    H248362   5.891   0.515   5.634 -0.0754  1.3770  1.3573
 8983TIP3   OH248363   4.340   5.751  16.735  0.3267  0.3181  0.4165
 8983TIP3    H148364   4.271   5.689  16.759  0.1116  0.9021  1.3706
 8983TIP3    H248365   4.393   5.760  16.815  2.5860 -1.4928 -0.8391
 8984TIP3   OH248366   2.594   4.370  16.789  0.1732 -0.2835 -0.0809
 8984TIP3    H148367   2.539   4.300  16.825  0.2612  0.5750  1.7722
 8984TIP3    H248368   2.546   4.450  16.809  0.8411  0.2923 -0.7823
 8985TIP3   OH248369   5.694   0.742  17.208 -0.1580 -0.3485 -0.3197
 8985TIP3    H148370   5.662   0.812  17.152  1.7055  0.6476 -0.1862
 8985TIP3    H248371   5.689   0.777  17.297  2.8517  0.4970 -0.4356
 8986TIP3   OH248372   1.402   0.601  12.319  0.4117  0.2732  0.2950
 8986TIP3    H148373   1.328   0.608  12.258  0.4463  1.1525  0.3480
 8986TIP3    H248374   1.479   0.615  12.265  0.4522  0.8698  0.5029
 8987TIP3   OH248375   4.520   2.335  11.943  0.1675  0.3367  0.2322
 8987TIP3    H148376   4.461   2.333  12.018  0.0312 -1.7945  0.0996
 8987TIP3    H248377   4.482   2.271  11.881  3.1480 -1.8965  0.5815
 8988TIP3   OH248378   0.812   4.854  13.239 -0.2589  0.1971 -0.1928
 8988TIP3    H148379   0.843   4.939  13.210 -0.8060  0.3359 -0.3796
 8988TIP3    H248380   0.729   4.842  13.194 -0.2538 -0.3728 -0.0575
 8989TIP3   OH248381   2.354   2.651  14.011  0.1044 -0.0493 -0.2848
 8989TIP3    H148382   2.332   2.666  13.919 -0.2812  1.8909  0.1184
 8989TIP3    H248383   2.340   2.735  14.054  0.7342 -0.8131  1.4759
 8990TIP3   OH248384   6.416   0.974  13.882 -0.3911 -0.2407  0.5001
 8990TIP3    H148385   6.421   0.985  13.977  0.5232  2.8649  0.1417
 8990TIP3    H248386   6.496   1.012  13.849 -1.6277  0.5587 -1.6768
 8991TIP3   OH248387   0.748   4.928   2.120 -0.2148  0.1965 -0.0014
 8991TIP3    H148388   0.803   4.932   2.042 -0.4890 -1.4746 -0.3100
 8991TIP3    H248389   0.661   4.908   2.087 -0.1867 -1.2788  0.7597
 8992TIP3   OH248390   5.360   2.096   3.934 -0.0847  0.2189  0.2113
 8992TIP3    H148391   5.444   2.134   3.957 -0.5275  2.0480 -1.0473
 8992TIP3    H248392   5.295   2.157   3.970 -0.8056  0.8259 -2.0455
 8993TIP3   OH248393   6.410   5.324   2.187 -0.6784  0.5840 -0.2982
 8993TIP3    H148394   6.404   5.414   2.216 -1.4875  0.9928 -1.6708
 8993TIP3    H248395   6.344   5.316   2.118 -1.2612 -1.2970  0.4157
 8994TIP3   OH248396   2.434   1.921  15.986 -0.3120  0.4077 -1.0805
 8994TIP3    H148397   2.388   1.838  16.002  0.7981  0.1116  0.7185
 8994TIP3    H248398   2.516   1.895  15.944 -0.0154  0.6064 -0.6240
 8995TIP3   OH248399   4.987   3.965  14.443  0.4527  0.4450  0.1096
 8995TIP3    H148400   5.042   4.024  14.391  2.0368 -1.3367 -0.2823
 8995TIP3    H248401   5.023   3.970  14.532  0.6231  0.0326  0.0648
 8996TIP3   OH248402   1.162   1.079   5.065  0.0797 -0.4478  0.3546
 8996TIP3    H148403   1.213   1.010   5.023 -2.0094 -2.6691  1.3344
 8996TIP3    H248404   1.107   1.114   4.996  1.6181  0.7287 -0.2976
 8997TIP3   OH248405   1.293   1.814  13.251 -0.2427 -0.4535 -0.2775
 8997TIP3    H148406   1.199   1.828  13.264  0.4511  2.5991  2.1658
 8997TIP3    H248407   1.317   1.871  13.178  0.2682  1.3883  1.2882
 8998TIP3   OH248408   1.935   3.696   2.651 -0.1400 -0.3080  0.6514
 8998TIP3    H148409   1.955   3.699   2.558 -3.6792 -0.8288 -0.2143
 8998TIP3    H248410   2.006   3.645   2.690  1.7388  0.5009 -1.6200
 8999TIP3   OH248411   3.523   5.759   5.930 -0.2923 -0.1861  0.6861
 8999TIP3    H148412   3.507   5.696   6.000  0.7172 -2.1104 -0.7677
 8999TIP3    H248413   3.608   5.735   5.895 -0.1293  1.6831 -0.2581
 9000TIP3   OH248414   5.420   5.613   2.701 -0.4914 -0.6836  0.3073
 9000TIP3    H148415   5.426   5.579   2.612 -0.1909 -0.8908  0.4048
 9000TIP3    H248416   5.508   5.603   2.736 -0.6071 -0.5929  0.6247
 9001TIP3   OH248417   3.334   5.626  13.905  0.0852 -0.2998 -0.5015
 9001TIP3    H148418   3.296   5.697  13.853 -0.8467  0.1690  0.7986
 9001TIP3    H248419   3.269   5.608  13.973  1.4573 -0.6474  0.7398
 9002TIP3   OH248420   0.314   4.038   3.748 -0.1781  0.0060 -0.1569
 9002TIP3    H148421   0.402   4.051   3.712  0.0412  1.1780  0.7748
 9002TIP3    H248422   0.313   4.091   3.828 -1.1829 -1.3106  0.7141
 9003TIP3   OH248423   4.264   5.206  14.876  1.2670  0.2067  0.1832
 9003TIP3    H148424   4.211   5.243  14.806  1.1390 -1.1309 -0.4395
 9003TIP3    H248425   4.351   5.196  14.838  0.5511 -3.1744 -0.7590
 9004TIP3   OH248426   4.393   2.752   3.999 -0.4121 -0.6467  0.6189
 9004TIP3    H148427   4.461   2.735   3.934  1.6221 -0.1946  2.5715
 9004TIP3    H248428   4.327   2.684   3.982  0.0304 -0.5114 -1.9120
 9005TIP3   OH248429   5.940   0.205  15.334 -0.3360 -0.1114  0.3219
 9005TIP3    H148430   5.905   0.294  15.335 -0.5286 -0.1411 -1.8180
 9005TIP3    H248431   5.863   0.148  15.336 -0.2124 -0.2513  1.7087
 9006TIP3   OH248432   3.562   6.609   5.745 -0.1361  0.0917 -0.2914
 9006TIP3    H148433   3.490   6.637   5.689 -0.2583  0.9069  0.2641
 9006TIP3    H248434   3.605   6.690   5.772 -0.0618 -0.2916  0.7763
 9007TIP3   OH248435   2.277   1.127   2.649  0.1676  0.5019 -0.2704
 9007TIP3    H148436   2.241   1.211   2.679 -2.4567 -0.0770 -1.6081
 9007TIP3    H248437   2.365   1.149   2.617 -0.2560  2.6551 -0.0661
 9008TIP3   OH248438   3.577   0.529  16.108 -0.2254 -0.3411  0.2847
 9008TIP3    H148439   3.569   0.521  16.203 -0.1304  0.1953  0.3384
 9008TIP3    H248440   3.631   0.453  16.082 -1.4248 -1.2717  0.4869
 9009TIP3   OH248441   4.565   3.478   5.391 -0.3482  0.0542 -0.0956
 9009TIP3    H148442   4.622   3.518   5.457 -1.6868  0.7335  0.6765
 9009TIP3    H248443   4.580   3.384   5.400 -1.2262  0.0881  1.8409
 9010TIP3   OH248444   2.405   3.433  16.663  0.1422  0.1742 -0.5159
 9010TIP3    H148445   2.446   3.422  16.749 -0.6482  0.9269 -0.0380
 9010TIP3    H248446   2.477   3.454  16.604  0.8928 -1.7720 -0.3257
 9011TIP3   OH248447   0.010   6.160   4.964  0.0972 -0.0362 -0.3354
 9011TIP3    H148448   0.074   6.093   4.989 -0.5562 -0.7768 -0.6055
 9011TIP3    H248449  -0.069   6.137   5.012  0.0106  0.8373 -0.0551
 9012TIP3   OH248450   5.102   5.552  16.034  0.1164  0.6234 -0.1851
 9012TIP3    H148451   5.154   5.518  15.961  0.2157 -1.5589  0.8372
 9012TIP3    H248452   5.026   5.495  16.037 -1.6635  2.9085 -0.7631
 9013TIP3   OH248453   6.128   1.096   4.769 -0.1115  0.7580 -0.4557
 9013TIP3    H148454   6.152   1.110   4.677 -1.2526  2.6619 -0.4904
 9013TIP3    H248455   6.212   1.101   4.816  0.2696  1.6094 -1.1988
 9014TIP3   OH248456   5.016   4.624   1.696  0.0696 -0.1826 -0.1879
 9014TIP3    H148457   5.065   4.563   1.639  0.6121  1.6839 -1.7679
 9014TIP3    H248458   5.077   4.645   1.767  0.2367 -0.7123 -0.1714
 9015TIP3   OH248459   6.691   5.179  15.931  0.6151  0.3024 -0.4188
 9015TIP3    H148460   6.679   5.113  15.862 -1.1499  0.7921 -0.6181
 9015TIP3    H248461   6.785   5.183  15.945  0.7885 -1.7611 -0.8949
 9016TIP3   OH248462   0.359   5.393   1.658  0.2851  0.0663 -0.1431
 9016TIP3    H148463   0.300   5.395   1.583  0.0375 -1.2910  0.0063
 9016TIP3    H248464   0.405   5.309   1.651  1.4072  0.6232  0.3486
 9017TIP3   OH248465   3.746   1.200   2.781  0.3841 -0.8423 -0.7308
 9017TIP3    H148466   3.699   1.149   2.847  1.9428 -0.6393  0.5572
 9017TIP3    H248467   3.736   1.150   2.700 -1.7665 -0.9561 -0.4153
 9018TIP3   OH248468   4.500   0.804   1.261 -0.1492  0.0993  0.5397
 9018TIP3    H148469   4.437   0.749   1.308 -0.4847 -0.6409 -0.7356
 9018TIP3    H248470   4.575   0.811   1.319 -0.8242 -0.2376  1.4593
 9019TIP3   OH248471   5.415   1.336   3.438  0.2696  0.6936 -0.1671
 9019TIP3    H148472   5.488   1.392   3.463 -0.0745  1.2538 -0.4034
 9019TIP3    H248473   5.442   1.248   3.463  0.6756  1.0113  0.5154
 9020TIP3   OH248474   0.207   1.795   2.797 -0.4660  0.3921  0.5390
 9020TIP3    H148475   0.148   1.823   2.727 -2.6040 -1.8012  1.4169
 9020TIP3    H248476   0.286   1.766   2.751 -1.0867  0.7860 -0.8247
 9021TIP3   OH248477   2.794   6.476   2.484  0.2794  0.7889 -0.3670
 9021TIP3    H148478   2.814   6.481   2.390 -0.3073 -0.2794 -0.5510
 9021TIP3    H248479   2.700   6.455   2.487  0.1496  1.4522  0.4671
 9022TIP3   OH248480   6.340   4.188  12.763 -0.3087 -0.2875  0.0091
 9022TIP3    H148481   6.433   4.172  12.779 -0.1029  1.1154  0.3031
 9022TIP3    H248482   6.320   4.140  12.683  0.3246 -1.7427  0.7180
 9023TIP3   OH248483   3.925   0.540  16.050 -0.3844 -0.1577  0.2572
 9023TIP3    H148484   3.861   0.536  16.121 -0.0884 -0.8498  0.4927
 9023TIP3    H248485   4.003   0.497  16.086 -0.2790 -0.6344 -0.5322
 9024TIP3   OH248486   0.975   5.980  14.299 -0.0134 -0.0460  0.5657
 9024TIP3    H148487   0.900   6.020  14.344 -1.5485 -1.3752 -0.7420
 9024TIP3    H248488   1.017   5.927  14.367 -1.5580 -1.0319  0.7810
 9025TIP3   OH248489   2.662   1.265  12.862 -0.2376 -0.3432  0.2451
 9025TIP3    H148490   2.654   1.172  12.840 -1.0707 -0.3074  0.3905
 9025TIP3    H248491   2.601   1.309  12.803  0.3155  0.1335  0.0332
 9026TIP3   OH248492   2.662   5.767  12.531 -0.1326 -0.0653 -0.4703
 9026TIP3    H148493   2.623   5.855  12.529  0.8487  0.3688 -0.9681
 9026TIP3    H248494   2.590   5.708  12.509 -0.1674  0.8370 -2.9131
 9027TIP3   OH248495   0.347   1.375   1.002  0.2536 -0.0058  0.4866
 9027TIP3    H148496   0.341   1.415   0.915  1.4687 -0.6036  0.1285
 9027TIP3    H248497   0.356   1.449   1.062 -2.0532  0.5004  0.2584
 9028TIP3   OH248498   1.523   5.960  14.464 -0.1713 -0.0076 -0.6834
 9028TIP3    H148499   1.578   5.942  14.541 -0.4861  1.1444 -0.1727
 9028TIP3    H248500   1.580   5.940  14.389  0.5880  0.1183 -0.1513
 9029TIP3   OH248501   6.742   1.399   0.511  0.2644 -0.1505  0.3281
 9029TIP3    H148502   6.692   1.447   0.576  0.5708 -0.0399  0.4798
 9029TIP3    H248503   6.834   1.415   0.533  0.3712 -0.1754 -0.0810
 9030TIP3   OH248504   5.115   3.744  13.318 -0.2649 -0.2880 -0.2022
 9030TIP3    H148505   5.085   3.803  13.249  0.1445  0.9314  0.6333
 9030TIP3    H248506   5.196   3.706  13.285  1.5044  2.5132  0.7454
 9031TIP3   OH248507   1.213   4.673   2.086 -0.3178 -0.2083  0.0669
 9031TIP3    H148508   1.162   4.637   2.013 -1.0595  0.6022  0.1785
 9031TIP3    H248509   1.210   4.768   2.073  0.5171 -0.1222  0.5031
 9032TIP3   OH248510   0.308   3.182  16.269  0.1713  0.3493  0.1783
 9032TIP3    H148511   0.392   3.227  16.273  0.8220 -0.7753 -0.3918
 9032TIP3    H248512   0.285   3.182  16.176 -0.7624  1.2053  0.4099
 9033TIP3   OH248513   3.290   0.147   1.150  0.1495 -0.1236  0.4316
 9033TIP3    H148514   3.285   0.241   1.131 -1.0898  0.1574  2.1278
 9033TIP3    H248515   3.368   0.138   1.204  0.0550 -0.0211  0.5846
 9034TIP3   OH248516   5.837   1.818   2.023 -0.5553  0.1738 -0.2714
 9034TIP3    H148517   5.851   1.799   1.930  2.2932  0.5000  0.0226
 9034TIP3    H248518   5.816   1.911   2.026 -1.4739 -0.0167 -0.6394
 9035TIP3   OH248519   3.878   2.168  11.802 -0.1230  0.9000 -0.7617
 9035TIP3    H148520   3.875   2.155  11.708  0.3857 -0.4925 -0.6031
 9035TIP3    H248521   3.968   2.195  11.820  1.1953 -3.4170 -0.1855
 9036TIP3   OH248522   0.460   6.674   3.035  0.5015 -0.1915  0.0263
 9036TIP3    H148523   0.495   6.587   3.055  0.8739 -0.1602 -0.4802
 9036TIP3    H248524   0.447   6.672   2.940  1.0827  0.5271 -0.0644
 9037TIP3   OH248525   0.981   3.729   5.915 -0.0852 -0.0773 -0.0445
 9037TIP3    H148526   0.978   3.816   5.955  3.1034  0.2283 -0.3607
 9037TIP3    H248527   1.053   3.684   5.959  1.0350 -1.0661 -2.7611
 9038TIP3   OH248528   3.313   0.232  14.828  0.1506  0.5056  0.0022
 9038TIP3    H148529   3.239   0.248  14.887  0.1607 -0.6116  0.3230
 9038TIP3    H248530   3.286   0.272  14.745 -1.6527 -1.5536 -0.4391
 9039TIP3   OH248531   0.192   4.142   2.885 -0.1293  0.3400  0.1120
 9039TIP3    H148532   0.219   4.233   2.895 -1.8956  0.9769 -0.7284
 9039TIP3    H248533   0.116   4.133   2.942  0.7153 -0.9225  1.0544
 9040TIP3   OH248534   0.268   0.062   0.853 -0.2461  0.6784  0.4312
 9040TIP3    H148535   0.251  -0.023   0.893  0.5445  0.9085  1.2787
 9040TIP3    H248536   0.243   0.126   0.920  1.4098  1.0670  0.7041
 9041TIP3   OH248537   1.346   2.271  12.103 -0.3843 -0.4292 -0.1286
 9041TIP3    H148538   1.322   2.361  12.079 -0.5180 -1.3513 -3.7332
 9041TIP3    H248539   1.263   2.230  12.128 -0.5963 -0.0475 -0.1945
 9042TIP3   OH248540   0.420   3.927  11.995  0.4567 -0.4957  0.4337
 9042TIP3    H148541   0.475   3.909  12.071 -0.2650  1.5811  1.4887
 9042TIP3    H248542   0.335   3.888  12.017  0.4714 -0.5634  0.3700
 9043TIP3   OH248543   4.564   5.183  12.608  0.2108 -0.2391 -0.4591
 9043TIP3    H148544   4.560   5.243  12.682 -0.0845 -1.5140  0.5566
 9043TIP3    H248545   4.503   5.113  12.630 -1.2711  0.2690 -2.7094
 9044TIP3   OH248546   3.531   4.546   4.254  0.5411  0.1416  0.0190
 9044TIP3    H148547   3.445   4.526   4.291  0.5678  0.6472  0.3534
 9044TIP3    H248548   3.513   4.596   4.175  0.5602  1.4329  0.8154
 9045TIP3   OH248549   0.296   5.582   5.066 -0.2821  0.8471  0.1897
 9045TIP3    H148550   0.365   5.517   5.059  0.9063  2.1454 -0.2860
 9045TIP3    H248551   0.252   5.561   5.148 -0.0068 -0.6273 -0.0171
 9046TIP3   OH248552   3.302   0.744  14.112 -0.5302 -0.4659 -0.2146
 9046TIP3    H148553   3.361   0.768  14.184  0.0929  0.1957 -0.9443
 9046TIP3    H248554   3.344   0.777  14.034 -0.9013 -1.7369 -0.9730
 9047TIP3   OH248555   4.739   0.701   0.922 -0.1672 -0.0607 -0.2031
 9047TIP3    H148556   4.787   0.706   0.840 -1.4658 -0.7360 -1.0274
 9047TIP3    H248557   4.799   0.657   0.982  0.5528 -0.1343 -0.9692
 9048TIP3   OH248558   0.635   0.423   2.639 -0.0541 -0.4117 -0.5835
 9048TIP3    H148559   0.606   0.412   2.549 -0.9085  2.0368 -0.6363
 9048TIP3    H248560   0.696   0.498   2.636  1.0011 -1.1869  0.6417
 9049TIP3   OH248561   0.189   2.972  15.670 -0.3070  0.5114  0.2442
 9049TIP3    H148562   0.267   2.984  15.725  0.2903 -1.0872 -0.2436
 9049TIP3    H248563   0.174   2.878  15.668 -1.4258  0.6922 -0.8227
 9050TIP3   OH248564   0.517   1.600  15.881  0.3346 -0.2857 -0.0444
 9050TIP3    H148565   0.460   1.572  15.953  2.0830  2.1615  2.4211
 9050TIP3    H248566   0.598   1.549  15.893 -0.0927 -1.3321 -1.5166
 9051TIP3   OH248567   2.935   0.843   0.851 -0.0596 -0.3218  0.3802
 9051TIP3    H148568   2.955   0.914   0.911  0.0828  1.1609 -1.3631
 9051TIP3    H248569   2.854   0.804   0.885 -0.0568  0.5823  1.4343
 9052TIP3   OH248570   1.496   4.414  13.940 -0.2619  0.0599 -0.3956
 9052TIP3    H148571   1.498   4.440  14.032 -0.7634  1.6157 -0.8085
 9052TIP3    H248572   1.409   4.377  13.926  0.0918 -0.9181 -0.0606
 9053TIP3   OH248573   3.527   6.561   2.852  0.6117  0.3010 -0.1974
 9053TIP3    H148574   3.469   6.503   2.901  0.6384 -0.3568 -0.9280
 9053TIP3    H248575   3.468   6.624   2.810  0.1697 -1.7077 -2.7516
 9054TIP3   OH248576   5.426   3.198  12.107 -0.1708  0.7098  0.2455
 9054TIP3    H148577   5.373   3.273  12.132  0.3372  0.9673  0.5646
 9054TIP3    H248578   5.380   3.159  12.032 -1.2367  0.4463  1.0206
 9055TIP3   OH248579   3.253   0.026   6.988 -0.7033  0.4269  0.3834
 9055TIP3    H148580   3.185   0.071   6.937 -1.3261 -2.0555 -1.0553
 9055TIP3    H248581   3.283  -0.045   6.931  1.5580  0.1348  1.8728
 9056TIP3   OH248582   1.431   0.633   2.236 -0.5195  0.5309  0.4789
 9056TIP3    H148583   1.479   0.714   2.220 -1.1405  1.1182  1.5561
 9056TIP3    H248584   1.491   0.579   2.288 -0.4772  0.7019  0.6087
 9057TIP3   OH248585   3.737   4.540   4.431 -0.3119 -0.0009  0.1919
 9057TIP3    H148586   3.717   4.557   4.523 -1.5428 -3.7427  0.7272
 9057TIP3    H248587   3.652   4.541   4.387  0.0606 -0.0694 -0.5495
 9058TIP3   OH248588   4.085   6.316  16.287 -0.1662 -0.1366 -0.1588
 9058TIP3    H148589   3.996   6.337  16.261  0.0854  1.6157  0.3734
 9058TIP3    H248590   4.126   6.400  16.305  0.9644 -1.0506  1.7000
 9059TIP3   OH248591   2.199   2.016  16.732 -0.2278 -0.3476  0.1598
 9059TIP3    H148592   2.184   1.966  16.812  0.9610  0.6200  1.0117
 9059TIP3    H248593   2.176   2.106  16.755  3.0268  0.4864  0.3650
 9060TIP3   OH248594   2.671   6.652  14.058 -0.5116  0.1111 -0.2917
 9060TIP3    H148595   2.726   6.611  13.991  3.1417 -0.4269  2.8646
 9060TIP3    H248596   2.616   6.580  14.090 -0.0930 -0.3516 -0.5937
 9061TIP3   OH248597   4.261   3.186  15.614 -0.4290 -0.2413 -0.5079
 9061TIP3    H148598   4.292   3.258  15.559  0.1712 -0.2823 -0.2206
 9061TIP3    H248599   4.266   3.109  15.559  0.1609 -0.2803 -0.3995
 9062TIP3   OH248600   3.628   1.715  13.740  0.1866  0.2952  0.2830
 9062TIP3    H148601   3.604   1.634  13.695  1.8748  0.1045 -0.3191
 9062TIP3    H248602   3.556   1.732  13.800 -0.9974 -0.7260 -0.8163
 9063TIP3   OH248603   1.155   3.030   2.043 -0.8265 -0.0121  0.1789
 9063TIP3    H148604   1.182   2.939   2.035 -1.2570 -0.2935  1.9067
 9063TIP3    H248605   1.091   3.031   2.114 -1.5051  1.4895 -0.4244
 9064TIP3   OH248606   3.144   2.155   3.512 -0.2963 -0.2636  0.3630
 9064TIP3    H148607   3.073   2.219   3.517 -0.7555 -0.7553  0.2010
 9064TIP3    H248608   3.224   2.207   3.516 -0.6534  0.1844  2.1170
 9065TIP3   OH248609   0.633   6.404  16.217  0.2167  0.0003 -0.0085
 9065TIP3    H148610   0.706   6.343  16.209  1.4901  1.3987  0.5737
 9065TIP3    H248611   0.675   6.490  16.227 -1.5114  0.8608  0.0436
 9066TIP3   OH248612   6.062   2.600  16.296 -0.1208 -0.3712  0.6103
 9066TIP3    H148613   5.969   2.576  16.299 -0.8493  2.2801  0.4850
 9066TIP3    H248614   6.085   2.615  16.388 -0.2984  0.6100  0.5064
 9067TIP3   OH248615   4.748   2.279  14.772 -0.3590 -1.2064  0.3224
 9067TIP3    H148616   4.722   2.346  14.709 -1.1545  0.0498  1.9420
 9067TIP3    H248617   4.836   2.252  14.743  0.3965  1.2370  0.1980
 9068TIP3   OH248618   5.484   5.195  14.068  1.1095  0.5210  0.7816
 9068TIP3    H148619   5.455   5.206  14.158 -0.4903  2.5705  0.0745
 9068TIP3    H248620   5.573   5.230  14.066  2.1488 -1.9034  2.0686
 9069TIP3   OH248621   5.837   2.439   5.026  0.0181 -0.2670  0.2580
 9069TIP3    H148622   5.894   2.500   5.073 -1.8589  3.1610 -1.7720
 9069TIP3    H248623   5.773   2.411   5.092 -1.0859  2.5624  0.4525
 9070TIP3   OH248624   5.146   1.975   5.636 -0.1642  0.1378  0.4462
 9070TIP3    H148625   5.228   1.945   5.675  0.0889  0.1764 -0.0569
 9070TIP3    H248626   5.131   2.062   5.675  0.0804  0.1723  0.4613
 9071TIP3   OH248627   5.037   3.338   1.516  0.0389  0.1128  0.0809
 9071TIP3    H148628   5.102   3.285   1.563  0.1796  0.7402  0.6147
 9071TIP3    H248629   4.962   3.343   1.576 -0.0575  0.3248 -0.0576
 9072TIP3   OH248630   5.486   4.577  13.696  0.2293  0.3745 -0.0311
 9072TIP3    H148631   5.404   4.598  13.651  1.1974 -0.3719 -2.2444
 9072TIP3    H248632   5.494   4.645  13.763 -1.1417  1.7277 -1.1822
 9073TIP3   OH248633   0.873   1.198  15.143  0.8105  0.3783  0.1896
 9073TIP3    H148634   0.968   1.206  15.135  0.8001  0.4701  0.1604
 9073TIP3    H248635   0.853   1.232  15.230  0.6084  2.0159 -0.4864
 9074TIP3   OH248636   3.389   1.327   1.380 -0.1821  0.1207  0.5037
 9074TIP3    H148637   3.317   1.277   1.419  0.1929 -0.2437  0.7334
 9074TIP3    H248638   3.417   1.387   1.449 -1.7257  1.8412 -0.3010
 9075TIP3   OH248639   5.573   4.447  13.906 -0.5081  0.7190  0.1459
 9075TIP3    H148640   5.560   4.477  13.816 -1.4674  0.1152  0.0706
 9075TIP3    H248641   5.591   4.353  13.897  1.1824  0.9975  0.4632
 9076TIP3   OH248642   2.644   0.346   4.915 -0.5480  0.0110 -0.4794
 9076TIP3    H148643   2.597   0.404   4.975 -0.1869 -1.9108  1.7615
 9076TIP3    H248644   2.603   0.260   4.927  0.2196 -0.6322 -2.2470
 9077TIP3   OH248645   3.617   3.805  14.899  0.3285 -0.0052  0.0309
 9077TIP3    H148646   3.677   3.787  14.972 -1.3990 -0.2543  1.4172
 9077TIP3    H248647   3.656   3.880  14.854  1.7266 -0.2105  0.8569
 9078TIP3   OH248648   3.800   0.111   4.703 -0.3921  0.0782  0.5960
 9078TIP3    H148649   3.857   0.144   4.772  1.7267  0.0840 -1.0976
 9078TIP3    H248650   3.768   0.027   4.736 -1.4270  1.2415  2.6188
 9079TIP3   OH248651   1.156   4.302   2.008 -0.1124  0.3014 -0.6817
 9079TIP3    H148652   1.085   4.265   1.957 -0.0262 -2.4181  1.0843
 9079TIP3    H248653   1.114   4.339   2.085  0.3771 -1.9878  0.7450
 9080TIP3   OH248654   1.975   1.158   2.828 -0.1701 -0.0203  0.3350
 9080TIP3    H148655   2.056   1.207   2.818 -0.2447  0.1861  0.7546
 9080TIP3    H248656   1.912   1.221   2.864 -0.6689 -0.0292 -0.5005
 9081TIP3   OH248657   1.126   0.876   6.439  0.4545 -0.1238  0.2213
 9081TIP3    H148658   1.166   0.818   6.504  1.3370  0.0728 -0.1463
 9081TIP3    H248659   1.039   0.895   6.475  0.2483 -1.4752  0.4625
 9082TIP3   OH248660   5.891   4.948   5.526 -0.1709 -0.1624 -0.0307
 9082TIP3    H148661   5.836   5.026   5.531  1.2433  0.8379 -0.0990
 9082TIP3    H248662   5.895   4.928   5.432  1.2597  0.9692 -0.2195
 9083TIP3   OH248663   4.484   6.769   2.035 -0.2600  0.2239 -0.0146
 9083TIP3    H148664   4.530   6.787   2.118 -0.7320 -0.1349  0.3255
 9083TIP3    H248665   4.417   6.706   2.058  0.8083 -1.3107 -1.0361
 9084TIP3   OH248666   1.143   6.037   0.890  0.4253  0.0508  0.5746
 9084TIP3    H148667   1.080   5.969   0.915  1.5861 -0.6163  1.7492
 9084TIP3    H248668   1.164   6.017   0.799 -0.5487 -0.1247  0.3811
 9085TIP3   OH248669   0.376   2.662   0.249  0.3978 -0.7994 -0.5725
 9085TIP3    H148670   0.311   2.731   0.265 -0.9017 -1.8309 -1.3404
 9085TIP3    H248671   0.336   2.582   0.282  2.2277 -1.0875  1.0405
 9086TIP3   OH248672   4.207   3.398  12.574  0.1720 -0.0572  0.1494
 9086TIP3    H148673   4.267   3.420  12.645 -0.8046 -2.0319  1.6064
 9086TIP3    H248674   4.120   3.401  12.613 -0.4110 -0.8174 -1.0527
 9087TIP3   OH248675   5.640   5.578   0.836 -0.2118 -0.3230 -0.2993
 9087TIP3    H148676   5.713   5.518   0.852 -0.7590 -0.6981  0.8124
 9087TIP3    H248677   5.682   5.663   0.820  0.4015  0.0233  2.8513
 9088TIP3   OH248678   2.183   6.244  11.790  0.1609 -0.2242  0.0649
 9088TIP3    H148679   2.137   6.181  11.846  0.7002 -0.1009  0.6534
 9088TIP3    H248680   2.126   6.321  11.789 -0.0752 -0.3978  0.0672
 9089TIP3   OH248681   4.062   5.821   3.057 -0.2448  0.4894 -0.3042
 9089TIP3    H148682   4.018   5.747   3.100 -0.2488  0.1914 -0.8131
 9089TIP3    H248683   4.155   5.801   3.064 -0.2631  0.1717 -0.8967
 9090TIP3   OH248684   4.616   0.556   2.917  0.0674 -0.1155  0.2029
 9090TIP3    H148685   4.565   0.588   2.992  0.3120  1.6327 -0.3487
 9090TIP3    H248686   4.583   0.607   2.843  1.6267  0.0251 -0.4067
 9091TIP3   OH248687   3.971   5.185   1.314 -0.2679  0.1526 -0.1028
 9091TIP3    H148688   4.048   5.202   1.260 -0.5427 -1.9659 -1.2291
 9091TIP3    H248689   4.003   5.130   1.386 -0.2277  1.5426  0.9581
 9092TIP3   OH248690   6.014   6.170  15.370 -0.1203  1.0285  0.2979
 9092TIP3    H148691   6.094   6.125  15.398  0.0478  2.2907  1.9157
 9092TIP3    H248692   6.040   6.220  15.294 -0.0288 -0.6715 -0.8194
 9093TIP3   OH248693   3.359   4.012   5.235 -0.0689 -0.0145  0.2489
 9093TIP3    H148694   3.387   4.040   5.147  0.5787  0.5189  0.6149
 9093TIP3    H248695   3.407   3.930   5.250 -1.8453 -1.2802 -0.7614
 9094TIP3   OH248696   3.250   4.408   0.613 -0.0158  0.0098  0.3499
 9094TIP3    H148697   3.333   4.445   0.643  0.4704 -0.3887 -0.4931
 9094TIP3    H248698   3.184   4.473   0.639  0.7484  1.1480 -0.5139
 9095TIP3   OH248699   5.791   3.029   3.333  0.3805  0.2188  0.0481
 9095TIP3    H148700   5.729   3.042   3.262  0.0531  0.7906  0.4306
 9095TIP3    H248701   5.811   3.118   3.363  0.9817  0.0117  0.2663
 9096TIP3   OH248702   1.816   6.294  16.906 -0.2626 -0.2384 -0.3880
 9096TIP3    H148703   1.820   6.221  16.968 -0.6837 -0.3376 -0.4745
 9096TIP3    H248704   1.808   6.252  16.820 -0.2326 -0.0982 -0.4614
 9097TIP3   OH248705   3.774   6.121   6.307 -0.5988  0.3477 -0.3885
 9097TIP3    H148706   3.749   6.140   6.397  1.3453 -2.1100  0.7392
 9097TIP3    H248707   3.847   6.180   6.289  0.7602 -0.9841  0.6170
 9098TIP3   OH248708   1.128   5.639  11.245 -0.0492  0.0580  0.3279
 9098TIP3    H148709   1.082   5.582  11.307 -1.5001  0.5750 -0.2399
 9098TIP3    H248710   1.085   5.622  11.161  1.4347 -0.1283 -0.4046
 9099TIP3   OH248711   1.966   5.901  16.335  0.0407  0.3158  0.3664
 9099TIP3    H148712   2.042   5.959  16.334  0.6297 -0.4508  0.0700
 9099TIP3    H248713   1.964   5.865  16.423 -0.5830  1.1072  0.6869
 9100TIP3   OH248714   1.931   0.375  15.203  0.6549  0.1778 -0.4847
 9100TIP3    H148715   1.886   0.303  15.248  0.7261  0.5329  0.1704
 9100TIP3    H248716   2.019   0.343  15.188  0.5668 -0.0264 -0.5595
 9101TIP3   OH248717   2.836   1.670  13.095  0.1945  0.2025  0.0666
 9101TIP3    H148718   2.804   1.645  13.182  0.6668  0.3353  0.2809
 9101TIP3    H248719   2.874   1.589  13.060  0.1346  0.1848  0.0437
 9102TIP3   OH248720   0.797   3.086   3.305  0.6251 -0.8494  0.3332
 9102TIP3    H148721   0.718   3.093   3.251  1.0690 -0.6599 -0.3087
 9102TIP3    H248722   0.869   3.094   3.242  1.1613  0.6899  1.1070
 9103TIP3   OH248723   5.325   3.431   4.600 -0.0467  0.0146 -0.3313
 9103TIP3    H148724   5.360   3.476   4.523 -2.8327  1.9401 -0.5523
 9103TIP3    H248725   5.328   3.338   4.578  3.3934  0.2126 -0.9229
 9104TIP3   OH248726   1.942   2.659   2.663  0.0836  0.1949  1.1135
 9104TIP3    H148727   2.012   2.725   2.662 -0.0657  0.3488  0.9085
 9104TIP3    H248728   1.963   2.603   2.738  0.6416  0.0106  0.8221
 9105TIP3   OH248729   1.241   1.750  16.939  0.1904  0.7786  0.2012
 9105TIP3    H148730   1.309   1.817  16.941  1.3665 -0.4093  0.8275
 9105TIP3    H248731   1.160   1.798  16.926  1.0701  2.2824  0.2111
 9106TIP3   OH248732   1.625   1.877   2.867 -0.6590  0.4026  0.0202
 9106TIP3    H148733   1.706   1.895   2.915 -0.4273 -0.6825  0.0452
 9106TIP3    H248734   1.615   1.952   2.808  1.2789 -0.2369 -1.1784
 9107TIP3   OH248735   1.242   1.893   2.149 -0.5764 -0.2724  0.2346
 9107TIP3    H148736   1.182   1.868   2.079 -1.0692  3.5321 -0.7919
 9107TIP3    H248737   1.195   1.960   2.199  1.0377 -0.5916  2.2731
 9108TIP3   OH248738   3.948   2.458  17.063  0.0640 -0.1625  0.5537
 9108TIP3    H148739   4.015   2.391  17.079  1.4562  0.8389 -0.9072
 9108TIP3    H248740   3.975   2.499  16.981 -1.6550  1.1291  0.6138
 9109TIP3   OH248741   5.079   0.026   5.388  0.0866 -0.4391 -0.5201
 9109TIP3    H148742   4.993   0.019   5.428  0.6268 -0.6411  0.6350
 9109TIP3    H248743   5.140  -0.003   5.456  1.0222 -0.8732 -1.5120
 9110TIP3   OH248744   6.483   6.305  16.702 -0.3647  0.1278 -0.2704
 9110TIP3    H148745   6.430   6.340  16.631  0.2222  0.6126 -0.4691
 9110TIP3    H248746   6.507   6.217  16.674  0.6651  0.6669 -1.1035
 9111TIP3   OH248747   5.748   5.647  12.831 -0.0594 -0.0372  0.2944
 9111TIP3    H148748   5.695   5.656  12.911 -1.1486  0.7041 -0.5027
 9111TIP3    H248749   5.704   5.702  12.767  1.4374  0.2307 -0.5188
 9112TIP3   OH248750   4.314   6.728  11.469 -0.5767  0.1516 -0.1382
 9112TIP3    H148751   4.219   6.741  11.470 -0.4362  1.1778  0.0620
 9112TIP3    H248752   4.347   6.797  11.413 -0.0172 -0.7351 -0.9013
 9113TIP3   OH248753   4.403   4.357  10.931  0.9839  0.3474 -0.0962
 9113TIP3    H148754   4.399   4.316  11.017  2.2330 -2.5335 -1.3515
 9113TIP3    H248755   4.332   4.317  10.881  0.6704  1.5263 -0.6211
 9114TIP3   OH248756   2.845   6.052   1.703 -0.2109  0.1526  0.3988
 9114TIP3    H148757   2.901   5.989   1.748  0.3170  1.7809  2.1176
 9114TIP3    H248758   2.891   6.071   1.622  0.7599 -0.0028  0.9047
 9115TIP3   OH248759   6.784   4.696   3.470 -0.4190 -0.0900  0.0309
 9115TIP3    H148760   6.741   4.611   3.480 -0.2259  0.0252  2.2953
 9115TIP3    H248761   6.715   4.754   3.437 -1.0023 -0.7648  0.0530
 9116TIP3   OH248762   6.081   0.225  16.697 -0.1588  0.3920  0.3489
 9116TIP3    H148763   5.991   0.233  16.730  0.7814 -1.2495  3.5542
 9116TIP3    H248764   6.120   0.311  16.712 -0.2383  0.1393  2.0452
 9117TIP3   OH248765   4.397   3.363  15.048  0.5629  0.3718 -0.0766
 9117TIP3    H148766   4.464   3.384  15.112  0.6667 -0.3355  0.0550
 9117TIP3    H248767   4.323   3.420  15.070 -0.1073 -1.1963  1.8685
 9118TIP3   OH248768   1.272   4.908  13.408  0.0003  0.2358 -0.1080
 9118TIP3    H148769   1.279   4.816  13.383 -0.5264  0.5348 -1.3404
 9118TIP3    H248770   1.325   4.955  13.344 -1.0705  0.9659 -0.4703
 9119TIP3   OH248771   4.103   0.669   4.230 -0.1799 -0.2381  0.0528
 9119TIP3    H148772   4.131   0.735   4.166 -1.4044 -0.8500 -1.1377
 9119TIP3    H248773   4.080   0.593   4.176 -2.3764 -0.3545  1.1383
 9120TIP3   OH248774   3.487   4.699  13.674 -0.4978 -0.1341  0.1646
 9120TIP3    H148775   3.448   4.612  13.662  0.3619 -0.3620 -1.0870
 9120TIP3    H248776   3.414   4.754  13.703 -1.2702 -1.0587  0.0210
 9121TIP3   OH248777   6.082   6.037   2.991  0.3933  0.2310 -1.0262
 9121TIP3    H148778   5.996   5.994   2.993 -0.4555  1.7963 -2.3216
 9121TIP3    H248779   6.119   6.012   2.907 -0.3101  2.3517 -2.0040
 9122TIP3   OH248780   3.215   0.644   1.102 -0.0006 -0.0814 -0.0480
 9122TIP3    H148781   3.125   0.631   1.131  0.2260 -1.0034  0.2295
 9122TIP3    H248782   3.208   0.653   1.006 -0.3604 -0.3560 -0.0462
 9123TIP3   OH248783   4.720   3.328  12.908  0.2040 -0.4112  0.0015
 9123TIP3    H148784   4.656   3.270  12.869 -0.5368 -0.0669  0.6975
 9123TIP3    H248785   4.697   3.415  12.875 -0.7846 -0.0266  1.6206
 9124TIP3   OH248786   5.624   4.768  10.923 -0.5545 -0.7441 -0.1995
 9124TIP3    H148787   5.710   4.778  10.881 -0.6950  0.8701 -0.1426
 9124TIP3    H248788   5.643   4.772  11.017 -0.7178 -0.1007 -0.1918
 9125TIP3   OH248789   3.520   3.063   2.484 -0.2516  0.2735 -0.0243
 9125TIP3    H148790   3.518   3.140   2.427 -0.5571 -0.1682 -0.6192
 9125TIP3    H248791   3.596   3.013   2.455 -0.6953 -0.2014 -0.3787
 9126TIP3   OH248792   6.578   2.151  10.412 -0.0178 -0.0377 -0.3908
 9126TIP3    H148793   6.643   2.087  10.441 -0.9022 -0.4572  0.7124
 9126TIP3    H248794   6.501   2.133  10.466 -0.2902  1.9241 -0.0906
 9127TIP3   OH248795   6.426   4.823  12.961 -0.3336  0.2644  0.1890
 9127TIP3    H148796   6.456   4.914  12.958  1.7745 -0.3904  0.2517
 9127TIP3    H248797   6.464   4.788  13.042  2.1983 -1.7337 -1.7561
 9128TIP3   OH248798   1.372   0.604   4.190 -0.1602  0.1836 -0.3909
 9128TIP3    H148799   1.462   0.586   4.165 -0.0588 -2.1356  1.5185
 9128TIP3    H248800   1.378   0.638   4.279 -1.0134  2.3116 -1.1066
 9129TIP3   OH248801   6.733   0.846  16.454  0.1193 -0.7957 -0.8362
 9129TIP3    H148802   6.697   0.913  16.396  0.0396  1.5498  1.7891
 9129TIP3    H248803   6.821   0.877  16.474 -0.5029 -0.5606  1.7168
 9130TIP3   OH248804   5.816   2.954  15.742  0.7387 -0.2379  0.2851
 9130TIP3    H148805   5.891   2.999  15.781  0.2183 -0.5274  1.6531
 9130TIP3    H248806   5.775   2.908  15.815  0.1645 -1.4007 -0.7430
 9131TIP3   OH248807   2.916   4.243   2.498  0.1941 -0.1387  0.7797
 9131TIP3    H148808   2.921   4.255   2.593  0.1704  1.5795  0.5802
 9131TIP3    H248809   2.988   4.184   2.478 -0.9898 -2.0766  2.0999
 9132TIP3   OH248810   4.419   2.351  13.230 -0.0411  0.2120 -0.1484
 9132TIP3    H148811   4.454   2.265  13.253  1.1715  0.7181 -0.0511
 9132TIP3    H248812   4.497   2.405  13.215 -0.7906  0.8771 -1.7750
 9133TIP3   OH248813   4.707   3.424  15.793 -0.5027  0.9267 -0.7112
 9133TIP3    H148814   4.620   3.409  15.756 -0.9282 -0.0183  0.6536
 9133TIP3    H248815   4.692   3.484  15.866  0.0394  1.0031 -0.6617
 9134TIP3   OH248816   0.141   1.127   0.634  0.1049 -0.2585 -0.2315
 9134TIP3    H148817   0.063   1.099   0.587  0.2931 -1.4881  0.1781
 9134TIP3    H248818   0.110   1.191   0.698 -0.4145  0.0130 -0.7539
 9135TIP3   OH248819   5.602   5.112   5.986  0.6926 -0.4863  0.1786
 9135TIP3    H148820   5.526   5.168   5.969  0.1404 -0.8445  1.4271
 9135TIP3    H248821   5.648   5.109   5.902  0.0076  0.7467 -0.2616
 9136TIP3   OH248822   0.278   0.114  13.724  0.0551  0.6144 -0.3052
 9136TIP3    H148823   0.251   0.049  13.659 -0.5475  0.7117 -0.1551
 9136TIP3    H248824   0.374   0.111  13.722  0.0501 -1.2123  0.6315
 9137TIP3   OH248825   3.821   2.765  16.835  0.2693  0.1218 -0.1094
 9137TIP3    H148826   3.895   2.803  16.790  0.2182 -0.3130 -0.5666
 9137TIP3    H248827   3.820   2.807  16.921  0.9611  0.2237 -0.1524
 9138TIP3   OH248828   2.852   4.228  16.211  0.1136 -0.4463  0.1984
 9138TIP3    H148829   2.859   4.159  16.278  1.2572 -0.4629  0.0683
 9138TIP3    H248830   2.779   4.200  16.156  0.2938 -1.3356  0.4023
 9139TIP3   OH248831   2.347   6.258   1.199 -0.2000 -0.5274  0.0264
 9139TIP3    H148832   2.355   6.173   1.242 -0.0764 -0.4085  0.2382
 9139TIP3    H248833   2.295   6.311   1.260  1.2397  0.1063  0.7126
 9140TIP3   OH248834   5.291   1.797  13.442 -0.2154  0.1741  0.2975
 9140TIP3    H148835   5.303   1.744  13.521 -1.9589  0.4385  0.7697
 9140TIP3    H248836   5.370   1.782  13.391 -1.0486 -3.5903 -0.0244
 9141TIP3   OH248837   3.669   1.562  12.657 -0.2435 -0.1386  0.3832
 9141TIP3    H148838   3.614   1.640  12.649  0.6471  0.3171 -1.6043
 9141TIP3    H248839   3.748   1.584  12.607  1.6903 -0.8279  3.0382
 9142TIP3   OH248840   0.357   1.954   0.579  0.0012 -0.5454  0.2122
 9142TIP3    H148841   0.290   1.899   0.618 -0.9334  0.6311  0.3003
 9142TIP3    H248842   0.348   2.038   0.624  0.4449  0.1134 -0.9173
 9143TIP3   OH248843   0.616   4.302   5.454  0.3865  0.1211  0.1944
 9143TIP3    H148844   0.562   4.339   5.524 -0.1883 -2.9377  1.4610
 9143TIP3    H248845   0.698   4.351   5.459  0.2175  0.2333  2.7835
 9144TIP3   OH248846   3.288   2.005  14.317 -0.3735 -0.7377 -0.2033
 9144TIP3    H148847   3.370   1.974  14.279 -1.2904 -3.2368 -0.2744
 9144TIP3    H248848   3.224   1.938  14.292 -1.6172 -0.9105  3.2141
 9145TIP3   OH248849   6.491   1.697   4.298 -0.3596  0.2176 -0.2464
 9145TIP3    H148850   6.396   1.697   4.281 -0.8763  0.5494  2.3690
 9145TIP3    H248851   6.524   1.620   4.252 -2.1927 -0.8824  0.2284
 9146TIP3   OH248852   3.300   2.218  14.121  0.2745  0.0665  0.4054
 9146TIP3    H148853   3.293   2.142  14.179 -0.0944 -1.7113 -1.8650
 9146TIP3    H248854   3.385   2.257  14.143  0.5166 -1.0577  1.5441
 9147TIP3   OH248855   1.120   2.434   4.341 -0.2554 -0.1696  0.1311
 9147TIP3    H148856   1.028   2.433   4.368  0.0776 -0.7439  1.2586
 9147TIP3    H248857   1.122   2.378   4.263 -0.7417 -0.7506  0.5220
 9148TIP3   OH248858   0.511   4.250  13.597  0.3047  0.3083  0.4956
 9148TIP3    H148859   0.561   4.274  13.519 -0.5998  1.5940  0.3014
 9148TIP3    H248860   0.419   4.261  13.571 -0.0036  0.6073  1.6906
 9149TIP3   OH248861   6.048   2.566  15.589  0.1632  0.2060  0.3291
 9149TIP3    H148862   5.964   2.593  15.554 -0.0713 -0.1491  0.6154
 9149TIP3    H248863   6.065   2.480  15.550  1.0506  0.8845 -0.8121
 9150TIP3   OH248864   2.500   3.923   0.178  0.0161  0.3885  0.1867
 9150TIP3    H148865   2.556   3.978   0.233 -0.3966 -0.7943  1.8029
 9150TIP3    H248866   2.481   3.847   0.232 -2.3287  0.3020 -0.7298
 9151TIP3   OH248867   2.158   5.045   3.922 -0.2783 -0.3300 -0.0515
 9151TIP3    H148868   2.155   5.141   3.921  1.1746 -0.2717  0.4841
 9151TIP3    H248869   2.080   5.019   3.873 -1.8772  1.0947  1.6340
 9152TIP3   OH248870   2.278   2.932   0.165 -0.6627  0.4456  0.3320
 9152TIP3    H148871   2.317   2.935   0.077 -1.0608 -1.3538  0.0708
 9152TIP3    H248872   2.338   2.982   0.220 -0.7947  2.2134 -1.1029
 9153TIP3   OH248873   2.372   0.786  16.291  0.1981 -0.2396  0.3056
 9153TIP3    H148874   2.324   0.721  16.241 -2.1227  0.7489  1.2010
 9153TIP3    H248875   2.361   0.867  16.241  1.7872 -0.1765  0.0061
 9154TIP3   OH248876   4.171   5.153   3.088  0.1809 -0.3230 -0.0331
 9154TIP3    H148877   4.257   5.111   3.087  0.2638 -0.1476 -1.0312
 9154TIP3    H248878   4.121   5.106   3.155  1.2276 -0.0731  0.9355
 9155TIP3   OH248879   5.310   2.687  13.258 -0.2201 -0.3506  1.0455
 9155TIP3    H148880   5.306   2.771  13.213  0.2253 -0.4185  0.8741
 9155TIP3    H248881   5.385   2.643  13.219 -0.4409 -0.8195  1.1502
 9156TIP3   OH248882   2.459   2.759   5.076 -0.1566 -0.6702  0.0008
 9156TIP3    H148883   2.387   2.796   5.126  0.1662  0.4817 -0.3826
 9156TIP3    H248884   2.416   2.706   5.008 -0.6078 -1.3296  0.7934
 9157TIP3   OH248885   3.691   6.249  11.696  0.8335  0.0988  0.2466
 9157TIP3    H148886   3.672   6.327  11.643 -0.8335 -0.5193 -0.0941
 9157TIP3    H248887   3.703   6.179  11.632  1.6291 -0.0665  0.5800
 9158TIP3   OH248888   6.225   0.419   5.180  0.1628 -0.5568 -0.5220
 9158TIP3    H148889   6.152   0.359   5.168  1.3460 -1.5171 -3.3420
 9158TIP3    H248890   6.231   0.431   5.275 -2.6546 -1.6484 -0.1655
 9159TIP3   OH248891   1.715   2.719   4.752 -0.0100 -0.0906 -0.1679
 9159TIP3    H148892   1.758   2.657   4.694  3.7276  1.0526  1.1723
 9159TIP3    H248893   1.743   2.805   4.720 -1.7252  0.7468  0.5085
 9160TIP3   OH248894   1.337   5.406  11.196 -0.0411 -0.0191  0.2885
 9160TIP3    H148895   1.277   5.481  11.193  1.5515  1.2269 -1.2383
 9160TIP3    H248896   1.319   5.357  11.116  1.0299  0.4262 -0.2387
 9161TIP3   OH248897   0.854   1.256  14.543 -0.1512 -0.1765 -0.0937
 9161TIP3    H148898   0.808   1.298  14.616  0.7786  0.7105 -0.0058
 9161TIP3    H248899   0.946   1.254  14.571 -0.1335 -1.9315 -0.2616
 9162TIP3   OH248900   3.806   1.316  14.090 -0.1567  0.2322 -0.1148
 9162TIP3    H148901   3.811   1.349  14.000 -1.2161  0.4053 -0.1157
 9162TIP3    H248902   3.799   1.395  14.144  0.4838  0.1299  0.1211
 9163TIP3   OH248903   0.285   6.684   1.412 -0.5157 -0.1197 -0.6860
 9163TIP3    H148904   0.338   6.640   1.479 -0.3460 -0.1653 -0.8495
 9163TIP3    H248905   0.212   6.723   1.461  0.1963  0.7840 -0.3331
 9164TIP3   OH248906   0.908   4.432   2.106 -0.2606  0.3652 -0.2210
 9164TIP3    H148907   0.853   4.507   2.128  0.7685  1.8126 -2.4580
 9164TIP3    H248908   0.866   4.393   2.029 -0.1936 -0.7078  0.2802
 9165TIP3   OH248909   5.970   1.353  16.218  0.5424 -0.2502 -0.2923
 9165TIP3    H148910   5.907   1.424  16.209  1.2291  0.2997 -0.8845
 9165TIP3    H248911   6.046   1.382  16.167  1.4814 -0.6524  0.8604
 9166TIP3   OH248912   4.290   2.043  10.439 -0.0287  0.1253 -0.1395
 9166TIP3    H148913   4.355   2.012  10.502 -0.1872 -0.7321 -0.3915
 9166TIP3    H248914   4.259   1.963  10.395  0.1642  0.7199 -1.3815
 9167TIP3   OH248915   1.151   3.080   3.726  0.1526 -0.1283 -0.2667
 9167TIP3    H148916   1.145   2.990   3.694 -0.4034 -0.1290 -0.1657
 9167TIP3    H248917   1.094   3.130   3.667 -1.3428 -0.2219  1.0624
 9168TIP3   OH248918   4.640   3.166  15.559  0.1324 -0.5178 -0.0389
 9168TIP3    H148919   4.592   3.084  15.553 -2.2346  0.8213 -0.1693
 9168TIP3    H248920   4.593   3.226  15.500  1.2777  1.1500  0.7018
 9169TIP3   OH248921   3.987   3.275   3.363 -0.5232  0.0021  0.2784
 9169TIP3    H148922   4.061   3.318   3.321 -1.2171 -0.0398 -1.0274
 9169TIP3    H248923   4.007   3.182   3.358 -0.8661 -0.0397 -0.5152
 9170TIP3   OH248924   1.086   3.540  12.635 -0.5609 -0.0817 -0.0842
 9170TIP3    H148925   1.173   3.537  12.596 -0.6742 -0.3034 -0.3136
 9170TIP3    H248926   1.095   3.491  12.717 -0.1937  0.8195  0.4224
 9171TIP3   OH248927   5.199   4.254  16.771  0.1353  0.2022 -0.4549
 9171TIP3    H148928   5.248   4.172  16.777  1.9573  1.3632  1.6679
 9171TIP3    H248929   5.108   4.228  16.761  0.8900 -2.0542 -1.6143
 9172TIP3   OH248930   3.546   3.722   4.275 -0.0920 -0.5167  0.5367
 9172TIP3    H148931   3.569   3.662   4.346  0.2516  0.1517  1.0024
 9172TIP3    H248932   3.476   3.678   4.227 -0.6108 -0.7906  1.5417
 9173TIP3   OH248933   0.632   1.670  12.657 -0.9857 -0.3008  0.2141
 9173TIP3    H148934   0.548   1.685  12.614 -0.5492  0.7021 -0.3107
 9173TIP3    H248935   0.669   1.757  12.670  0.3341 -0.7572 -0.2863
 9174TIP3   OH248936   4.143   2.166  16.394 -0.1507 -0.0421  0.2977
 9174TIP3    H148937   4.109   2.097  16.337 -0.8502  0.1710  0.4548
 9174TIP3    H248938   4.066   2.218  16.416  0.1808  0.0803  1.1554
 9175TIP3   OH248939   6.029   3.465   2.829 -0.1276 -0.2515 -0.0686
 9175TIP3    H148940   5.995   3.554   2.820 -0.8235 -0.5251 -0.2047
 9175TIP3    H248941   6.075   3.449   2.747  0.5448  0.2116  0.2151
 9176TIP3   OH248942   6.496   5.546  16.382  0.0559 -0.0079  0.7355
 9176TIP3    H148943   6.452   5.494  16.448  2.0246 -0.9251  1.3428
 9176TIP3    H248944   6.457   5.518  16.299 -1.5893  0.3263  1.3730
 9177TIP3   OH248945   2.289   5.766   3.670  0.3517 -0.5384 -0.1973
 9177TIP3    H148946   2.284   5.844   3.725 -2.4926  0.4896 -1.8104
 9177TIP3    H248947   2.313   5.798   3.583 -0.6839 -1.4443 -0.8416
 9178TIP3   OH248948   1.602   5.662  14.534  0.2387 -0.5797  0.2923
 9178TIP3    H148949   1.648   5.717  14.471 -0.5282 -0.0512  0.1876
 9178TIP3    H248950   1.568   5.589  14.483  0.3542 -0.6018  0.2470
 9179TIP3   OH248951   5.071   3.991   3.775  0.2717  0.1293 -0.2760
 9179TIP3    H148952   4.979   3.980   3.751  0.4940 -0.1028 -1.0690
 9179TIP3    H248953   5.074   3.976   3.869 -0.5979  0.7608 -0.1446
 9180TIP3   OH248954   1.173   0.686   0.261 -0.0587 -0.3992 -0.0552
 9180TIP3    H148955   1.137   0.751   0.321  0.4093 -0.1858 -0.0073
 9180TIP3    H248956   1.258   0.664   0.297 -0.2796 -1.1473  0.0054
 9181TIP3   OH248957   2.490   5.634   5.205  0.1815  0.2947  0.6715
 9181TIP3    H148958   2.430   5.674   5.141  0.5979  0.0176  0.0967
 9181TIP3    H248959   2.434   5.602   5.275 -0.1496  2.1035  1.2606
 9182TIP3   OH248960   5.328   5.717   6.143 -0.2795  0.6500  0.2267
 9182TIP3    H148961   5.395   5.664   6.187  0.0320  0.4678 -0.4622
 9182TIP3    H248962   5.257   5.655   6.124 -0.8738  0.9425  1.4020
 9183TIP3   OH248963   1.875   3.579   1.847  0.1080 -0.1140 -0.6907
 9183TIP3    H148964   1.837   3.569   1.759 -1.9364 -0.0844  0.1655
 9183TIP3    H248965   1.874   3.673   1.862 -0.2220 -0.1695 -0.3573
 9184TIP3   OH248966   0.125   0.990  15.971 -0.1660 -0.4034  0.1808
 9184TIP3    H148967   0.133   1.030  16.057  1.1048  1.3573 -0.7414
 9184TIP3    H248968   0.193   0.923  15.969  1.0958  0.8604 -0.1416
 9185TIP3   OH248969   1.032   1.294  15.788 -0.4339  0.1078  0.9359
 9185TIP3    H148970   1.057   1.242  15.864 -1.5496 -1.3032  0.3678
 9185TIP3    H248971   1.103   1.356  15.777  1.5294 -2.0535  0.9612
 9186TIP3   OH248972   1.821   6.048  10.519 -0.0916  0.0767 -0.0557
 9186TIP3    H148973   1.855   6.079  10.435  0.5350  3.0297  1.2484
 9186TIP3    H248974   1.896   6.008  10.563  0.1836  0.8390  0.1667
 9187TIP3   OH248975   5.162   2.445  14.171  0.3287  0.2423  0.3789
 9187TIP3    H148976   5.095   2.392  14.216 -0.0457 -0.0029 -0.4463
 9187TIP3    H248977   5.114   2.487  14.100  1.3759 -1.2631 -1.2613
 9188TIP3   OH248978   0.520   6.629   1.852  0.1111 -0.4253 -0.1207
 9188TIP3    H148979   0.433   6.650   1.818 -0.4483 -2.0109  0.2523
 9188TIP3    H248980   0.567   6.594   1.777 -0.1447 -1.1592  0.0564
 9189TIP3   OH248981   3.197   1.668  16.050  0.3021 -0.6083  0.3596
 9189TIP3    H148982   3.150   1.643  16.130  2.9194  0.6919  2.3836
 9189TIP3    H248983   3.265   1.602  16.041  0.0043 -0.7585 -0.8161
 9190TIP3   OH248984   2.358   3.349   0.381  0.4679  0.1814 -0.5682
 9190TIP3    H148985   2.294   3.391   0.323  0.2171 -0.1719 -0.5440
 9190TIP3    H248986   2.332   3.376   0.469 -0.4805 -1.0985 -0.4526
 9191TIP3   OH248987   1.924   4.821  13.095 -0.6056 -0.1132  0.1262
 9191TIP3    H148988   1.960   4.735  13.071  0.6842  0.4397  0.0474
 9191TIP3    H248989   1.942   4.876  13.019  1.7895  1.1518  1.5401
 9192TIP3   OH248990   4.567   4.488  14.317 -0.1158  0.0323 -0.7093
 9192TIP3    H148991   4.549   4.580  14.299 -0.3503  0.5400  1.9138
 9192TIP3    H248992   4.551   4.443  14.234 -1.9334  2.0747 -1.5018
 9193TIP3   OH248993   0.680   4.543   3.495 -0.2850 -0.2373  0.8391
 9193TIP3    H148994   0.698   4.581   3.580  0.0574  0.5430  0.4249
 9193TIP3    H248995   0.757   4.565   3.442 -0.7624 -0.1877  0.1590
 9194TIP3   OH248996   0.525   2.729   3.352 -0.2612  0.0836 -0.4821
 9194TIP3    H148997   0.472   2.780   3.412 -1.3147  2.1257 -3.0642
 9194TIP3    H248998   0.473   2.650   3.335 -0.8475  0.4256 -0.2644
 9195TIP3   OH248999   2.884   0.077  16.376 -0.4186  0.0856 -1.1463
 9195TIP3    H149000   2.843   0.160  16.401  0.4112  0.5215 -1.1950
 9195TIP3    H249001   2.828   0.043  16.306 -0.8202  0.5534 -1.0578
 9196TIP3   OH249002   0.826   2.734  14.571  0.0980  0.0793  0.0138
 9196TIP3    H149003   0.730   2.734  14.568  0.0562  3.5449 -0.7600
 9196TIP3    H249004   0.853   2.709  14.483 -0.0957 -0.1411  0.0157
 9197TIP3   OH249005   1.555   5.507  12.095  0.8926 -0.2048 -0.3717
 9197TIP3    H149006   1.476   5.552  12.065  0.7896  0.3822  0.7209
 9197TIP3    H249007   1.596   5.473  12.016 -0.2712 -0.1996 -0.9776
 9198TIP3   OH249008   5.816   2.104  16.950 -0.0869 -0.3825 -0.1056
 9198TIP3    H149009   5.779   2.114  16.863 -1.6914  0.8876  0.7041
 9198TIP3    H249010   5.813   2.192  16.988  0.7193 -0.8970  1.1923
 9199TIP3   OH249011   2.735   1.150   3.194 -0.1080 -0.5119 -0.1592
 9199TIP3    H149012   2.782   1.070   3.217 -0.3988 -0.3116  1.1569
 9199TIP3    H249013   2.647   1.138   3.232  0.1166  0.7874  0.7898
 9200TIP3   OH249014   3.889   5.592  13.233  0.0473  0.2326  0.3931
 9200TIP3    H149015   3.817   5.653  13.251  1.9740  2.7860 -0.2513
 9200TIP3    H249016   3.881   5.572  13.140 -1.0597 -1.1798  0.7734
 9201TIP3   OH249017   2.716   1.455  13.218 -0.2896 -0.3478  0.0837
 9201TIP3    H149018   2.737   1.385  13.156 -0.3028 -0.4991  0.2493
 9201TIP3    H249019   2.621   1.455  13.223 -0.2512 -1.0612  0.9327
 9202TIP3   OH249020   0.199   1.544   0.841 -0.3455  0.3124 -0.1152
 9202TIP3    H149021   0.127   1.602   0.867 -0.4030  0.2802 -0.1997
 9202TIP3    H249022   0.187   1.534   0.746 -0.3778  0.1063 -0.0887
 9203TIP3   OH249023   4.177   1.714  11.423 -0.1029  0.6995  0.1240
 9203TIP3    H149024   4.231   1.729  11.501 -1.6661  1.0910  1.1479
 9203TIP3    H249025   4.090   1.695  11.458 -0.2115 -1.8741 -1.4331
 9204TIP3   OH249026   0.330   5.081   3.699 -0.1639 -0.3899  0.7236
 9204TIP3    H149027   0.319   4.999   3.748 -1.2642 -0.8901 -0.3247
 9204TIP3    H249028   0.274   5.070   3.622  0.7957  0.7695 -0.1589
 9205TIP3   OH249029   2.760   4.180   1.834 -0.4543 -0.0486 -0.0882
 9205TIP3    H149030   2.798   4.160   1.748  0.6399  0.7830  0.1897
 9205TIP3    H249031   2.813   4.131   1.896  1.3570  2.5278  0.4698
 9206TIP3   OH249032   3.091   5.827   1.231  0.2706  0.1426 -0.0148
 9206TIP3    H149033   3.130   5.746   1.264 -0.0153  0.4985  1.2489
 9206TIP3    H249034   3.153   5.858   1.165  1.2278 -0.2591  0.6729
 9207TIP3   OH249035   6.409   6.693  15.026  0.0018  0.1788 -0.4636
 9207TIP3    H149036   6.349   6.633  14.981  0.7840 -0.1494 -1.0675
 9207TIP3    H249037   6.395   6.778  14.983 -0.3608  0.2039 -0.2970
 9208TIP3   OH249038   4.266   5.476   2.162  0.3108 -0.6740  0.1367
 9208TIP3    H149039   4.305   5.423   2.232  1.0682 -1.2406 -0.7120
 9208TIP3    H249040   4.181   5.435   2.146 -0.0885 -0.2238  1.0923
 9209TIP3   OH249041   6.351   1.791  13.716  0.5671  0.1947  0.4126
 9209TIP3    H149042   6.330   1.837  13.635  0.2304 -1.3331 -0.3818
 9209TIP3    H249043   6.280   1.813  13.776 -1.0814 -1.5098 -0.8761
 9210TIP3   OH249044   2.650   0.736   3.974  0.2638  0.3942  0.3099
 9210TIP3    H149045   2.650   0.823   4.014 -0.6442 -0.6395  2.6576
 9210TIP3    H249046   2.728   0.693   4.010 -0.0487 -0.2245  0.2638
 9211TIP3   OH249047   2.308   4.245   4.544 -0.2981 -0.6726  0.9884
 9211TIP3    H149048   2.355   4.318   4.584 -0.8779 -0.4987  1.3542
 9211TIP3    H249049   2.337   4.168   4.594  0.6827 -0.7749  0.2918
 9212TIP3   OH249050   2.987   2.554  12.576  0.5249  0.0118 -0.2102
 9212TIP3    H149051   2.950   2.580  12.492 -1.1930  0.2255  0.5919
 9212TIP3    H249052   2.926   2.489  12.610  2.1436 -1.3931  0.0828
 9213TIP3   OH249053   4.448   6.289  12.813  0.0410  0.1083 -0.1851
 9213TIP3    H149054   4.487   6.355  12.756 -1.4523  0.6251 -0.6352
 9213TIP3    H249055   4.499   6.293  12.893  1.5789  0.0200 -1.1403
 9214TIP3   OH249056   1.205   2.149  13.215  0.0384 -0.1708  0.0398
 9214TIP3    H149057   1.195   2.067  13.263  1.9996 -0.3315  0.2486
 9214TIP3    H249058   1.124   2.159  13.165 -0.8953 -1.3796  1.2966
 9215TIP3   OH249059   6.027   5.622  11.604  0.3435  0.6383 -0.0891
 9215TIP3    H149060   5.997   5.575  11.682 -2.1916  1.6381 -0.4464
 9215TIP3    H249061   6.080   5.694  11.639  0.5864  0.1158  0.6345
 9216TIP3   OH249062   5.839   6.475  12.066 -0.1631  0.3972  0.0175
 9216TIP3    H149063   5.839   6.382  12.091 -1.6486  0.5166  0.5149
 9216TIP3    H249064   5.748   6.494  12.046  0.6285  0.9252 -3.3138
 9217TIP3   OH249065   5.260   3.069   2.691  0.2670 -0.5984 -0.2795
 9217TIP3    H149066   5.212   3.130   2.747  2.0441  2.3973 -1.9201
 9217TIP3    H249067   5.320   3.024   2.751 -1.9809 -1.7853  1.1647
 9218TIP3   OH249068   0.283   1.159  12.428 -0.2485  0.0568  1.0448
 9218TIP3    H149069   0.201   1.116  12.452 -1.1848  1.1702 -0.0957
 9218TIP3    H249070   0.269   1.251  12.451  0.4361  0.3633  0.2416
 9219TIP3   OH249071   5.799   0.811   4.823  1.0193  0.1815 -0.0504
 9219TIP3    H149072   5.812   0.831   4.916 -0.3248  0.5319  0.0732
 9219TIP3    H249073   5.712   0.772   4.819  1.4796 -0.7570 -1.0357
 9220TIP3   OH249074   0.569   6.395   1.395 -0.1237 -0.5587 -0.0252
 9220TIP3    H149075   0.586   6.420   1.305 -0.0756  0.5814  0.3027
 9220TIP3    H249076   0.575   6.299   1.394 -1.4331 -0.6487 -1.4915
 9221TIP3   OH249077   4.027   4.046   6.407 -0.4081  0.0731  0.2069
 9221TIP3    H149078   4.024   3.950   6.406  2.4758 -0.0621 -1.0079
 9221TIP3    H249079   4.098   4.068   6.346 -1.4599  3.0144 -0.0334
 9222TIP3   OH249080   0.243   3.033  14.244  0.0931 -0.6466  0.2164
 9222TIP3    H149081   0.165   2.999  14.286 -0.1971 -1.0613 -0.6484
 9222TIP3    H249082   0.269   2.965  14.182  0.8256 -0.2804  0.1115
 9223TIP3   OH249083   6.498   2.600   3.718  0.3274 -0.4471  0.4450
 9223TIP3    H149084   6.577   2.574   3.766 -0.1065 -0.9700  0.8674
 9223TIP3    H249085   6.448   2.652   3.780  0.8557  0.8170 -0.1706
 9224TIP3   OH249086   3.770   4.332   5.820 -0.4467  0.3507 -0.1608
 9224TIP3    H149087   3.759   4.353   5.912 -0.2313  0.5510 -0.1808
 9224TIP3    H249088   3.765   4.417   5.775  0.5282  0.3700 -0.2325
 9225TIP3   OH249089   2.674   4.402  17.198 -0.0715  0.1732  0.0718
 9225TIP3    H149090   2.637   4.317  17.224  0.7843 -0.3175 -0.2869
 9225TIP3    H249091   2.719   4.384  17.115 -1.7725  1.4648 -1.1625
 9226TIP3   OH249092   3.435   6.570   3.649 -0.5318 -0.1223  0.2835
 9226TIP3    H149093   3.360   6.624   3.624 -0.0048  1.3609  1.8156
 9226TIP3    H249094   3.431   6.565   3.744  0.3808 -1.4145  0.2688
 9227TIP3   OH249095   2.467   6.435   5.937  0.0465 -0.4881 -0.3246
 9227TIP3    H149096   2.486   6.430   5.843 -0.3585 -0.3321 -0.4169
 9227TIP3    H249097   2.428   6.521   5.949 -0.1246 -0.6032 -0.0528
 9228TIP3   OH249098   0.031   5.460   0.112 -0.5651 -0.0061  0.0064
 9228TIP3    H149099   0.116   5.504   0.119 -0.0050 -1.0662 -0.0586
 9228TIP3    H249100   0.022   5.439   0.019  0.0083 -1.6479  0.3032
 9229TIP3   OH249101   2.506   4.251  15.559  0.2168  0.1464  0.6794
 9229TIP3    H149102   2.500   4.329  15.614  1.2041  0.3457  0.5186
 9229TIP3    H249103   2.418   4.239  15.525  0.1471  1.4460  0.3680
 9230TIP3   OH249104   0.661   3.954   1.573  0.1348  0.4557 -0.0206
 9230TIP3    H149105   0.711   4.035   1.569 -1.0331  1.1949  0.0508
 9230TIP3    H249106   0.572   3.982   1.595 -0.3884 -0.8005 -0.5091
 9231TIP3   OH249107   4.611   2.902  13.657  0.2803  0.4437  0.3280
 9231TIP3    H149108   4.618   2.817  13.612 -0.3205  0.6427 -0.1490
 9231TIP3    H249109   4.517   2.920  13.660  0.3902  0.9594  0.6836
 9232TIP3   OH249110   3.596   2.363   1.475  0.3466  0.3459  0.3128
 9232TIP3    H149111   3.650   2.286   1.458  0.8625  0.4516  1.4193
 9232TIP3    H249112   3.601   2.414   1.394 -1.0412 -1.3900 -0.8840
 9233TIP3   OH249113   6.503   0.003   1.609 -0.4452 -0.0016 -0.6597
 9233TIP3    H149114   6.535   0.040   1.527 -1.5335  0.1995 -0.9988
 9233TIP3    H249115   6.448   0.072   1.647 -1.5000 -0.7980 -0.7107
 9234TIP3   OH249116   5.801   6.044  16.873 -0.1798  0.3221 -0.0398
 9234TIP3    H149117   5.787   5.964  16.822 -1.1447  1.3123 -1.3737
 9234TIP3    H249118   5.735   6.105  16.840  0.5600  1.6766  0.9405
 9235TIP3   OH249119   5.367   5.473  16.617  0.5666  0.3737  0.2080
 9235TIP3    H149120   5.425   5.503  16.546  1.0542 -2.7914 -0.8113
 9235TIP3    H249121   5.289   5.442  16.572  0.3959 -0.5757  1.1531
 9236TIP3   OH249122   5.087   4.636  15.539 -0.0302  0.0982  0.3024
 9236TIP3    H149123   5.155   4.702  15.527  0.6178 -0.8225 -1.2956
 9236TIP3    H249124   5.010   4.673  15.497  0.1945  0.0791 -0.1396
 9237TIP3   OH249125   1.819   2.548   6.091  0.0041 -0.1499 -0.6197
 9237TIP3    H149126   1.789   2.621   6.145  0.9506 -1.3693  1.6349
 9237TIP3    H249127   1.888   2.586   6.037  1.3454  0.3840  1.4036
 9238TIP3   OH249128   6.277   0.294  12.588 -0.5067  0.3345  1.0973
 9238TIP3    H149129   6.361   0.268  12.627  0.4245  0.5941 -0.6844
 9238TIP3    H249130   6.245   0.364  12.644  0.4685  0.2215  1.8067
 9239TIP3   OH249131   5.194   0.816  10.884 -0.4646  0.0783  0.1234
 9239TIP3    H149132   5.194   0.792  10.977 -2.4613  1.7112  0.5921
 9239TIP3    H249133   5.150   0.743  10.840 -0.0272 -0.4346  0.5239
 9240TIP3   OH249134   1.260   6.276  14.531  0.1665  0.1368 -0.1417
 9240TIP3    H149135   1.226   6.365  14.532  0.1784  0.1597 -1.2343
 9240TIP3    H249136   1.355   6.285  14.529  0.2385  0.0766  1.8918
 9241TIP3   OH249137   0.870   3.159   0.667  0.1317  0.0135 -0.1493
 9241TIP3    H149138   0.785   3.135   0.631  0.0593  0.8369 -0.5435
 9241TIP3    H249139   0.861   3.252   0.691  0.6859 -0.0902  0.4741
 9242TIP3   OH249140   5.520   6.775   1.606  0.3368 -0.1960 -0.9214
 9242TIP3    H149141   5.484   6.725   1.680 -0.9872 -0.6058 -1.8233
 9242TIP3    H249142   5.503   6.866   1.628  0.7301 -0.2583 -0.3268
 9243TIP3   OH249143   1.929   3.257  16.908  0.1206 -0.2957 -0.1442
 9243TIP3    H149144   1.918   3.162  16.914  3.1240 -0.8151 -2.0972
 9243TIP3    H249145   1.993   3.270  16.838 -1.4157  3.2666 -1.0293
 9244TIP3   OH249146   2.308   3.397   3.259 -0.5347 -0.0899 -0.0697
 9244TIP3    H149147   2.231   3.408   3.205 -0.6317 -0.1078  0.0644
 9244TIP3    H249148   2.283   3.431   3.345 -0.4001 -0.1087 -0.0214
 9245TIP3   OH249149   3.843   4.787  16.913 -0.2093  0.3264 -0.4994
 9245TIP3    H149150   3.932   4.810  16.940 -0.4520  0.3005  0.3176
 9245TIP3    H249151   3.855   4.739  16.831  0.5235  0.3722 -0.4230
 9246TIP3   OH249152   2.319   3.504  12.962  0.0664  0.9038 -0.3024
 9246TIP3    H149153   2.354   3.575  13.016  0.2602  0.9401 -0.4753
 9246TIP3    H249154   2.391   3.441  12.957 -1.0508 -0.6501  2.2223
 9247TIP3   OH249155   1.309   4.277  16.906  0.2893 -0.0243 -0.0731
 9247TIP3    H149156   1.217   4.283  16.932  0.0992  0.7542 -0.9097
 9247TIP3    H249157   1.314   4.196  16.856  0.0547 -0.0494 -0.0574
 9248TIP3   OH249158   4.325   1.021   0.244  0.0035 -0.6751  0.0468
 9248TIP3    H149159   4.246   1.070   0.263 -0.6959 -0.0997 -4.0818
 9248TIP3    H249160   4.317   0.941   0.297 -1.5763  0.9831  2.3727
 9249TIP3   OH249161   1.539   2.821  12.709  1.1929 -0.1125  0.2790
 9249TIP3    H149162   1.517   2.909  12.740  0.3110  0.2659 -1.3787
 9249TIP3    H249163   1.634   2.815  12.722  0.9929  0.3903  2.1000
 9250TIP3   OH249164   6.607   6.517   2.948  0.4564 -0.1873  0.4168
 9250TIP3    H149165   6.619   6.465   2.869 -0.5719  1.2538 -0.7147
 9250TIP3    H249166   6.567   6.457   3.010  0.9955 -1.2517 -0.2391
 9251TIP3   OH249167   0.271   6.105   0.472  0.0402 -0.8212 -0.1786
 9251TIP3    H149168   0.291   6.103   0.566 -1.4869  0.5650  0.2117
 9251TIP3    H249169   0.177   6.086   0.468 -0.2553  0.7742 -1.2823
 9252TIP3   OH249170   5.592   3.135   4.850 -0.3376 -0.2718 -0.2524
 9252TIP3    H149171   5.514   3.079   4.846  0.4256 -1.3772  0.0185
 9252TIP3    H249172   5.557   3.223   4.863 -1.5409 -0.7557 -0.0794
 9253TIP3   OH249173   5.478   3.448   1.166  0.4874 -0.2438 -0.1544
 9253TIP3    H149174   5.440   3.533   1.187  0.7325 -0.0958 -0.3087
 9253TIP3    H249175   5.403   3.388   1.167  0.5804 -0.3471  1.6847
 9254TIP3   OH249176   2.998   6.347  16.589 -0.5549 -0.0534 -0.1118
 9254TIP3    H149177   2.929   6.338  16.655 -1.0970  0.4294 -0.6118
 9254TIP3    H249178   2.986   6.434  16.552 -0.6568 -0.5555 -1.3037
 9255TIP3   OH249179   0.992   0.759   4.788  0.7898 -0.1274  0.3434
 9255TIP3    H149180   1.048   0.819   4.738 -1.0492  0.8692 -0.5586
 9255TIP3    H249181   0.904   0.794   4.776 -0.0957 -2.0258  1.2685
 9256TIP3   OH249182   6.657   4.979  15.751 -0.0268  0.3854  0.3872
 9256TIP3    H149183   6.742   4.972  15.709 -0.8431  1.6217 -1.5399
 9256TIP3    H249184   6.609   4.901  15.720 -0.8051  1.5616 -1.4670
 9257TIP3   OH249185   4.487   4.629  13.522 -0.0542  0.3608 -0.4409
 9257TIP3    H149186   4.408   4.585  13.490 -0.8738  0.3670  1.4949
 9257TIP3    H249187   4.505   4.586  13.606  0.2207  2.4372  0.5842
 9258TIP3   OH249188   5.733   5.119   2.371 -0.3179 -0.0822  0.4016
 9258TIP3    H149189   5.801   5.083   2.429  0.1128 -1.0238 -0.6732
 9258TIP3    H249190   5.776   5.129   2.287 -0.7940  1.8042  0.3535
 9259TIP3   OH249191   4.709   4.141  10.408 -0.2488 -0.5222 -0.0478
 9259TIP3    H149192   4.697   4.145  10.503 -0.9230  0.9017 -0.1881
 9259TIP3    H249193   4.767   4.066  10.395 -0.9439 -1.3345  1.4074
 9260TIP3   OH249194   2.354   1.700   3.794  0.3358 -0.7194 -0.3583
 9260TIP3    H149195   2.380   1.611   3.817  0.8696 -0.0965  1.5759
 9260TIP3    H249196   2.405   1.721   3.716  2.6811 -0.9742  1.0409
 9261TIP3   OH249197   0.118   1.646   2.477 -0.1110  0.4136 -0.6146
 9261TIP3    H149198   0.156   1.732   2.495  1.2047 -0.1116 -0.8549
 9261TIP3    H249199   0.193   1.586   2.476 -1.2313 -1.1916  2.2738
 9262TIP3   OH249200   1.091   2.057  17.003  0.2967 -0.0007 -0.3691
 9262TIP3    H149201   1.039   2.028  17.078  2.4944  1.5672  1.8483
 9262TIP3    H249202   1.046   2.135  16.971  0.4267  0.4872  0.6044
 9263TIP3   OH249203   5.036   2.714  15.080  0.1720 -0.0331  0.0747
 9263TIP3    H149204   4.947   2.701  15.113 -0.3818 -0.2564 -1.4546
 9263TIP3    H249205   5.028   2.788  15.019  1.2893  0.7812  0.9031
 9264TIP3   OH249206   0.167   0.829   3.458 -0.0201  0.0657 -0.4443
 9264TIP3    H149207   0.235   0.867   3.402 -1.0482 -1.0946 -2.5253
 9264TIP3    H249208   0.096   0.893   3.457  0.1411  0.2478 -0.1171
 9265TIP3   OH249209   1.832   2.866  12.473  0.1462 -0.0444  0.1399
 9265TIP3    H149210   1.746   2.906  12.454  0.3664  0.7162  0.6958
 9265TIP3    H249211   1.857   2.903  12.558  1.7871  1.0288 -0.7894
 9266TIP3   OH249212   5.059   0.254  13.576  0.2570 -0.2164 -0.6502
 9266TIP3    H149213   4.991   0.236  13.641 -1.0660  0.9746 -1.6731
 9266TIP3    H249214   5.116   0.177  13.579 -1.5466 -1.5741 -0.3159
 9267TIP3   OH249215   4.425   2.059   2.758 -0.3263  1.0384 -0.1387
 9267TIP3    H149216   4.365   2.133   2.747  0.2655  1.4383 -0.6892
 9267TIP3    H249217   4.482   2.063   2.682 -1.0758 -0.7344 -0.7970
 9268TIP3   OH249218   2.867   6.648   3.991 -0.1283  0.1569  0.1267
 9268TIP3    H149219   2.948   6.598   3.981 -0.5979 -0.4312 -0.8116
 9268TIP3    H249220   2.879   6.696   4.073  0.7783 -0.6493  0.4847
 9269TIP3   OH249221   0.252   5.646   0.107  0.7087  0.5410 -0.4393
 9269TIP3    H149222   0.271   5.701   0.183  0.8158  0.4485 -0.3976
 9269TIP3    H249223   0.171   5.681   0.071 -0.1355 -0.3281  0.5924
 9270TIP3   OH249224   2.877   0.362  13.518 -0.3456  0.2538  0.6854
 9270TIP3    H149225   2.874   0.456  13.502 -2.1802  0.4660  2.1332
 9270TIP3    H249226   2.842   0.322  13.438  0.3888  0.7778  0.0909
 9271TIP3   OH249227   6.314   1.557   5.736  0.3694 -0.0262 -0.8544
 9271TIP3    H149228   6.328   1.516   5.651 -1.4017 -1.5574 -0.4545
 9271TIP3    H249229   6.221   1.580   5.736  0.4942  0.5318  0.4312
 9272TIP3   OH249230   0.172   1.898   5.801  0.1913  0.7938 -0.7577
 9272TIP3    H149231   0.166   1.943   5.717 -1.5146  2.2907  0.1412
 9272TIP3    H249232   0.117   1.949   5.860  0.0225 -1.1955  0.8629
 9273TIP3   OH249233   0.781   1.149  16.193  0.2259 -0.0479  0.2072
 9273TIP3    H149234   0.775   1.119  16.283 -0.0448 -2.0419 -0.4467
 9273TIP3    H249235   0.853   1.098  16.155 -0.7567 -0.4841 -1.1444
 9274TIP3   OH249236   2.304   5.768  10.507 -0.3171 -0.4402 -0.5614
 9274TIP3    H149237   2.249   5.805  10.577  0.4437 -1.2493  0.4756
 9274TIP3    H249238   2.247   5.705  10.463 -1.4685  1.5648 -2.0289
 9275TIP3   OH249239   0.945   2.409   5.856  0.1495 -0.2840 -0.5790
 9275TIP3    H149240   0.905   2.323   5.850  1.3021 -0.7016 -2.6950
 9275TIP3    H249241   1.035   2.397   5.824  0.0117  1.8851 -1.9276
 9276TIP3   OH249242   2.577   4.704   6.370 -0.5154  0.1735 -0.5251
 9276TIP3    H149243   2.497   4.746   6.402 -0.6108 -0.3748 -0.0287
 9276TIP3    H249244   2.647   4.748   6.418 -0.5105  0.7005 -1.0087
 9277TIP3   OH249245   0.159   3.786   3.750  0.0670  0.3595  0.4092
 9277TIP3    H149246   0.210   3.715   3.711  0.7638  1.0615  0.0282
 9277TIP3    H249247   0.215   3.863   3.742 -0.5527  0.8905  1.1079
 9278TIP3   OH249248   3.443   3.770  12.383 -0.6946 -0.4816  0.7631
 9278TIP3    H149249   3.458   3.675  12.383  0.1479 -0.3498  0.6994
 9278TIP3    H249250   3.417   3.790  12.293 -1.1289 -0.6901  0.8395
 9279TIP3   OH249251   4.617   3.175  12.267  0.1119 -0.1049  0.3507
 9279TIP3    H149252   4.600   3.199  12.359  0.6183 -1.3554  0.7786
 9279TIP3    H249253   4.710   3.152  12.265 -0.0372 -0.6476 -0.3606
 9280TIP3   OH249254   2.163   6.310   5.441 -0.3253 -0.3203  0.1442
 9280TIP3    H149255   2.080   6.347   5.411 -0.3589 -1.1379 -0.7844
 9280TIP3    H249256   2.145   6.217   5.455 -0.2474 -0.0292  2.4779
 9281TIP3   OH249257   2.990   1.124  15.159  0.0713 -0.2948 -0.4387
 9281TIP3    H149258   2.953   1.072  15.088  1.1928 -0.2320 -1.0849
 9281TIP3    H249259   3.085   1.111  15.151  0.2652  0.5666  0.3792
 9282TIP3   OH249260   5.986   0.272  11.733 -0.4621 -0.0965  0.2387
 9282TIP3    H149261   6.013   0.186  11.701  1.1093  0.6276 -0.3903
 9282TIP3    H249262   5.898   0.285  11.697 -0.5481 -1.2698  0.0261
 9283TIP3   OH249263   4.297   0.023  11.814 -0.3809  0.4905  0.7006
 9283TIP3    H149264   4.238  -0.045  11.781 -0.5373  0.1659  1.6261
 9283TIP3    H249265   4.282   0.098  11.756 -1.3370  0.2436  0.6141
 9284TIP3   OH249266   4.692   1.624   0.366 -0.2905  0.5160  0.0529
 9284TIP3    H149267   4.602   1.646   0.342 -0.3856  2.1946  1.7896
 9284TIP3    H249268   4.685   1.592   0.456  0.8263  0.4196  0.1149
 9285TIP3   OH249269   4.831   6.245  17.211  0.3689 -0.3230 -0.6129
 9285TIP3    H149270   4.912   6.295  17.221 -0.0549  0.6971 -2.1522
 9285TIP3    H249271   4.761   6.308  17.228 -0.1729 -0.2937 -2.7650
 9286TIP3   OH249272   0.522   0.395   0.987 -0.1735  0.7045  0.8998
 9286TIP3    H149273   0.558   0.318   1.033 -1.7036  0.2167  1.3035
 9286TIP3    H249274   0.593   0.423   0.929  1.0343  0.0411  2.0203
 9287TIP3   OH249275   5.242   6.393  16.973  0.0513  0.3947 -0.0799
 9287TIP3    H149276   5.275   6.353  16.893 -2.0038  0.2321 -0.8801
 9287TIP3    H249277   5.220   6.483  16.948  0.2222  0.6076  0.5282
 9288TIP3   OH249278   1.424   1.506   4.119 -0.0801 -0.0363  0.2549
 9288TIP3    H149279   1.455   1.427   4.164  0.4900  2.2973  4.2727
 9288TIP3    H249280   1.500   1.535   4.068  0.4457 -0.8601  0.5532
 9289TIP3   OH249281   5.883   1.619  14.186 -0.2361  0.1354  0.7044
 9289TIP3    H149282   5.799   1.664  14.198 -0.1890 -0.1919  2.2831
 9289TIP3    H249283   5.885   1.552  14.254 -0.4070 -2.4544 -1.7287
 9290TIP3   OH249284   0.053   3.639   3.955 -0.1146  0.6325 -0.2651
 9290TIP3    H149285   0.094   3.694   4.022  0.7542  0.3540 -0.5583
 9290TIP3    H249286   0.069   3.686   3.873 -1.4381  1.1260 -0.2604
 9291TIP3   OH249287   3.076   5.699  12.282 -0.0264  0.1159  0.1928
 9291TIP3    H149288   3.115   5.677  12.198 -0.9022  1.8188 -0.6817
 9291TIP3    H249289   2.997   5.750  12.260 -1.1826 -0.8271  1.9847
 9292TIP3   OH249290   1.859   4.255  11.101  0.0887  0.4486 -0.3401
 9292TIP3    H149291   1.835   4.348  11.095 -1.0586  0.2188  0.5981
 9292TIP3    H249292   1.790   4.209  11.053 -0.8528 -0.1281  1.5031
 9293TIP3   OH249293   4.089   2.814   3.130 -0.1325  0.0497 -0.2932
 9293TIP3    H149294   4.033   2.743   3.099 -0.1406 -0.9642  1.9193
 9293TIP3    H249295   4.162   2.770   3.173  0.6920  1.3888 -0.2832
 9294TIP3   OH249296   1.075   2.133  14.900  0.2232  0.0903  0.3279
 9294TIP3    H149297   0.980   2.128  14.903  0.3229 -1.7305  1.2865
 9294TIP3    H249298   1.103   2.127  14.991  1.3041 -1.3822 -0.0698
 9295TIP3   OH249299   0.698   0.880  11.395 -0.3216  0.8006 -0.0683
 9295TIP3    H149300   0.740   0.850  11.315  0.4445 -0.7187  0.8653
 9295TIP3    H249301   0.762   0.862  11.464 -1.2469  1.4119  0.9715
 9296TIP3   OH249302   6.174   1.985  13.314 -0.0400 -0.1469 -0.9330
 9296TIP3    H149303   6.232   1.912  13.294  1.6947  0.4905  1.5360
 9296TIP3    H249304   6.112   1.951  13.378  0.6175  0.4408  0.0360
 9297TIP3   OH249305   6.076   0.587  16.085  0.7020 -0.1052  0.2318
 9297TIP3    H149306   6.122   0.518  16.132 -1.7798 -0.6217  2.0128
 9297TIP3    H249307   6.082   0.663  16.143  1.9572  0.7290 -0.9532
 9298TIP3   OH249308   6.589   3.615   3.226  0.3504  0.3652  0.0399
 9298TIP3    H149309   6.510   3.570   3.258  0.0366  0.7296 -0.2114
 9298TIP3    H249310   6.660   3.580   3.280 -0.0873  0.5534  0.7580
 9299TIP3   OH249311   2.990   6.094  14.903  0.0867 -0.3366 -0.3701
 9299TIP3    H149312   2.908   6.061  14.939 -0.2627 -0.5362 -1.3416
 9299TIP3    H249313   2.965   6.138  14.822  0.9403 -0.3604 -0.6532
 9300TIP3   OH249314   2.135   3.340  16.756 -0.1620  0.2656 -0.0446
 9300TIP3    H149315   2.076   3.371  16.688 -0.3860 -0.8180 -0.3488
 9300TIP3    H249316   2.222   3.368  16.727 -0.2390 -0.3387 -0.8597
 9301TIP3   OH249317   4.374   4.064  13.882  0.4226  0.2444 -0.2505
 9301TIP3    H149318   4.351   4.103  13.966 -0.4941  1.0987 -0.8903
 9301TIP3    H249319   4.291   4.056  13.836  0.7913 -1.1465 -0.6918
 9302TIP3   OH249320   3.746   6.187   2.943 -0.3372  0.2106  0.3533
 9302TIP3    H149321   3.777   6.105   2.982 -1.0791 -0.8092 -1.1794
 9302TIP3    H249322   3.768   6.254   3.008  1.7000 -0.9853  0.9221
 9303TIP3   OH249323   2.072   1.231   4.680 -0.1355 -0.4955  0.4329
 9303TIP3    H149324   2.103   1.314   4.643 -0.1512  0.6535  2.9266
 9303TIP3    H249325   2.010   1.256   4.748  1.3102 -2.4554  2.5582
 9304TIP3   OH249326   5.776   0.308  13.954  0.3973 -0.0031  0.1898
 9304TIP3    H149327   5.683   0.324  13.972  0.1365 -1.8771  0.5846
 9304TIP3    H249328   5.778   0.287  13.860  0.4294  0.1210  0.1631
 9305TIP3   OH249329   5.708   3.520   1.356 -0.4575 -0.5829  0.0979
 9305TIP3    H149330   5.625   3.480   1.331  1.3201 -2.7446 -2.5777
 9305TIP3    H249331   5.698   3.612   1.329 -1.7291 -0.9507 -0.7551
 9306TIP3   OH249332   3.726   5.371  15.540  0.6456  0.3732 -0.2277
 9306TIP3    H149333   3.671   5.298  15.510 -1.0680  1.9150 -0.9480
 9306TIP3    H249334   3.792   5.330  15.596 -0.1323 -1.7565 -0.8160
 9307TIP3   OH249335   3.395   1.486   1.176 -0.0236 -0.8420 -0.2698
 9307TIP3    H149336   3.387   1.457   1.266 -0.3938  1.1243  0.3499
 9307TIP3    H249337   3.489   1.499   1.162  0.0323 -1.1412 -0.1875
 9308TIP3   OH249338   1.929   5.801  11.658 -0.1257 -0.4387  0.5178
 9308TIP3    H149339   1.950   5.771  11.746 -1.5302 -0.4171  0.8690
 9308TIP3    H249340   1.843   5.764  11.640  0.2661 -0.6640 -0.9493
 9309TIP3   OH249341   2.891   6.634   6.605  0.1993 -0.1968  0.2922
 9309TIP3    H149342   2.885   6.730   6.605 -0.2538 -0.2209  1.5017
 9309TIP3    H249343   2.918   6.612   6.516 -1.6478  0.9234 -0.5660
 9310TIP3   OH249344   4.760   1.859  15.615  0.5979 -0.4161  0.6709
 9310TIP3    H149345   4.746   1.954  15.606 -1.8637 -0.8942 -1.3102
 9310TIP3    H249346   4.805   1.834  15.535  1.7503 -0.8718  1.4468
 9311TIP3   OH249347   2.286   4.441  12.928  0.0602  0.1601  0.5733
 9311TIP3    H149348   2.219   4.377  12.953  1.3297 -0.7342  1.7495
 9311TIP3    H249349   2.356   4.428  12.992  1.1092  1.4875 -0.2922
 9312TIP3   OH249350   3.980   5.400   2.059 -0.5815 -0.4323 -0.0215
 9312TIP3    H149351   3.890   5.402   2.091 -1.8566  0.3210 -3.4151
 9312TIP3    H249352   4.008   5.309   2.074 -2.3988 -1.0521 -0.1795
 9313TIP3   OH249353   1.914   2.478  16.786 -0.0884 -0.1938 -0.5439
 9313TIP3    H149354   1.929   2.521  16.870 -0.6432  0.1626 -0.6240
 9313TIP3    H249355   1.968   2.399  16.790  0.1328 -0.0189  0.0214
 9314TIP3   OH249356   4.892   5.949   3.908  0.1621 -0.2179  0.1071
 9314TIP3    H149357   4.814   5.937   3.962  0.7086  0.6111  1.0970
 9314TIP3    H249358   4.861   5.997   3.831 -0.2668  0.2959  0.5977
 9315TIP3   OH249359   2.532   4.526  12.683 -0.0936 -0.3422  0.1714
 9315TIP3    H149360   2.505   4.435  12.695 -0.0766 -0.4292 -0.4200
 9315TIP3    H249361   2.453   4.570  12.650 -0.7676  0.3668  2.6882
 9316TIP3   OH249362   2.236   4.160  15.941  0.4796  0.3153  0.4178
 9316TIP3    H149363   2.264   4.176  16.031 -0.7449 -0.2738  0.9114
 9316TIP3    H249364   2.164   4.221  15.926  0.8791  0.6314 -0.2753
 9317TIP3   OH249365   4.800   4.040  15.402  0.5128 -0.0910  0.4021
 9317TIP3    H149366   4.853   4.116  15.426 -0.1159 -0.1116  1.9640
 9317TIP3    H249367   4.713   4.060  15.437 -1.0850  0.8131 -3.8130
 9318TIP3   OH249368   0.034   2.685  14.613  0.4287  0.4902 -0.0725
 9318TIP3    H149369  -0.035   2.632  14.573 -2.2677 -0.0785  4.8628
 9318TIP3    H249370   0.103   2.623  14.636 -0.0517  0.0799  0.2663
 9319TIP3   OH249371   4.790   0.056   2.768 -0.6545  0.4172 -0.0351
 9319TIP3    H149372   4.707   0.088   2.802 -0.2918  1.0755  0.2291
 9319TIP3    H249373   4.804  -0.027   2.814 -0.9339  0.5376  0.2688
 9320TIP3   OH249374   6.765   1.108  13.381  0.0052 -0.0454 -0.5636
 9320TIP3    H149375   6.732   1.197  13.377 -0.4394 -0.2270 -1.0712
 9320TIP3    H249376   6.695   1.055  13.343  0.1497 -0.6406 -0.0137
 9321TIP3   OH249377   6.561   3.000  16.921  0.1544  0.7242  0.4210
 9321TIP3    H149378   6.541   3.091  16.899 -0.5838  0.2955 -0.7427
 9321TIP3    H249379   6.496   2.977  16.987 -1.0967  0.3627 -0.9201
 9322TIP3   OH249380   4.780   4.173   2.568  0.0343  0.4302 -0.2861
 9322TIP3    H149381   4.869   4.150   2.595 -0.6507 -0.9370  0.8990
 9322TIP3    H249382   4.783   4.268   2.553  2.1834  0.0974 -2.2806
 9323TIP3   OH249383   0.854   2.749   6.306  0.1028 -0.4804  0.4989
 9323TIP3    H149384   0.863   2.687   6.378  0.4182 -1.6116 -0.4917
 9323TIP3    H249385   0.918   2.719   6.241  1.4214  1.8577  0.6897
 9324TIP3   OH249386   2.598   1.712   1.731 -0.1681  0.0561  0.1484
 9324TIP3    H149387   2.637   1.693   1.646 -0.6377  0.9563 -0.2817
 9324TIP3    H249388   2.558   1.798   1.720 -1.6875 -0.5571  0.7807
 9325TIP3   OH249389   1.772   4.016  15.331  0.0256  0.3494 -0.5721
 9325TIP3    H149390   1.862   3.997  15.359 -0.3484 -0.3629  0.1859
 9325TIP3    H249391   1.782   4.079  15.260  1.0769  1.0359  0.1625
 9326TIP3   OH249392   4.805   1.741  14.486  0.1787  0.0618  0.2342
 9326TIP3    H149393   4.790   1.828  14.523 -0.2235 -0.4387  1.2852
 9326TIP3    H249394   4.818   1.685  14.562  1.1431 -0.6702 -0.4646
 9327TIP3   OH249395   3.455   4.332  16.250  0.0510 -0.5510  0.5220
 9327TIP3    H149396   3.376   4.278  16.246 -0.3829  0.0462  1.1655
 9327TIP3    H249397   3.521   4.279  16.204  0.3325 -2.8364  3.3795
 9328TIP3   OH249398   0.830   4.041   4.884  0.5409 -0.2323  0.3034
 9328TIP3    H149399   0.910   4.089   4.864 -0.2840  1.4542  0.8969
 9328TIP3    H249400   0.813   4.060   4.977  0.2752 -1.8059  0.5903
 9329TIP3   OH249401   4.588   6.355  12.034 -0.2200  1.2180  0.1269
 9329TIP3    H149402   4.518   6.304  12.074  1.1288  0.2585  1.3076
 9329TIP3    H249403   4.653   6.290  12.006  1.1716  2.2001  0.9800
 9330TIP3   OH249404   6.765   1.026  11.275 -0.3338 -0.0521  0.5854
 9330TIP3    H149405   6.812   0.967  11.217  1.3989 -0.5236  2.4061
 9330TIP3    H249406   6.682   0.982  11.293 -0.7766 -0.0157 -1.2836
 9331TIP3   OH249407   2.546   3.471   4.782  0.0932 -0.3187 -0.6006
 9331TIP3    H149408   2.605   3.533   4.825  0.8995 -1.9209  0.6502
 9331TIP3    H249409   2.550   3.495   4.689  0.3542  1.5108 -0.1265
 9332TIP3   OH249410   6.166   1.323   1.927 -0.3122  0.0851  0.4140
 9332TIP3    H149411   6.102   1.252   1.922 -0.2186  0.1006 -1.5740
 9332TIP3    H249412   6.120   1.399   1.891  0.4639  0.3671  0.0123
 9333TIP3   OH249413   4.277   5.853   5.385 -0.3247  0.4232 -0.1675
 9333TIP3    H149414   4.218   5.860   5.310  1.8384  1.7240 -1.7970
 9333TIP3    H249415   4.338   5.783   5.362 -0.5124 -0.1427  1.0096
 9334TIP3   OH249416   1.373   3.297   0.785 -0.2837 -0.2466 -0.2806
 9334TIP3    H149417   1.429   3.347   0.726  0.6481  0.9489  1.5934
 9334TIP3    H249418   1.425   3.220   0.809  0.3638  0.6163  1.0760
 9335TIP3   OH249419   0.004   2.358  10.387 -0.0270 -0.0304 -0.2408
 9335TIP3    H149420  -0.076   2.308  10.404 -0.7506  0.1305 -2.9197
 9335TIP3    H249421   0.017   2.351  10.292  2.2322  1.3206 -0.0765
 9336TIP3   OH249422   0.694   0.283  11.456 -0.4550  0.0920  0.4826
 9336TIP3    H149423   0.651   0.367  11.470 -0.5176 -0.3327  3.0287
 9336TIP3    H249424   0.777   0.305  11.413 -1.0498  1.3188 -0.0557
 9337TIP3   OH249425   3.309   6.767  14.308  0.7088  0.3756  0.2543
 9337TIP3    H149426   3.278   6.825  14.378  2.1264  1.2429  0.1866
 9337TIP3    H249427   3.268   6.801  14.229 -0.9786 -0.6642  0.6421
 9338TIP3   OH249428   1.970   3.767   1.596 -0.1586 -0.3061 -0.1494
 9338TIP3    H149429   1.943   3.856   1.571  0.2414 -0.6122 -1.7539
 9338TIP3    H249430   1.931   3.753   1.682  0.7769  1.8929  0.6864
 9339TIP3   OH249431   1.769   0.996   2.611 -0.1669  0.1958  0.2320
 9339TIP3    H149432   1.816   0.936   2.553  1.2046  0.6962  0.8020
 9339TIP3    H249433   1.710   1.044   2.552 -0.9503 -1.3610 -0.2865
 9340TIP3   OH249434   1.774   3.496   4.336  0.1828  0.7616 -0.2218
 9340TIP3    H149435   1.720   3.423   4.305  0.6978  0.4013 -0.2702
 9340TIP3    H249436   1.728   3.574   4.305 -1.2421  0.5223  1.2037
 9341TIP3   OH249437   5.772   6.686   0.839 -0.4886  0.2010  0.3638
 9341TIP3    H149438   5.722   6.733   0.772  0.0901 -1.0500 -0.9779
 9341TIP3    H249439   5.712   6.617   0.868 -0.1405 -0.3102 -0.1065
 9342TIP3   OH249440   3.955   2.664  12.705 -0.3962 -0.1681 -0.2074
 9342TIP3    H149441   3.995   2.578  12.719  0.6828  0.3919  0.2099
 9342TIP3    H249442   3.898   2.676  12.781 -1.3697 -0.9678 -0.8005
 9343TIP3   OH249443   2.675   6.464   3.993  0.1759 -0.7133  0.2422
 9343TIP3    H149444   2.712   6.551   3.978 -1.9318  0.6685  2.5745
 9343TIP3    H249445   2.608   6.454   3.926  1.7153 -1.3513 -1.2125
 9344TIP3   OH249446   0.761   1.090   5.472  0.3553  0.2395 -0.0662
 9344TIP3    H149447   0.795   1.027   5.409  2.9783 -0.1197  1.6314
 9344TIP3    H249448   0.717   1.038   5.538 -1.7672  0.5692 -1.1773
 9345TIP3   OH249449   6.114   1.949   1.723  0.5707  0.3110 -0.0138
 9345TIP3    H149450   6.098   1.914   1.635 -1.3203  0.9334  0.0687
 9345TIP3    H249451   6.039   1.921   1.774  0.6002  1.7764  0.8554
 9346TIP3   OH249452   1.494   0.223  14.299  0.5320 -0.1146 -0.3701
 9346TIP3    H149453   1.589   0.216  14.283  0.1826  0.0712 -2.6246
 9346TIP3    H249454   1.456   0.233  14.212 -1.4263  1.7093  0.6597
 9347TIP3   OH249455   2.519   5.452  13.595 -0.1841 -0.0361  0.0294
 9347TIP3    H149456   2.429   5.430  13.570  0.0591 -1.1496  0.1292
 9347TIP3    H249457   2.511   5.489  13.683 -0.6523  0.7830 -0.3483
 9348TIP3   OH249458   6.276   3.045   1.166 -0.2929 -0.1685  0.4217
 9348TIP3    H149459   6.277   2.994   1.085 -0.0715 -0.2348  0.4640
 9348TIP3    H249460   6.192   3.024   1.207 -1.1274  1.1233 -0.5811
 9349TIP3   OH249461   4.474   3.548   2.365 -0.3786 -0.0702  0.0623
 9349TIP3    H149462   4.382   3.553   2.390 -0.8636  0.7374 -1.7739
 9349TIP3    H249463   4.481   3.468   2.314 -0.2526  0.3178 -0.5349
 9350TIP3   OH249464   3.564   4.847  11.430 -0.7614  0.2523  0.0701
 9350TIP3    H149465   3.518   4.929  11.450  0.3031  0.5377  1.4750
 9350TIP3    H249466   3.614   4.866  11.351  1.4101  1.7847  1.7376
 9351TIP3   OH249467   1.811   0.194   0.013  0.2122 -0.4323  0.5739
 9351TIP3    H149468   1.740   0.251  -0.018  0.5413 -0.7631 -0.8246
 9351TIP3    H249469   1.783   0.166   0.100 -1.4549 -0.6903 -0.0238
 9352TIP3   OH249470   5.220   4.149  14.427 -0.4330  0.1976 -0.2271
 9352TIP3    H149471   5.310   4.157  14.397  0.0777  0.9049  1.4715
 9352TIP3    H249472   5.221   4.075  14.487 -0.5619  1.4688  1.3516
 9353TIP3   OH249473   3.711   0.880  11.767  0.2587  0.0097  0.3746
 9353TIP3    H149474   3.734   0.822  11.695  0.8067 -0.1812  0.6987
 9353TIP3    H249475   3.715   0.968  11.729 -2.1102 -0.2435 -0.5298
 9354TIP3   OH249476   6.404   1.618  16.337  0.4523 -0.0426  0.0232
 9354TIP3    H149477   6.410   1.523  16.325  0.0119 -0.3180  1.7911
 9354TIP3    H249478   6.311   1.637  16.334  0.5630  0.4031 -0.7285
 9355TIP3   OH249479   3.271   4.776  15.888  0.5512  0.2534  0.2700
 9355TIP3    H149480   3.193   4.773  15.833 -0.7498 -2.3922  2.1448
 9355TIP3    H249481   3.238   4.802  15.974  1.9940  0.6158  0.7254
 9356TIP3   OH249482   2.075   0.027  10.819 -0.0117  0.3499  0.3043
 9356TIP3    H149483   2.085   0.113  10.859  1.0198  0.2100  0.3651
 9356TIP3    H249484   2.065   0.044  10.726 -1.0664  0.5957  0.4446
 9357TIP3   OH249485   0.561   0.542  11.312 -0.2681 -0.4054  0.0271
 9357TIP3    H149486   0.579   0.470  11.251  1.4886  0.8149 -0.9394
 9357TIP3    H249487   0.492   0.593  11.270 -2.0502 -1.9234  1.0668
 9358TIP3   OH249488   2.805   4.290   4.282 -0.1301  0.0154 -0.3155
 9358TIP3    H149489   2.732   4.350   4.266 -0.7103 -0.2642  1.2591
 9358TIP3    H249490   2.850   4.326   4.359  0.2014 -0.9330 -0.0572
 9359TIP3   OH249491   4.157   0.153   6.085 -0.5477 -0.1878  0.2080
 9359TIP3    H149492   4.062   0.164   6.096 -0.5219  1.3291 -0.9261
 9359TIP3    H249493   4.189   0.241   6.067  1.0665 -0.7264  0.3893
 9360TIP3   OH249494   0.612   4.008   0.365 -0.0160 -0.1801 -0.1641
 9360TIP3    H149495   0.699   3.969   0.375 -0.0932 -0.3186 -0.0207
 9360TIP3    H249496   0.616   4.057   0.283  0.6343  0.9893  0.5564
 9361TIP3   OH249497   1.530   1.282   4.245 -0.2690  0.2114 -0.0999
 9361TIP3    H149498   1.544   1.298   4.339  0.1267 -1.6011  0.1547
 9361TIP3    H249499   1.600   1.223   4.220 -1.2794 -0.5288 -1.2041
 9362TIP3   OH249500   0.268   1.025   3.272 -0.2533 -0.0890 -0.3484
 9362TIP3    H149501   0.302   1.096   3.326 -0.5826  0.4559 -0.8467
 9362TIP3    H249502   0.181   1.054   3.245 -0.1296 -0.3855 -1.1014
 9363TIP3   OH249503   6.066   0.971   1.192 -0.0792 -0.2428 -0.0144
 9363TIP3    H149504   5.995   0.911   1.213  1.8046 -2.4081  0.3892
 9363TIP3    H249505   6.104   0.936   1.112  0.9373  0.5155  0.1276
 9364TIP3   OH249506   1.794   3.084   2.548  0.2224 -0.4406  0.2456
 9364TIP3    H149507   1.795   3.085   2.452 -1.5021  1.1403  0.2211
 9364TIP3    H249508   1.757   2.999   2.571 -0.5966 -0.2944 -0.5136
 9365TIP3   OH249509   5.746   1.641   0.170 -0.6429  0.2789  0.0275
 9365TIP3    H149510   5.734   1.587   0.092 -2.5930 -0.0692  0.5611
 9365TIP3    H249511   5.748   1.578   0.243 -0.3383  0.7315  0.4137
 9366TIP3   OH249512   4.032   1.548  14.882  0.0424  0.0527 -0.5714
 9366TIP3    H149513   4.017   1.455  14.866 -0.9567  0.1445 -0.2185
 9366TIP3    H249514   4.126   1.554  14.900  0.3033 -0.7297 -1.6245
 9367TIP3   OH249515   1.238   4.316  14.110 -0.0648  0.4552 -0.1599
 9367TIP3    H149516   1.165   4.379  14.106 -0.2808  0.1074 -2.6258
 9367TIP3    H249517   1.205   4.239  14.065  1.1187 -0.4832  0.5622
 9368TIP3   OH249518   2.853   5.638   1.482 -0.3079  0.5340  0.4011
 9368TIP3    H149519   2.799   5.572   1.438 -1.4677  2.3618 -1.0189
 9368TIP3    H249520   2.839   5.621   1.575 -1.4373 -0.5360  0.0597
 9369TIP3   OH249521   2.512   0.280  13.165  0.2607 -0.0751 -0.4486
 9369TIP3    H149522   2.453   0.341  13.210 -1.1019 -1.4641 -0.2987
 9369TIP3    H249523   2.555   0.232  13.235  1.8160  1.1201 -0.5533
 9370TIP3   OH249524   2.126   4.212  13.056 -0.0993 -0.2972  0.0797
 9370TIP3    H149525   2.106   4.167  13.138 -1.0488 -2.5250 -1.3249
 9370TIP3    H249526   2.151   4.142  12.996  0.7013  1.3124 -1.5039
 9371TIP3   OH249527   5.779   3.137  12.368 -0.6149  0.1630 -0.4449
 9371TIP3    H149528   5.789   3.229  12.345  0.2940  0.0496 -0.5454
 9371TIP3    H249529   5.848   3.093  12.318 -2.5678 -0.8950 -2.2908
 9372TIP3   OH249530   2.199   5.707  11.077 -0.6336  0.4896  0.1616
 9372TIP3    H149531   2.180   5.762  11.002  3.1171  0.0677 -1.2084
 9372TIP3    H249532   2.183   5.618  11.047  0.3654  0.3553  0.0102
 9373TIP3   OH249533   1.226   2.446  14.941  0.3221  0.4559 -0.3245
 9373TIP3    H149534   1.161   2.378  14.958  1.3520 -0.1803  1.2237
 9373TIP3    H249535   1.189   2.525  14.981  1.1266 -0.2367  1.8631
 9374TIP3   OH249536   0.381   1.973  14.137 -0.4634  0.6808  0.2088
 9374TIP3    H149537   0.380   2.054  14.188  2.0845  1.6054 -1.1414
 9374TIP3    H249538   0.348   1.998  14.051  0.0599  0.2410 -0.1245
 9375TIP3   OH249539   3.626   1.990  13.745  0.1984 -0.0940  0.6586
 9375TIP3    H149540   3.613   1.901  13.711  1.0603 -0.2081  0.5962
 9375TIP3    H249541   3.560   2.001  13.813  0.6532 -1.1033  1.2653
 9376TIP3   OH249542   4.386   6.281  14.012  0.3162  0.0051  0.4611
 9376TIP3    H149543   4.317   6.324  14.062 -1.4673 -0.0384 -1.8539
 9376TIP3    H249544   4.338   6.229  13.946  2.5362 -1.1245 -0.2972
 9377TIP3   OH249545   6.463   5.921  14.035  0.8301  0.0262 -0.8243
 9377TIP3    H149546   6.548   5.939  14.075  0.4092  3.0686 -1.2243
 9377TIP3    H249547   6.477   5.841  13.984  3.2597  0.1298 -0.3626
 9378TIP3   OH249548   3.050   0.123  13.538 -0.1874 -0.6169  0.5808
 9378TIP3    H149549   3.145   0.109  13.539 -0.3494 -1.7439  0.7269
 9378TIP3    H249550   3.037   0.192  13.473  0.6418 -1.2944 -0.3334
 9379TIP3   OH249551   2.915   1.291  12.358 -0.5471  0.1304 -0.5425
 9379TIP3    H149552   2.866   1.293  12.276 -0.6859  2.0014 -0.4300
 9379TIP3    H249553   2.994   1.342  12.340  0.0165 -0.4867  0.1329
 9380TIP3   OH249554   2.484   2.994   2.329 -0.5181 -0.6229  0.9051
 9380TIP3    H149555   2.441   2.946   2.259  0.7639 -1.1228  0.4625
 9380TIP3    H249556   2.414   3.048   2.367 -2.0784 -3.1321  1.7067
 9381TIP3   OH249557   6.437   1.997  13.050  0.7054 -0.4618  0.0776
 9381TIP3    H149558   6.498   2.049  12.997  1.2780 -0.7758  0.4229
 9381TIP3    H249559   6.489   1.966  13.124  0.1120 -0.6917  0.4068
 9382TIP3   OH249560   4.691   2.136  12.760 -0.4281  0.3058 -0.1466
 9382TIP3    H149561   4.679   2.148  12.665  1.4900  3.5215 -0.0368
 9382TIP3    H249562   4.634   2.201  12.800 -1.9898 -1.7197  0.9787
 9383TIP3   OH249563   5.020   6.471   0.398 -0.3491  0.1492 -0.1409
 9383TIP3    H149564   5.113   6.484   0.378 -0.1050  1.0874  1.4898
 9383TIP3    H249565   4.975   6.497   0.318  0.7817 -0.0784 -0.8614
 9384TIP3   OH249566   2.193   3.434   0.153  0.4428  0.6800  0.2140
 9384TIP3    H149567   2.118   3.473   0.197 -0.3774  1.1434 -1.5224
 9384TIP3    H249568   2.163   3.345   0.130  1.3547 -0.0555  1.7817
 9385TIP3   OH249569   4.512   1.937  13.586  0.0995 -0.3450  0.3278
 9385TIP3    H149570   4.515   2.023  13.629 -1.7345 -0.5635  0.9157
 9385TIP3    H249571   4.604   1.918  13.566  0.8098  0.5661  2.5477
 9386TIP3   OH249572   3.189   4.929  16.101 -0.1324  0.1914  0.0663
 9386TIP3    H149573   3.116   4.924  16.162 -1.6728 -0.2681 -1.7750
 9386TIP3    H249574   3.189   5.020  16.070 -0.6735 -0.1095 -0.8270
 9387TIP3   OH249575   2.008   5.074   5.176  0.0650  0.1763 -0.1520
 9387TIP3    H149576   2.092   5.119   5.185  0.4104 -0.5504  0.3559
 9387TIP3    H249577   1.973   5.071   5.265  0.2050 -0.8612 -0.1280
 9388TIP3   OH249578   0.967   1.889   3.369  0.0918 -0.0026 -0.1051
 9388TIP3    H149579   0.922   1.876   3.453 -2.4320  2.0929 -1.0689
 9388TIP3    H249580   1.057   1.910   3.393 -0.4011 -0.1840  2.0391
 9389TIP3   OH249581   5.060   1.226   6.333  0.1576  0.8150  0.2847
 9389TIP3    H149582   4.967   1.225   6.352 -0.4668  0.1078 -2.5814
 9389TIP3    H249583   5.077   1.314   6.299  0.2976  0.5638 -0.3003
 9390TIP3   OH249584   0.877   6.187   0.278  0.6607  0.0888 -0.5941
 9390TIP3    H149585   0.915   6.207   0.363 -0.8564 -0.5004  0.2504
 9390TIP3    H249586   0.952   6.169   0.221  1.8078  3.0393 -0.0719
 9391TIP3   OH249587   0.292   3.818   2.151 -0.3865  0.1378  0.4143
 9391TIP3    H149588   0.209   3.866   2.147 -0.4390  0.0725  0.7047
 9391TIP3    H249589   0.357   3.885   2.171 -0.0295  0.5729 -2.1330
 9392TIP3   OH249590   6.400   1.419  15.568 -0.1407  0.5771  0.0610
 9392TIP3    H149591   6.309   1.429  15.596 -0.8844  0.9606 -2.3964
 9392TIP3    H249592   6.447   1.487  15.615 -1.5319  1.9003 -0.4183
 9393TIP3   OH249593   2.984   1.698   2.006  0.1843 -0.2480 -0.1910
 9393TIP3    H149594   3.031   1.768   2.053  0.4156 -1.1900  1.0237
 9393TIP3    H249595   2.930   1.744   1.942 -0.0922  1.0828  0.9710
 9394TIP3   OH249596   2.259   0.808  15.490  0.5732 -0.5814  0.4735
 9394TIP3    H149597   2.244   0.714  15.478  2.4321 -0.9612  1.0501
 9394TIP3    H249598   2.346   0.814  15.529  0.1398  1.3498  1.1906
 9395TIP3   OH249599   6.717   4.270   5.508 -0.1945  0.4044  0.1022
 9395TIP3    H149600   6.659   4.202   5.543  0.9866 -0.7055 -0.0620
 9395TIP3    H249601   6.758   4.229   5.432  0.2408  1.4428 -0.2306
 9396TIP3   OH249602   0.838   6.636   3.517  0.4800  0.4431 -0.0968
 9396TIP3    H149603   0.841   6.593   3.431 -1.2456  1.6426 -0.7855
 9396TIP3    H249604   0.748   6.624   3.547  1.5048 -1.5187  2.3982
 9397TIP3   OH249605   0.770   1.228  11.102  0.4892 -0.2193  0.7997
 9397TIP3    H149606   0.759   1.279  11.021 -0.2281 -0.4357  0.7620
 9397TIP3    H249607   0.700   1.260  11.160 -0.7022 -1.9924  0.3582
 9398TIP3   OH249608   0.402   5.155   4.511  0.3079  0.2819  0.2892
 9398TIP3    H149609   0.416   5.061   4.514 -1.3334 -0.2171 -3.7210
 9398TIP3    H249610   0.333   5.172   4.575  0.2180 -1.3174  0.6266
 9399TIP3   OH249611   6.367   5.308   1.712  0.0976 -0.1275  0.2121
 9399TIP3    H149612   6.428   5.379   1.694 -0.2215  0.4025  1.1695
 9399TIP3    H249613   6.301   5.347   1.770 -3.2461  0.3415 -3.6859
 9400TIP3   OH249614   3.981   5.600  16.041 -0.7126  0.1944  0.5103
 9400TIP3    H149615   4.072   5.627  16.053 -0.7131 -0.0125  0.9931
 9400TIP3    H249616   3.964   5.539  16.113 -1.1584  0.0435  0.2810
 9401TIP3   OH249617   3.834   2.452   2.557 -0.3631 -0.0132  0.3750
 9401TIP3    H149618   3.895   2.388   2.595  0.7164  0.0841 -1.1650
 9401TIP3    H249619   3.749   2.408   2.559  0.0391 -0.7864  1.0014
 9402TIP3   OH249620   5.609   5.363  16.079 -0.2037  0.3424 -0.4668
 9402TIP3    H149621   5.567   5.380  16.163  1.9513 -0.5270  0.8224
 9402TIP3    H249622   5.563   5.286  16.045  0.1591 -0.4545  0.8126
 9403TIP3   OH249623   2.405   1.025   5.429  0.0627  0.1642 -0.1616
 9403TIP3    H149624   2.418   1.023   5.334 -1.4379 -0.0990 -0.3654
 9403TIP3    H249625   2.323   1.072   5.441  0.2786  0.2437  1.0156
 9404TIP3   OH249626   2.151   5.051   4.938  0.1107 -0.1418 -0.0455
 9404TIP3    H149627   2.093   5.024   5.009 -0.3935 -0.0363 -0.4155
 9404TIP3    H249628   2.134   5.145   4.927 -1.2428 -0.5270 -1.5880
 9405TIP3   OH249629   2.675   2.202   4.566  0.2041  0.3944  0.2017
 9405TIP3    H149630   2.656   2.141   4.638  0.7414 -0.1293 -0.0959
 9405TIP3    H249631   2.738   2.264   4.603 -0.7263  1.0753  0.6579
 9406TIP3   OH249632   1.931   1.864  15.619  0.2505 -0.0218 -1.2694
 9406TIP3    H149633   1.964   1.851  15.708  2.0966 -1.5691 -2.1502
 9406TIP3    H249634   2.001   1.912  15.575 -1.5373  2.6013 -1.3469
 9407TIP3   OH249635   4.204   2.935  11.796  0.0295 -0.6450  0.4095
 9407TIP3    H149636   4.190   2.984  11.715  0.0954  1.7298  1.7861
 9407TIP3    H249637   4.171   2.992  11.865 -1.5565 -3.3123  1.9687
 9408TIP3   OH249638   6.273   1.914   3.079 -0.3980  0.3112  0.1649
 9408TIP3    H149639   6.257   1.924   3.173  0.0143  0.7785  0.1853
 9408TIP3    H249640   6.363   1.881   3.073 -0.4902  0.0951 -0.0599
 9409TIP3   OH249641   0.042   4.469  12.168 -0.2312  0.4121 -0.1666
 9409TIP3    H149642   0.070   4.478  12.259 -0.7381 -1.4122  0.1925
 9409TIP3    H249643   0.007   4.555  12.145  0.3061  1.0086  1.2283
 9410TIP3   OH249644   1.407   0.926   1.341 -0.3789 -0.9165  0.4366
 9410TIP3    H149645   1.391   1.007   1.293 -2.6938 -1.3530  0.3912
 9410TIP3    H249646   1.429   0.862   1.273  1.7906 -0.2722  0.5058
 9411TIP3   OH249647   4.494   0.941   3.389 -0.0153  0.0030 -0.2930
 9411TIP3    H149648   4.531   0.980   3.310  0.6297 -0.9676 -0.4774
 9411TIP3    H249649   4.407   0.911   3.364  0.4137 -0.8248 -0.7883
 9412TIP3   OH249650   2.968   3.762  15.011 -0.6391  0.0956  0.1315
 9412TIP3    H149651   2.914   3.733  15.085  0.3459  0.3607  0.9680
 9412TIP3    H249652   2.991   3.682  14.965 -1.5620 -0.0423 -0.1144
 9413TIP3   OH249653   4.158   2.823  16.042  0.4269 -0.4962 -0.5074
 9413TIP3    H149654   4.170   2.799  16.134 -1.5955 -0.4525 -0.2232
 9413TIP3    H249655   4.128   2.743  15.999 -0.6256  0.0013 -0.7192
 9414TIP3   OH249656   1.207   1.806   2.517  0.2374  0.0139  0.0358
 9414TIP3    H149657   1.252   1.883   2.550 -1.2375  0.6132  0.6891
 9414TIP3    H249658   1.116   1.816   2.546 -0.0886 -1.7155 -0.2886
 9415TIP3   OH249659   6.366   3.007   2.742  0.4494 -0.0985  0.1828
 9415TIP3    H149660   6.288   2.975   2.698  0.4658  0.0390  0.0502
 9415TIP3    H249661   6.388   2.940   2.806  1.5124 -1.1948 -1.3073
 9416TIP3   OH249662   1.914   3.997   3.877 -0.6457 -0.6669  0.0212
 9416TIP3    H149663   1.906   3.911   3.919  1.7316 -1.1181 -0.4129
 9416TIP3    H249664   1.940   3.976   3.787 -0.1566  0.5228 -0.1109
 9417TIP3   OH249665   5.081   1.525   1.855  0.1291 -0.1629 -0.3298
 9417TIP3    H149666   5.132   1.455   1.814 -1.3612 -1.9085  0.6979
 9417TIP3    H249667   5.050   1.579   1.782  1.6225 -0.3462 -1.1107
 9418TIP3   OH249668   2.009   4.365  16.453 -0.3664 -0.5104 -0.6548
 9418TIP3    H149669   2.022   4.384  16.546 -2.0901  0.4750 -0.5803
 9418TIP3    H249670   2.035   4.274  16.443  1.0492 -0.2459  0.5290
 9419TIP3   OH249671   5.653   5.546  16.496 -0.1522  0.0352 -0.1326
 9419TIP3    H149672   5.724   5.604  16.523 -1.5896  1.8217 -0.1422
 9419TIP3    H249673   5.633   5.572  16.406  0.2740 -1.5756 -0.7222
 9420TIP3   OH249674   3.217   2.483   6.906 -0.3193 -0.0416  0.0212
 9420TIP3    H149675   3.306   2.485   6.869 -0.6104 -0.0684 -0.6877
 9420TIP3    H249676   3.174   2.411   6.861 -0.8810  0.3409 -0.0586
 9421TIP3   OH249677   4.285   6.532   6.079  0.1315  0.1587 -0.2598
 9421TIP3    H149678   4.294   6.615   6.126 -1.9856 -0.2121  0.8584
 9421TIP3    H249679   4.248   6.472   6.143  2.4395 -1.9339 -0.7933
 9422TIP3   OH249680   6.348   3.701   0.862  0.0845  0.3555  0.8410
 9422TIP3    H149681   6.387   3.702   0.949 -2.0952 -0.0668  1.8730
 9422TIP3    H249682   6.405   3.757   0.809  1.7227  0.2040  2.4004
 9423TIP3   OH249683   4.985   3.465  10.907 -0.2453 -0.3611  0.1206
 9423TIP3    H149684   5.049   3.430  10.844  1.2124  0.2082  1.2392
 9423TIP3    H249685   4.907   3.483  10.854  0.8915 -0.0140 -1.5008
 9424TIP3   OH249686   2.036   4.107   1.088 -0.0414  0.8154  0.4519
 9424TIP3    H149687   1.995   4.190   1.062 -0.1262  0.6440  0.0416
 9424TIP3    H249688   1.972   4.066   1.147 -0.2787  0.7460  0.1487
 9425TIP3   OH249689   5.300   2.344   5.073  0.6552 -0.2264  0.4696
 9425TIP3    H149690   5.388   2.378   5.090 -0.0718  2.0930 -0.2393
 9425TIP3    H249691   5.307   2.249   5.089  2.7765  0.2086  2.3980
 9426TIP3   OH249692   6.212   1.119   0.421  0.0790 -0.3261 -0.2847
 9426TIP3    H149693   6.186   1.175   0.348 -0.5434  0.1476  0.2913
 9426TIP3    H249694   6.260   1.178   0.480  0.0433 -0.5602 -0.0185
 9427TIP3   OH249695   4.568   5.817   3.111  0.1842 -0.1586 -0.0671
 9427TIP3    H149696   4.576   5.814   3.015  1.8156  0.0240  0.0499
 9427TIP3    H249697   4.589   5.728   3.139  2.4985  0.4639  0.2856
 9428TIP3   OH249698   3.236   6.313  12.925 -0.1840  0.4745 -0.2324
 9428TIP3    H149699   3.319   6.303  12.972 -0.4278 -1.5176 -0.1908
 9428TIP3    H249700   3.253   6.276  12.838 -0.9095  0.4877 -0.3791
 9429TIP3   OH249701   0.829   2.822   4.633  0.1001 -0.5777  0.1370
 9429TIP3    H149702   0.734   2.832   4.626  0.0641 -0.7426  0.3748
 9429TIP3    H249703   0.862   2.911   4.642  0.1710 -0.3318 -2.2268
 9430TIP3   OH249704   3.378   4.558   3.805 -0.1677  0.3379 -0.4626
 9430TIP3    H149705   3.367   4.609   3.725  0.2489  1.4544  0.1728
 9430TIP3    H249706   3.292   4.561   3.847  0.0896  1.3193  0.0228
 9431TIP3   OH249707   0.866   5.209  11.753  0.4675 -0.1021 -0.0195
 9431TIP3    H149708   0.948   5.189  11.798 -0.1036 -0.3767  0.9264
 9431TIP3    H249709   0.876   5.299  11.722  0.8078  0.1560  0.8245
 9432TIP3   OH249710   4.908   0.581   1.614 -0.1727  0.1859 -0.9625
 9432TIP3    H149711   4.966   0.612   1.545  1.3757 -0.4554  0.0220
 9432TIP3    H249712   4.860   0.508   1.574  1.3967 -0.8038 -1.0970
 9433TIP3   OH249713   6.445   6.017   3.002  0.4138 -0.2637  0.1135
 9433TIP3    H149714   6.406   6.037   3.087  0.0793  1.5374 -0.4400
 9433TIP3    H249715   6.416   6.088   2.945  0.3871 -1.6094 -1.5946
 9434TIP3   OH249716   5.102   4.568   4.333 -0.3318 -0.3462 -0.0730
 9434TIP3    H149717   5.172   4.563   4.398 -0.7587  0.5418  0.4641
 9434TIP3    H249718   5.137   4.524   4.256  1.7086  2.1339 -0.6001
 9435TIP3   OH249719   1.986   1.579  11.660  0.0618  0.8401  0.0998
 9435TIP3    H149720   2.031   1.499  11.631 -0.9092  0.6129 -0.8208
 9435TIP3    H249721   1.997   1.580  11.755  1.3407  0.3808 -0.0366
 9436TIP3   OH249722   6.648   1.823   2.700  0.2224  0.2908 -0.4464
 9436TIP3    H149723   6.614   1.836   2.612  0.6515  0.6821 -0.5562
 9436TIP3    H249724   6.705   1.899   2.716  1.2499 -0.4727 -0.3701
 9437TIP3   OH249725   1.883   3.021   0.629 -0.5727 -0.0896 -0.3307
 9437TIP3    H149726   1.900   2.944   0.575  1.0440 -0.1776  0.2852
 9437TIP3    H249727   1.802   3.058   0.594  0.0015 -0.6271 -2.2582
 9438TIP3   OH249728   6.000   3.539  14.492 -0.7536  0.2499  0.0760
 9438TIP3    H149729   6.060   3.526  14.418 -1.4243 -0.9235 -0.2753
 9438TIP3    H249730   6.054   3.521  14.569 -0.4774 -0.1714 -0.2091
 9439TIP3   OH249731   3.900   0.626  16.552 -0.4940 -0.2202 -0.0903
 9439TIP3    H149732   3.976   0.684  16.549 -1.2109  0.7022 -0.3836
 9439TIP3    H249733   3.931   0.550  16.602  0.3998  0.4636  0.4195
 9440TIP3   OH249734   6.267   6.009   4.802 -0.4689  0.8129 -0.2753
 9440TIP3    H149735   6.344   6.022   4.746  0.1847  0.6270  0.5747
 9440TIP3    H249736   6.193   6.013   4.741  0.2366  0.5532 -1.1694
 9441TIP3   OH249737   6.075   4.977  13.601  0.6738 -0.0651 -0.3653
 9441TIP3    H149738   5.995   4.947  13.558 -0.0117 -0.1487  0.9368
 9441TIP3    H249739   6.082   4.923  13.679  1.5815  0.4679 -0.0678
 9442TIP3   OH249740   3.932   5.583  14.220  0.2349  0.2263  0.1118
 9442TIP3    H149741   3.904   5.494  14.242  0.9238  0.2251  1.0176
 9442TIP3    H249742   3.936   5.584  14.125 -4.3032  0.6667 -0.2124
 9443TIP3   OH249743   4.747   5.632  17.197 -0.1104 -0.5929  0.0495
 9443TIP3    H149744   4.736   5.537  17.203 -0.8787 -0.4345  1.3143
 9443TIP3    H249745   4.680   5.668  17.255 -0.0617  0.7386 -0.6981
 9444TIP3   OH249746   3.758   5.393  11.374  0.1028  0.1609 -0.4195
 9444TIP3    H149747   3.785   5.375  11.464 -2.3824  0.3977  0.4357
 9444TIP3    H249748   3.684   5.454  11.384  0.0317  0.4588 -2.6286
 9445TIP3   OH249749   4.655   3.843  16.407  0.1494 -0.5446  0.1895
 9445TIP3    H149750   4.599   3.851  16.484  0.6816  1.2547  0.4020
 9445TIP3    H249751   4.625   3.762  16.364 -3.1961  0.8346 -0.1982
 9446TIP3   OH249752   2.669   4.704   3.820  0.6571 -0.1036 -1.0201
 9446TIP3    H149753   2.603   4.761   3.859  2.3663  1.8414 -0.8769
 9446TIP3    H249754   2.741   4.704   3.883  1.2982 -1.2397 -1.7328
 9447TIP3   OH249755   5.010   0.991  16.122 -0.1037 -0.3776 -0.1057
 9447TIP3    H149756   5.075   1.027  16.183 -0.5991  0.2408  0.0674
 9447TIP3    H249757   4.966   1.068  16.086  0.8752 -0.7013 -2.0290
 9448TIP3   OH249758   1.261   4.663  15.499 -0.1923 -0.0007 -0.3776
 9448TIP3    H149759   1.321   4.597  15.534  0.1158 -0.7191 -2.2010
 9448TIP3    H249760   1.306   4.746  15.513 -0.7692 -0.1040  2.3225
 9449TIP3   OH249761   4.295   3.326  11.687 -0.1642  0.7557 -0.1883
 9449TIP3    H149762   4.326   3.240  11.716  0.5818  0.4505 -1.8404
 9449TIP3    H249763   4.327   3.387  11.754  2.0408  0.1413 -0.6433
 9450TIP3   OH249764   1.585   1.264  16.749  0.0362  0.1368 -0.1519
 9450TIP3    H149765   1.506   1.284  16.698  0.4223 -0.3817 -0.9665
 9450TIP3    H249766   1.622   1.349  16.772 -0.4499  0.3782 -0.2578
 9451TIP3   OH249767   2.896   0.015   2.074 -0.3083  0.2703 -0.0022
 9451TIP3    H149768   2.910   0.083   2.008 -0.2843 -0.2266 -0.5084
 9451TIP3    H249769   2.915  -0.067   2.029  0.4092 -0.0234  0.8271
 9452TIP3   OH249770   0.392   5.065  11.802 -0.6225  0.1490  0.1125
 9452TIP3    H149771   0.400   5.049  11.708 -1.7183  0.2323  0.0015
 9452TIP3    H249772   0.472   5.111  11.825 -0.7976  1.0258 -0.9795
 9453TIP3   OH249773   5.084   6.494  16.599  0.0451  0.1987 -0.0341
 9453TIP3    H149774   5.171   6.519  16.567  0.2127  0.8008  0.8642
 9453TIP3    H249775   5.029   6.570  16.582 -0.2197 -0.0317 -0.2277
 9454TIP3   OH249776   6.389   2.494   1.796 -0.0647 -0.4697 -0.2770
 9454TIP3    H149777   6.386   2.590   1.799 -0.4294 -0.4489 -1.1242
 9454TIP3    H249778   6.453   2.475   1.727 -0.2040 -0.8367 -0.3027
 9455TIP3   OH249779   0.517   1.123  13.943 -0.3603 -0.2705 -0.5984
 9455TIP3    H149780   0.572   1.093  13.871 -0.8914 -0.8831 -0.7595
 9455TIP3    H249781   0.574   1.121  14.020 -0.7244 -2.9543 -0.3682
 9456TIP3   OH249782   4.686   5.600  16.845  0.6180 -0.0474 -0.2247
 9456TIP3    H149783   4.689   5.695  16.851  0.4549 -0.0974  0.7110
 9456TIP3    H249784   4.768   5.570  16.883  0.5476 -0.2937 -0.2657
 9457TIP3   OH249785   1.406   0.567  13.737 -0.1526 -0.4170  0.1344
 9457TIP3    H149786   1.419   0.492  13.679  2.8243 -1.9327  2.5775
 9457TIP3    H249787   1.366   0.530  13.816  0.0419  0.7943  0.8150
 9458TIP3   OH249788   3.423   6.163  16.494 -0.1133  0.0082  0.0132
 9458TIP3    H149789   3.403   6.089  16.437  0.5782 -0.1650 -0.0065
 9458TIP3    H249790   3.500   6.204  16.454 -0.4049  0.6541  0.1034
 9459TIP3   OH249791   4.325   5.870   0.569 -0.3470  0.6763  0.8481
 9459TIP3    H149792   4.241   5.871   0.615 -1.1399  0.4420 -0.5882
 9459TIP3    H249793   4.390   5.868   0.640 -1.5489  0.3102  1.9741
 9460TIP3   OH249794   0.411   4.383   6.069  0.0985  0.5988 -0.6935
 9460TIP3    H149795   0.352   4.309   6.054 -0.8867  0.9488  1.2164
 9460TIP3    H249796   0.352   4.459   6.071  0.6039  0.9712  1.0913
 9461TIP3   OH249797   4.786   5.597   1.012 -0.4551 -0.2012  0.2897
 9461TIP3    H149798   4.754   5.517   1.055  1.0836 -0.2492  1.3984
 9461TIP3    H249799   4.878   5.578   0.991 -0.9569  0.1349 -2.3198
 9462TIP3   OH249800   0.638   2.635   0.796 -0.2594  0.0402 -0.3538
 9462TIP3    H149801   0.716   2.579   0.787 -0.0695  0.0473  1.1126
 9462TIP3    H249802   0.566   2.574   0.810 -0.4686  0.0538 -1.3197
 9463TIP3   OH249803   2.767   3.658   4.628  0.2540  0.0419 -0.2755
 9463TIP3    H149804   2.823   3.671   4.552  0.4385  1.7840  0.1367
 9463TIP3    H249805   2.827   3.662   4.703 -0.2940  0.9279  0.1100
 9464TIP3   OH249806   1.383   3.436   5.804 -0.2920 -0.0375 -0.0042
 9464TIP3    H149807   1.356   3.404   5.718 -0.4543 -1.0074  0.3944
 9464TIP3    H249808   1.466   3.391   5.821  1.4795  2.7275 -1.1107
 9465TIP3   OH249809   1.443   4.207  12.512  0.2648 -0.1085 -0.1697
 9465TIP3    H149810   1.439   4.114  12.493  1.0857 -0.8496  2.9524
 9465TIP3    H249811   1.372   4.221  12.575  0.9710  1.0946  0.3825
 9466TIP3   OH249812   1.220   2.118   0.444  0.1504 -0.5237  0.1340
 9466TIP3    H149813   1.167   2.188   0.406 -0.6627 -0.5744  1.1372
 9466TIP3    H249814   1.235   2.057   0.372  2.6150  1.6755 -1.2765
 9467TIP3   OH249815   6.259   5.757   4.936 -0.1546  0.3634 -0.1786
 9467TIP3    H149816   6.254   5.718   4.848 -1.3980 -0.3717  0.2047
 9467TIP3    H249817   6.236   5.849   4.922 -1.3714  0.0253 -0.4934
 9468TIP3   OH249818   2.556   3.301  14.796  0.1449 -0.5038  0.1465
 9468TIP3    H149819   2.559   3.364  14.868 -0.2305  1.5898 -1.6060
 9468TIP3    H249820   2.647   3.273  14.784  0.3904  0.0685  0.6633
 9469TIP3   OH249821   0.281   5.044  12.950  1.0959 -0.5927 -0.1735
 9469TIP3    H149822   0.224   5.037  13.027  1.1885 -0.1026 -0.0549
 9469TIP3    H249823   0.328   4.961  12.947  1.2634 -0.5285  0.4389
 9470TIP3   OH249824   5.461   2.420   0.189 -0.1019  0.2824  0.2757
 9470TIP3    H149825   5.449   2.326   0.182 -0.9539  0.1574  2.7518
 9470TIP3    H249826   5.375   2.453   0.218  0.0378  1.8811 -1.0709
 9471TIP3   OH249827   6.782   2.568   4.601  0.4402  0.0475 -0.1043
 9471TIP3    H149828   6.704   2.512   4.603  0.4494  0.0531  0.4910
 9471TIP3    H249829   6.854   2.508   4.622  0.3632  0.4161  1.2576
 9472TIP3   OH249830   2.143   4.353  13.584 -0.6905 -0.0450 -0.1703
 9472TIP3    H149831   2.110   4.264  13.575 -2.0904  0.2784  1.6420
 9472TIP3    H249832   2.197   4.351  13.664 -0.9065  0.7860  0.0034
 9473TIP3   OH249833   1.772   3.527  14.811 -0.3699 -0.8842  0.1118
 9473TIP3    H149834   1.684   3.507  14.844 -2.1517  0.8290 -3.2967
 9473TIP3    H249835   1.794   3.610  14.852 -0.7740 -0.8340  0.2338
 9474TIP3   OH249836   1.286   5.891  13.645  0.1518  0.0344 -0.2581
 9474TIP3    H149837   1.295   5.862  13.555 -3.0103  0.7463 -0.8504
 9474TIP3    H249838   1.251   5.815  13.691 -0.1738  0.3128 -0.0475
 9475TIP3   OH249839   3.235   5.899   4.790  0.4421  0.0268 -0.1710
 9475TIP3    H149840   3.196   5.982   4.819 -1.3589 -1.4658  1.7844
 9475TIP3    H249841   3.313   5.889   4.845 -0.3148 -0.4431  0.8154
 9476TIP3   OH249842   4.667   4.959  11.759  0.3263  0.2530 -0.0183
 9476TIP3    H149843   4.752   5.004  11.759 -0.6137  2.0634  0.3461
 9476TIP3    H249844   4.655   4.928  11.849  0.2349  0.6838  0.1152
 9477TIP3   OH249845   2.417   5.772   0.205 -0.3387 -0.4041 -0.8321
 9477TIP3    H149846   2.448   5.705   0.265  0.2974 -0.0546 -0.7538
 9477TIP3    H249847   2.357   5.727   0.145 -0.8912 -0.7714 -0.0026
 9478TIP3   OH249848   1.585   6.265   1.565  0.3207 -0.0957 -0.6002
 9478TIP3    H149849   1.655   6.280   1.628  0.7516 -0.8262 -0.9060
 9478TIP3    H249850   1.533   6.346   1.568  0.5370  0.0159  0.4311
 9479TIP3   OH249851   6.202   4.652   0.663  0.3780 -0.3279 -0.0479
 9479TIP3    H149852   6.170   4.679   0.749 -0.2797 -0.1102 -0.3545
 9479TIP3    H249853   6.182   4.559   0.657 -2.2833  0.2600 -1.1228
 9480TIP3   OH249854   3.146   5.865   2.648  0.3713 -0.3215 -0.2751
 9480TIP3    H149855   3.175   5.946   2.689  1.6958  0.0943 -1.9883
 9480TIP3    H249856   3.063   5.888   2.606  1.4039  0.5407 -1.9038
 9481TIP3   OH249857   5.484   0.697   0.997  0.5888 -0.1635  0.4001
 9481TIP3    H149858   5.429   0.775   0.992 -2.4782 -2.3159 -0.7698
 9481TIP3    H249859   5.547   0.708   0.925 -1.0496  0.3172 -0.9795
 9482TIP3   OH249860   6.490   2.373   4.181 -0.1953  0.1009  0.0750
 9482TIP3    H149861   6.552   2.371   4.253 -0.3192 -0.5707  0.1629
 9482TIP3    H249862   6.441   2.291   4.188  0.5971 -0.5217 -1.4602
 9483TIP3   OH249863   6.403   3.826   3.527  0.0670  0.1107 -0.0351
 9483TIP3    H149864   6.493   3.814   3.556 -0.0987  0.2160  0.5203
 9483TIP3    H249865   6.354   3.846   3.607 -0.0661  2.2253 -0.6178
 9484TIP3   OH249866   1.853   0.121  15.295 -0.2213  0.2065  0.1764
 9484TIP3    H149867   1.948   0.111  15.287 -0.3595 -0.9056 -0.1569
 9484TIP3    H249868   1.826   0.046  15.348 -1.2512 -0.9374 -1.9325
 9485TIP3   OH249869   5.367   3.735   4.706 -0.0629 -0.4595 -0.7902
 9485TIP3    H149870   5.289   3.773   4.746  0.3948 -0.3845  0.0388
 9485TIP3    H249871   5.343   3.645   4.685 -0.2504 -0.5431 -0.2051
 9486TIP3   OH249872   5.598   2.060   0.305 -0.2727 -0.2945 -0.1984
 9486TIP3    H149873   5.522   2.096   0.261 -0.3441  0.5426  0.6064
 9486TIP3    H249874   5.576   2.061   0.398 -0.4016 -2.7024 -0.1636
 9487TIP3   OH249875   5.777   4.946   2.164  0.0056  0.0313 -0.1139
 9487TIP3    H149876   5.756   4.859   2.132  0.2106 -0.1674  0.2895
 9487TIP3    H249877   5.716   4.961   2.237 -0.7779  0.6721 -0.8992
 9488TIP3   OH249878   6.497   1.669  14.417  0.3692 -0.5562 -0.3751
 9488TIP3    H149879   6.514   1.698  14.327  1.0924  1.3029  0.3326
 9488TIP3    H249880   6.430   1.729  14.449  2.7173  1.1774  1.4953
 9489TIP3   OH249881   6.616   0.490   4.870  0.3461 -0.2195 -0.1116
 9489TIP3    H149882   6.601   0.522   4.959 -1.7551  1.9590 -1.1809
 9489TIP3    H249883   6.533   0.449   4.845  0.5067  0.2713 -1.4856
 9490TIP3   OH249884   4.660   2.360  16.787  0.6420  0.5069 -0.0409
 9490TIP3    H149885   4.679   2.380  16.879 -0.7377 -0.7435  0.5259
 9490TIP3    H249886   4.584   2.302  16.789  0.7259  0.2723 -1.9637
 9491TIP3   OH249887   5.665   4.746   5.116  0.0405 -0.7752  0.3673
 9491TIP3    H149888   5.591   4.795   5.080  3.2430  3.6238 -0.4784
 9491TIP3    H249889   5.665   4.768   5.209  2.0412  1.6569 -0.1832
 9492TIP3   OH249890   0.227   1.472   6.605  0.8624 -0.1216  0.2109
 9492TIP3    H149891   0.153   1.424   6.567  0.8188  0.5196 -0.5169
 9492TIP3    H249892   0.189   1.520   6.679 -0.0452  2.4149 -1.8353
 9493TIP3   OH249893   2.368   1.228   0.250 -0.2847 -0.5623 -0.3166
 9493TIP3    H149894   2.400   1.158   0.192 -0.1219 -1.3962  0.7555
 9493TIP3    H249895   2.274   1.214   0.254 -0.0617 -1.7985  1.2440
 9494TIP3   OH249896   0.820   0.226   2.269 -0.1045 -0.1052  0.0394
 9494TIP3    H149897   0.806   0.141   2.310 -0.4335  0.1216  0.3929
 9494TIP3    H249898   0.901   0.259   2.307 -1.1579  0.7482  1.5800
 9495TIP3   OH249899   0.952   2.709   0.336 -0.1000  0.2808 -0.5858
 9495TIP3    H149900   1.009   2.740   0.265  0.2809 -3.3975 -2.0188
 9495TIP3    H249901   0.904   2.636   0.297 -0.6240 -1.1890  2.6768
 9496TIP3   OH249902   5.504   6.345  14.082  0.4421  0.1175  0.6946
 9496TIP3    H149903   5.493   6.430  14.041  3.4738  0.7486  1.0455
 9496TIP3    H249904   5.598   6.328  14.077 -0.1467 -3.4151  0.2265
 9497TIP3   OH249905   6.052   0.355  11.363  0.0696 -0.3036  0.2531
 9497TIP3    H149906   6.025   0.289  11.299  0.8063 -3.2074  2.8081
 9497TIP3    H249907   5.972   0.403  11.383 -0.5178 -0.4706 -1.5763
 9498TIP3   OH249908   3.057   0.612  15.785 -0.7819 -0.1943 -0.2229
 9498TIP3    H149909   3.038   0.688  15.839 -2.6233 -0.3387 -0.6093
 9498TIP3    H249910   3.003   0.542  15.823 -2.2308 -0.2536 -2.2845
 9499TIP3   OH249911   1.527   1.699  16.221 -0.1566 -0.3694 -0.3849
 9499TIP3    H149912   1.547   1.789  16.194 -0.2974 -0.3731 -0.4986
 9499TIP3    H249913   1.561   1.693  16.310  2.1237 -0.9635 -1.2541
 9500TIP3   OH249914   1.981   4.652  15.296 -0.2338  0.3114  0.3674
 9500TIP3    H149915   2.002   4.696  15.378  1.2894  1.1711 -0.4431
 9500TIP3    H249916   2.060   4.601  15.275 -1.1159 -0.9776  0.1240
 9501TIP3   OH249917   3.356   3.390   3.104  0.0591 -0.6511 -0.5125
 9501TIP3    H149918   3.288   3.342   3.057  0.4869 -0.7507 -1.0289
 9501TIP3    H249919   3.360   3.475   3.061 -1.8112  0.4382  1.4194
 9502TIP3   OH249920   3.699   4.539  11.451  0.1251 -0.5076 -0.0126
 9502TIP3    H149921   3.701   4.448  11.482  1.3413 -0.4051  0.2171
 9502TIP3    H249922   3.694   4.591  11.531 -2.4830 -0.4047 -0.1902
 9503TIP3   OH249923   3.665   6.008   4.294 -0.0700 -0.4505 -0.9071
 9503TIP3    H149924   3.742   5.951   4.297  1.0648  1.1698  2.2685
 9503TIP3    H249925   3.618   5.989   4.375 -1.2163  1.0457 -1.2103
 9504TIP3   OH249926   2.190   5.286  14.476 -0.0877  0.3595 -0.2948
 9504TIP3    H149927   2.124   5.259  14.540  0.3506  1.8959  0.8331
 9504TIP3    H249928   2.167   5.238  14.396 -0.5183 -1.7403  1.0507
 9505TIP3   OH249929   1.633   4.283   2.468 -0.0401  0.1815 -0.1628
 9505TIP3    H149930   1.632   4.377   2.446 -0.9234  0.2085 -0.0288
 9505TIP3    H249931   1.683   4.278   2.549 -4.1015  1.1700  2.5515
 9506TIP3   OH249932   5.408   5.921   2.159 -0.3243  0.3474  0.3062
 9506TIP3    H149933   5.429   6.013   2.176  0.2722  0.5284 -1.3063
 9506TIP3    H249934   5.487   5.885   2.120 -1.1373 -0.3979 -0.6766
 9507TIP3   OH249935   5.170   3.983  14.679  1.3046 -0.1141 -0.5167
 9507TIP3    H149936   5.098   3.963  14.740  1.7842 -1.8133 -0.4885
 9507TIP3    H249937   5.200   4.070  14.706 -0.7095  0.6232 -0.5047
 9508TIP3   OH249938   5.391   1.548  12.684  0.2514 -0.0603 -0.3720
 9508TIP3    H149939   5.355   1.637  12.677 -0.4926 -0.3029  0.3288
 9508TIP3    H249940   5.386   1.514  12.594  0.1095  0.4407 -0.5578
 9509TIP3   OH249941   4.073   4.268  16.847 -0.2008 -0.3496  0.5246
 9509TIP3    H149942   4.088   4.259  16.941 -0.9878 -1.6847  0.5408
 9509TIP3    H249943   4.139   4.211  16.807 -0.2937 -0.3036  0.3079
 9510TIP3   OH249944   1.242   3.894   0.906  0.5333 -0.0418  0.4592
 9510TIP3    H149945   1.234   3.804   0.875  1.8294  0.1552 -0.4719
 9510TIP3    H249946   1.335   3.903   0.928  0.4647  1.1645  0.2574
 9511TIP3   OH249947   4.826   2.201   4.240  0.4683  0.2694  0.1334
 9511TIP3    H149948   4.732   2.221   4.250  0.4587 -0.6944  2.0811
 9511TIP3    H249949   4.831   2.153   4.157 -0.7245  0.5469 -0.1173
 9512TIP3   OH249950   6.730   1.837   4.982  0.0531 -0.0399  0.6137
 9512TIP3    H149951   6.675   1.820   5.058 -0.8353 -0.2075 -0.0704
 9512TIP3    H249952   6.724   1.758   4.929  0.3704  0.2259  0.1798
 9513TIP3   OH249953   6.660   3.447  15.135  0.2540  0.5974  0.4493
 9513TIP3    H149954   6.750   3.418  15.148  0.1850  0.0544 -0.2749
 9513TIP3    H249955   6.622   3.446  15.223  0.8087  0.3677  0.6895
 9514TIP3   OH249956   1.876   0.650   4.219  0.0582 -0.4436  0.0815
 9514TIP3    H149957   1.903   0.622   4.131  1.9250 -1.4206  0.9325
 9514TIP3    H249958   1.917   0.587   4.278  0.5874  1.4063  1.7704
 9515TIP3   OH249959   1.645   6.500  12.497 -0.2164  0.6957  0.0412
 9515TIP3    H149960   1.725   6.553  12.499 -0.3019  0.8045  0.6050
 9515TIP3    H249961   1.581   6.554  12.450  0.7431 -0.3860 -2.5964
 9516TIP3   OH249962   0.580   1.151  14.248  0.3290 -0.9977  1.0812
 9516TIP3    H149963   0.656   1.205  14.226  1.1501 -1.4561  2.7032
 9516TIP3    H249964   0.519   1.211  14.291  0.1780 -0.8269  0.6270
 9517TIP3   OH249965   2.098   1.286   5.195 -0.7614 -0.2013  0.1583
 9517TIP3    H149966   2.050   1.367   5.182 -2.3329 -1.2119 -0.5476
 9517TIP3    H249967   2.129   1.262   5.107  2.3260  1.1745  0.7986
 9518TIP3   OH249968   0.153   6.214   5.729  0.5432  0.0186 -0.6263
 9518TIP3    H149969   0.084   6.274   5.701  0.4593 -0.0552 -0.5790
 9518TIP3    H249970   0.228   6.236   5.674  0.3526 -0.1892 -0.9746
 9519TIP3   OH249971   2.189   6.105   3.863 -0.3636 -0.4590 -0.2115
 9519TIP3    H149972   2.107   6.059   3.884  0.4530 -1.5584  0.6330
 9519TIP3    H249973   2.173   6.144   3.777 -1.2490 -1.9324 -0.7422
 9520TIP3   OH249974   4.227   1.790   1.955  0.0859  0.4753  0.4892
 9520TIP3    H149975   4.144   1.743   1.955  0.7644 -0.7770  1.7331
 9520TIP3    H249976   4.283   1.739   1.896  0.3302  0.6204  0.5950
 9521TIP3   OH249977   6.751   1.993  11.666 -0.0191  0.1588 -0.4679
 9521TIP3    H149978   6.731   1.900  11.679 -0.2241  0.3489  0.5880
 9521TIP3    H249979   6.762   2.002  11.571 -1.1792 -0.7095 -0.6954
 9522TIP3   OH249980   5.545   4.242   1.184 -0.3009  0.1277 -0.1322
 9522TIP3    H149981   5.450   4.250   1.172 -0.1132  0.9086 -1.1080
 9522TIP3    H249982   5.583   4.298   1.116  0.8494  0.8014  1.0515
 9523TIP3   OH249983   2.615   4.387  11.704  0.5810  0.7614  0.1864
 9523TIP3    H149984   2.697   4.347  11.674  0.6188  0.6961  0.3707
 9523TIP3    H249985   2.627   4.481  11.689  0.6007  0.7288  0.0034
 9524TIP3   OH249986   4.054   3.659  14.209 -0.2388  0.0556 -0.3893
 9524TIP3    H149987   4.103   3.576  14.209 -0.4528 -0.0716 -0.0548
 9524TIP3    H249988   4.034   3.675  14.117 -2.3818 -1.5531 -0.2390
 9525TIP3   OH249989   1.416   2.485  16.061 -0.2675  0.1706  0.3303
 9525TIP3    H149990   1.465   2.552  16.109  0.8592  1.1611 -2.0981
 9525TIP3    H249991   1.468   2.405  16.072  0.1764  0.4699  0.4586
 9526TIP3   OH249992   4.949   5.344   0.913 -0.0138 -0.1777 -0.3463
 9526TIP3    H149993   4.992   5.364   0.830 -0.9895  0.5998 -0.6822
 9526TIP3    H249994   4.884   5.278   0.891  0.6380 -0.9540  0.0548
 9527TIP3   OH249995   3.843   5.656  15.062 -0.8671 -0.4865 -0.4978
 9527TIP3    H149996   3.808   5.659  15.151 -0.9022 -1.6114 -0.4733
 9527TIP3    H249997   3.904   5.730  15.058 -1.1517 -0.2050  0.3349
 9528TIP3   OH249998   3.179   4.942  14.866  0.6183  0.1736  0.6406
 9528TIP3    H149999   3.140   4.855  14.873  0.2919  0.3294  0.7713
 9528TIP3    H250000   3.140   4.992  14.939  0.2548  0.6376  0.1344
 9529TIP3   OH250001   6.651   0.699  13.959  0.7188  0.3429 -0.5732
 9529TIP3    H150002   6.746   0.700  13.960  0.7555 -1.2103  1.2878
 9529TIP3    H250003   6.625   0.789  13.978  1.8152  0.7588 -1.0575
 9530TIP3   OH250004   6.403   0.658   5.343  0.6789 -0.3482 -0.8016
 9530TIP3    H150005   6.324   0.612   5.370 -0.4854  1.2287 -1.4134
 9530TIP3    H250006   6.417   0.632   5.252 -0.2459  0.8034 -1.2973
 9531TIP3   OH250007   2.362   6.446   2.309  0.3194  0.3567 -0.6561
 9531TIP3    H150008   2.401   6.417   2.391 -2.1194  1.2316  0.8605
 9531TIP3    H250009   2.413   6.522   2.283  1.4998 -0.3046 -0.2789
 9532TIP3   OH250010   6.525   3.840   0.675  0.2385  0.6187 -0.3050
 9532TIP3    H150011   6.550   3.753   0.645  0.4429  0.3058  0.7717
 9532TIP3    H250012   6.472   3.876   0.603 -2.2811 -1.4833  0.4403
 9533TIP3   OH250013   5.622   1.676  13.493  0.0910 -0.0860 -0.7061
 9533TIP3    H150014   5.631   1.761  13.451 -1.1599 -0.1489 -1.1349
 9533TIP3    H250015   5.707   1.634  13.483  0.4801  0.8212 -1.1513
 9534TIP3   OH250016   2.591   0.260  14.831 -0.1557 -0.0627  0.3065
 9534TIP3    H150017   2.518   0.230  14.778 -0.6396  1.5168  0.0613
 9534TIP3    H250018   2.552   0.285  14.915  0.2439 -0.1428  0.5221
 9535TIP3   OH250019   3.518   2.622   2.744 -0.2403  0.7881  0.6300
 9535TIP3    H150020   3.509   2.595   2.653  0.6505 -1.0315  1.0497
 9535TIP3    H250021   3.512   2.718   2.742  1.8088  0.9265 -1.6199
 9536TIP3   OH250022   5.442   4.609   1.302  0.0027 -0.1810  0.0537
 9536TIP3    H150023   5.454   4.672   1.373  0.7951  0.8402 -0.9482
 9536TIP3    H250024   5.529   4.602   1.261 -0.0493 -2.0565  0.2425
 9537TIP3   OH250025   6.703   3.550   0.750 -0.0129 -0.4282  0.2768
 9537TIP3    H150026   6.786   3.597   0.763 -1.0025  1.4233  0.0308
 9537TIP3    H250027   6.715   3.503   0.666  1.2472 -1.2446  0.8886
 9538TIP3   OH250028   0.022   5.228  15.387  0.4879 -0.1840  0.0386
 9538TIP3    H150029   0.002   5.322  15.392 -0.7056 -0.3841 -0.6228
 9538TIP3    H250030   0.105   5.223  15.340  0.3057  0.5168 -0.3593
 9539TIP3   OH250031   5.986   6.379   4.779 -0.1444 -0.6640 -0.1309
 9539TIP3    H150032   6.075   6.374   4.815 -0.5251  0.0286  0.9439
 9539TIP3    H250033   5.994   6.432   4.700  0.5930 -1.6166 -0.7007
 9540TIP3   OH250034   3.564   6.355   4.469  0.0579 -0.0128  0.2096
 9540TIP3    H150035   3.544   6.436   4.515 -0.7045  0.1039 -0.3341
 9540TIP3    H250036   3.489   6.298   4.486 -0.6650  0.3571 -1.6502
 9541TIP3   OH250037   4.274   5.057  13.593 -0.2297 -0.4994  0.8376
 9541TIP3    H150038   4.287   5.151  13.580  0.2154 -0.6506  0.1552
 9541TIP3    H250039   4.210   5.052  13.664  1.4903  0.2855  2.4884
 9542TIP3   OH250040   1.936   5.873   6.450  0.2356  0.6430 -0.0142
 9542TIP3    H150041   1.958   5.926   6.526  0.1560  0.9776 -0.2269
 9542TIP3    H250042   1.869   5.923   6.404 -0.7456 -0.1974  0.4400
 9543TIP3   OH250043   2.959   3.507   2.816 -0.4337 -1.0371 -0.0414
 9543TIP3    H150044   2.956   3.421   2.774 -0.9947 -1.4588  0.8605
 9543TIP3    H250045   2.870   3.521   2.849 -0.0011 -0.7129  1.0032
 9544TIP3   OH250046   5.094   3.240   2.373 -0.4135 -0.4496  0.2442
 9544TIP3    H150047   5.105   3.254   2.279  0.1323 -1.5590  0.1371
 9544TIP3    H250048   5.034   3.166   2.380 -1.1599  0.1868  0.7903
 9545TIP3   OH250049   3.711   2.298  16.889 -0.6812  0.0168 -0.5810
 9545TIP3    H150050   3.793   2.305  16.937  0.5986 -1.2828 -2.4572
 9545TIP3    H250051   3.686   2.388  16.869  0.4034  0.4133 -0.1595
 9546TIP3   OH250052   5.645   2.768  14.225 -0.5941  0.4675  0.3422
 9546TIP3    H150053   5.564   2.811  14.252 -1.0598 -0.2981  0.1976
 9546TIP3    H250054   5.625   2.674  14.231  0.2088  0.2764  0.0863
 9547TIP3   OH250055   3.380   3.507   4.192 -0.5352 -0.2011 -0.9727
 9547TIP3    H150056   3.412   3.456   4.267 -1.8271  0.2696 -0.0972
 9547TIP3    H250057   3.328   3.444   4.142  0.8148 -0.6794 -1.8341
 9548TIP3   OH250058   1.947   3.316   6.179  0.8907  0.6160  0.5007
 9548TIP3    H150059   2.026   3.264   6.165  0.6757  0.2453  0.6484
 9548TIP3    H250060   1.932   3.362   6.096  1.5049  1.0215  0.6155
 9549TIP3   OH250061   5.628   1.092  13.700 -0.0051 -0.6855 -0.1231
 9549TIP3    H150062   5.716   1.058  13.683 -0.5478 -2.8057  1.1926
 9549TIP3    H250063   5.576   1.060  13.627 -0.3508 -2.0462  0.7163
 9550TIP3   OH250064   5.490   0.752   3.283  0.5255  0.4134 -0.3591
 9550TIP3    H150065   5.559   0.809   3.248  1.2391 -0.6158 -0.6449
 9550TIP3    H250066   5.471   0.691   3.211  0.4983 -0.3648  0.3035
 9551TIP3   OH250067   1.305   5.926  12.503 -0.2575  0.5267  0.4818
 9551TIP3    H150068   1.400   5.923  12.488 -0.5374 -2.0329 -1.1246
 9551TIP3    H250069   1.295   5.913  12.597  0.9441 -1.3789  0.3850
 9552TIP3   OH250070   1.156   3.015   0.719 -0.3180  0.3097  0.0086
 9552TIP3    H150071   1.161   3.091   0.777  1.4209  0.0342  0.2408
 9552TIP3    H250072   1.130   2.943   0.776  2.2117 -0.1375  0.6598
 9553TIP3   OH250073   3.750   0.173   5.342  0.2084  0.5027  0.0814
 9553TIP3    H150074   3.681   0.229   5.377  0.3075  1.7337 -1.6725
 9553TIP3    H250075   3.830   0.224   5.352  0.3986  0.4049 -0.9147
 9554TIP3   OH250076   1.628   4.921  13.365 -0.1601 -0.1433 -0.4081
 9554TIP3    H150077   1.550   4.971  13.340 -0.7402 -1.2205 -0.8153
 9554TIP3    H250078   1.611   4.833  13.332  0.2563 -0.9451  1.4205
 9555TIP3   OH250079   5.722   1.929  13.554  0.0161 -0.0836 -0.4102
 9555TIP3    H150080   5.791   1.956  13.493  0.2677  0.0240 -0.0842
 9555TIP3    H250081   5.763   1.862  13.609  0.2777  0.9470  0.6651
 9556TIP3   OH250082   0.967   6.241  15.129  0.4826 -0.5887  0.6516
 9556TIP3    H150083   1.029   6.179  15.167 -0.0104 -0.2558  2.0116
 9556TIP3    H250084   0.989   6.325  15.170  1.3634  0.2373 -1.4138
 9557TIP3   OH250085   6.480   0.180  12.747 -0.1342  0.4950  0.4174
 9557TIP3    H150086   6.477   0.117  12.818 -0.5463  0.3323  0.2570
 9557TIP3    H250087   6.571   0.177  12.715 -0.0268  0.3551  0.7380
 9558TIP3   OH250088   5.604   5.799   4.223  0.8363  0.4519  0.3684
 9558TIP3    H150089   5.663   5.738   4.179  1.0276  0.5031  0.5530
 9558TIP3    H250090   5.562   5.747   4.290  1.1736  0.5789  0.6792
 9559TIP3   OH250091   5.059   5.424  13.131  0.1507 -0.5087 -0.1591
 9559TIP3    H150092   5.095   5.435  13.043  1.0536  1.4007  0.4102
 9559TIP3    H250093   4.965   5.419  13.118  0.3498 -1.4660 -1.3308
 9560TIP3   OH250094   6.485   5.553   0.566 -0.5791 -0.0583  0.4047
 9560TIP3    H150095   6.436   5.532   0.645 -0.9510 -0.8138 -0.0199
 9560TIP3    H250096   6.508   5.469   0.528  0.5711  0.2936  0.2926
 9561TIP3   OH250097   5.860   3.290   3.363 -0.1136  0.2208 -0.0029
 9561TIP3    H150098   5.773   3.278   3.401 -0.4177  0.9955 -0.4398
 9561TIP3    H250099   5.847   3.354   3.293  0.7913  0.2679 -0.1349
 9562TIP3   OH250100   6.107   1.998   1.201 -0.3738 -0.5720 -0.2921
 9562TIP3    H150101   6.136   1.936   1.134  0.0499  0.6083 -1.2111
 9562TIP3    H250102   6.054   2.062   1.153  0.1215  0.4100  0.4677
 9563TIP3   OH250103   5.285   5.091   6.420 -0.3042 -0.0961  0.0176
 9563TIP3    H150104   5.296   5.173   6.372 -0.2341 -0.4896 -0.6360
 9563TIP3    H250105   5.229   5.114   6.494 -0.1944  0.5647 -0.1048
 9564TIP3   OH250106   3.052   6.050   0.824  0.1856 -0.2027  0.7991
 9564TIP3    H150107   3.075   6.088   0.909  1.5439  1.7128 -0.3841
 9564TIP3    H250108   3.134   6.013   0.792 -0.5542 -1.8724  0.7620
 9565TIP3   OH250109   2.289   6.130  15.664  0.0116 -0.1853  0.2284
 9565TIP3    H150110   2.281   6.224  15.647 -0.1982 -0.4173 -0.9813
 9565TIP3    H250111   2.383   6.116  15.672  0.0314  0.1690  0.6818
 9566TIP3   OH250112   1.958   2.949  14.002 -0.7912 -0.3598  0.1798
 9566TIP3    H150113   1.915   3.006  13.938 -0.5464  0.0872  0.4103
 9566TIP3    H250114   1.949   2.861  13.966 -1.0988 -0.1635 -0.2220
 9567TIP3   OH250115   4.020   4.538  11.531 -0.2150 -0.0823  0.0162
 9567TIP3    H150116   4.111   4.512  11.519 -0.9053 -2.6585  0.0195
 9567TIP3    H250117   3.987   4.552  11.442  0.2155  0.9513  0.0208
 9568TIP3   OH250118   3.073   5.274  13.176 -0.4660  0.5181  0.7204
 9568TIP3    H150119   2.993   5.315  13.210 -0.8730  0.8905 -0.6702
 9568TIP3    H250120   3.144   5.318  13.223 -0.9880  1.4983  0.6032
 9569TIP3   OH250121   3.182   6.594   4.469  0.3089  0.1595 -0.0109
 9569TIP3    H150122   3.145   6.513   4.433  1.2396  0.0213 -0.6925
 9569TIP3    H250123   3.185   6.579   4.563 -1.8497  0.3927  0.1256
 9570TIP3   OH250124   0.232   3.076   1.131 -0.3358 -0.3751  0.0586
 9570TIP3    H150125   0.297   3.014   1.163  1.6190  1.1438 -0.9115
 9570TIP3    H250126   0.153   3.056   1.182  1.3996 -1.0089  2.5834
 9571TIP3   OH250127   3.210   2.070   2.990  0.1987 -0.2083  0.4645
 9571TIP3    H150128   3.295   2.115   2.990  0.3468 -0.4215  2.8635
 9571TIP3    H250129   3.187   2.063   3.083 -1.6146 -1.7220 -0.0778
 9572TIP3   OH250130   0.927   0.553  11.573  0.1523 -0.1230 -0.3241
 9572TIP3    H150131   0.960   0.523  11.488 -0.9128 -3.0658  0.2439
 9572TIP3    H250132   0.984   0.512  11.637 -1.8974 -1.7456  0.5119
 9573TIP3   OH250133   2.972   2.332   3.368 -0.2339  0.3382 -0.0597
 9573TIP3    H150134   2.896   2.370   3.413 -1.7570 -1.5072 -0.9781
 9573TIP3    H250135   2.943   2.320   3.278  0.7506 -1.4468 -0.1689
 9574TIP3   OH250136   5.522   3.431  16.048 -0.2411 -0.2740 -0.1755
 9574TIP3    H150137   5.548   3.509  15.998  1.0408 -0.2437  0.5395
 9574TIP3    H250138   5.426   3.430  16.040 -0.1349  0.2726 -1.8223
 9575TIP3   OH250139   4.872   2.336   5.083  0.1943  0.7684  0.2675
 9575TIP3    H150140   4.939   2.391   5.124  0.8873  0.6076 -0.6261
 9575TIP3    H250141   4.880   2.251   5.126 -0.3094  1.1302  1.0693
 9576TIP3   OH250142   0.172   0.300  14.636 -0.5272  0.4025 -0.3079
 9576TIP3    H150143   0.123   0.377  14.663 -0.8203  0.5617 -1.2786
 9576TIP3    H250144   0.105   0.233  14.621 -0.4163  0.5178 -1.3007
 9577TIP3   OH250145   6.176   5.358   0.721  0.0562 -0.0195  1.1976
 9577TIP3    H150146   6.268   5.334   0.734  0.5374  0.5465 -1.0483
 9577TIP3    H250147   6.177   5.452   0.703 -0.8729 -0.1380  0.4575
 9578TIP3   OH250148   5.427   2.626  14.910  0.5890 -0.3662 -0.7409
 9578TIP3    H150149   5.384   2.548  14.944  0.3385  0.4558  0.8917
 9578TIP3    H250150   5.516   2.597  14.888 -0.6558 -1.9809 -3.7978
 9579TIP3   OH250151   3.302   6.244   4.497  0.5993  0.2144  0.5370
 9579TIP3    H150152   3.302   6.153   4.469  1.7658  0.1022  0.8899
 9579TIP3    H250153   3.229   6.283   4.449  0.7925 -0.6418 -0.4897
 9580TIP3   OH250154   4.345   3.766   3.005 -1.0789  0.2395 -0.0690
 9580TIP3    H150155   4.384   3.783   3.091 -2.3749  0.4350  0.4880
 9580TIP3    H250156   4.346   3.851   2.962 -1.5897  0.4067  0.2413
 9581TIP3   OH250157   6.209   3.099   4.474  0.0483  0.0315 -0.7313
 9581TIP3    H150158   6.245   3.080   4.387  1.5772  0.2513 -0.1649
 9581TIP3    H250159   6.267   3.053   4.534 -2.0504 -1.6245  0.1127
 9582TIP3   OH250160   5.032   2.851  14.842 -0.1430 -0.0392 -0.1010
 9582TIP3    H150161   5.044   2.946  14.833  1.2971 -0.2602 -0.7298
 9582TIP3    H250162   5.109   2.814  14.799  2.0338 -1.3891  4.5899
 9583TIP3   OH250163   2.317   0.493   3.047  0.4001 -0.2282  0.4654
 9583TIP3    H150164   2.324   0.589   3.044 -0.9287 -0.1269  0.1926
 9583TIP3    H250165   2.405   0.463   3.068  0.6820  1.0873  1.2113
 9584TIP3   OH250166   6.175   5.335  12.952  0.0893  0.1384  0.6037
 9584TIP3    H150167   6.155   5.279  13.027  0.8584  0.7006  1.2412
 9584TIP3    H250168   6.109   5.404  12.955 -0.9884 -0.8425 -0.3054
 9585TIP3   OH250169   6.089   0.828  13.665  0.0150 -0.0318 -0.7816
 9585TIP3    H150170   6.115   0.799  13.752 -0.4452  1.9313  0.0237
 9585TIP3    H250171   6.121   0.759  13.606  1.3794 -0.7690  0.8031
 9586TIP3   OH250172   4.263   5.741   2.332  0.7741 -0.1836  0.2071
 9586TIP3    H150173   4.234   5.677   2.266 -0.1926 -1.5201  1.8859
 9586TIP3    H250174   4.351   5.712   2.356 -0.1719 -1.7132  1.9333
 9587TIP3   OH250175   4.490   6.092   3.375  0.0285  0.3079  0.6073
 9587TIP3    H150176   4.487   6.183   3.343 -0.4122  0.1686  0.2468
 9587TIP3    H250177   4.540   6.097   3.456  0.3534  0.8126  0.3801
 9588TIP3   OH250178   5.134   6.103  11.664 -0.1324 -0.1716 -0.1360
 9588TIP3    H150179   5.195   6.093  11.592 -1.0430 -1.0678 -0.7982
 9588TIP3    H250180   5.123   6.014  11.699 -0.6312  0.0677  0.3274
 9589TIP3   OH250181   4.605   2.090  12.493 -0.2133  0.2320  0.1544
 9589TIP3    H150182   4.556   2.013  12.463 -0.9102  0.4346  0.7444
 9589TIP3    H250183   4.555   2.165  12.460  0.0800  0.4414  0.1805
 9590TIP3   OH250184   4.367   0.428  14.245  0.2903 -0.3939 -0.3034
 9590TIP3    H150185   4.294   0.445  14.186  0.4011 -0.0523 -0.3395
 9590TIP3    H250186   4.435   0.489  14.218  0.6644 -0.8545 -0.4050
 9591TIP3   OH250187   4.818   1.560  10.985  0.0632 -0.2279  0.5132
 9591TIP3    H150188   4.728   1.543  11.012  0.8021 -1.6418  2.2006
 9591TIP3    H250189   4.822   1.528  10.894 -0.9845 -0.6880  0.6194
 9592TIP3   OH250190   6.375   4.269  12.455 -0.0293  0.2060  0.6545
 9592TIP3    H150191   6.416   4.327  12.390 -0.3386  0.6708  0.8692
 9592TIP3    H250192   6.448   4.215  12.488  0.4572  1.1546  1.1665
 9593TIP3   OH250193   3.229   2.216  11.385 -0.0581  0.2843 -0.0464
 9593TIP3    H150194   3.171   2.274  11.433 -0.0944  0.5540 -0.4115
 9593TIP3    H250195   3.267   2.272  11.317  1.8860  0.5385  1.2008
 9594TIP3   OH250196   2.013   1.967   2.800  0.0420  0.0004  0.2992
 9594TIP3    H150197   2.105   1.958   2.777  0.1217  2.3991 -0.4601
 9594TIP3    H250198   1.969   1.981   2.716 -0.9324 -0.4210  0.7332
 9595TIP3   OH250199   6.476   4.537  12.815 -0.2530 -0.2196  0.1742
 9595TIP3    H150200   6.509   4.517  12.903 -0.8737  0.3575  0.5464
 9595TIP3    H250201   6.381   4.541  12.826 -0.1542  3.0137  0.1527
 9596TIP3   OH250202   1.637   5.484   5.602  0.1866 -0.0221  0.0825
 9596TIP3    H150203   1.580   5.462   5.529 -1.6697  1.0483  1.1769
 9596TIP3    H250204   1.652   5.401   5.647  0.2863 -0.4640 -0.7516
 9597TIP3   OH250205   0.138   5.608   1.904 -0.5724  0.2243  0.0531
 9597TIP3    H150206   0.175   5.633   1.820  0.2872 -1.7883 -0.1971
 9597TIP3    H250207   0.213   5.578   1.955 -1.4557 -1.0959  0.5924
 9598TIP3   OH250208   0.223   5.156   0.383 -0.2965  0.0228 -0.0962
 9598TIP3    H150209   0.176   5.229   0.423 -0.0576 -0.2940  0.7682
 9598TIP3    H250210   0.184   5.078   0.424  0.3996 -0.2751 -0.0043
 9599TIP3   OH250211   6.125   2.680  17.193  0.4292 -0.6763 -0.0431
 9599TIP3    H150212   6.209   2.669  17.148  0.2209 -1.4986 -0.2244
 9599TIP3    H250213   6.104   2.773  17.179  2.1545 -0.0087  1.5263
 9600TIP3   OH250214   1.902   5.574  12.804  0.4824 -0.4147 -0.0852
 9600TIP3    H150215   1.917   5.551  12.896  0.5908 -2.3064 -0.5716
 9600TIP3    H250216   1.807   5.585  12.798  0.3594 -1.3675  0.0195
 9601TIP3   OH250217   3.454   2.736  11.838 -0.5582  0.1343 -0.6902
 9601TIP3    H150218   3.481   2.711  11.749  0.4379  0.6243 -0.5342
 9601TIP3    H250219   3.527   2.788  11.871 -1.8094  1.7215 -0.3506
 9602TIP3   OH250220   3.381   4.657  12.550  0.9288 -0.3476  0.3484
 9602TIP3    H150221   3.291   4.658  12.583  0.2330 -2.6795 -1.3536
 9602TIP3    H250222   3.433   4.622  12.623  0.3484  0.3295  1.0907
 9603TIP3   OH250223   6.775   4.511   0.662 -0.5803  0.2453  0.1605
 9603TIP3    H150224   6.703   4.562   0.625 -0.9998  0.7311  1.5946
 9603TIP3    H250225   6.787   4.548   0.750 -1.3448 -2.5329  1.4925
 9604TIP3   OH250226   0.649   6.493   6.672  0.1515  0.3922  0.4068
 9604TIP3    H150227   0.700   6.547   6.611 -1.9694  0.2784 -1.5429
 9604TIP3    H250228   0.702   6.414   6.683 -0.0752 -0.2582 -2.5472
 9605TIP3   OH250229   3.097   3.579   3.998 -0.7456  0.3651  0.5317
 9605TIP3    H150230   3.128   3.661   4.037 -0.3829  0.9590 -0.9615
 9605TIP3    H250231   3.017   3.604   3.950 -0.6060 -0.1391  0.0310
 9606TIP3   OH250232   2.536   4.605   2.596  0.0379 -0.6190  0.4283
 9606TIP3    H150233   2.550   4.562   2.512 -4.0655  2.2511 -1.8819
 9606TIP3    H250234   2.451   4.572   2.626 -0.3117  1.2543  1.5726
 9607TIP3   OH250235   0.958   4.496   5.043  0.4119  0.2451  0.4192
 9607TIP3    H150236   0.951   4.403   5.061  0.5071 -0.3876 -2.6766
 9607TIP3    H250237   0.870   4.531   5.058 -0.5776 -1.0551 -2.1293
 9608TIP3   OH250238   3.058   2.271  13.436 -0.0371 -0.8044  0.1499
 9608TIP3    H150239   3.137   2.273  13.382 -1.0427  0.3272 -1.3332
 9608TIP3    H250240   3.089   2.289  13.525  1.5021 -1.5217 -0.2303
 9609TIP3   OH250241   2.584   5.604   0.634 -0.7644 -0.4721  0.1259
 9609TIP3    H150242   2.564   5.697   0.646 -1.8530 -0.9378  2.3102
 9609TIP3    H250243   2.662   5.603   0.579  0.5584  1.8225  1.8529
 9610TIP3   OH250244   6.714   1.737   6.062 -0.3590 -0.1098  0.0936
 9610TIP3    H150245   6.748   1.686   5.989  1.1487 -0.3709  0.9486
 9610TIP3    H250246   6.653   1.678   6.106  0.1661 -0.6189  0.1472
 9611TIP3   OH250247   0.638   3.267   2.026 -0.0308 -0.4048 -0.2544
 9611TIP3    H150248   0.675   3.253   2.114  1.5063 -0.2244 -0.8509
 9611TIP3    H250249   0.691   3.338   1.990 -0.3856 -0.7684 -1.4925
 9612TIP3   OH250250   0.664   3.970   0.933  0.0307 -0.1055 -0.8540
 9612TIP3    H150251   0.758   3.953   0.931 -0.0085 -0.2778 -1.2769
 9612TIP3    H250252   0.647   4.005   1.020  0.0866 -2.4435  0.1238
 9613TIP3   OH250253   0.464   6.044  13.424 -1.1210  0.1758  0.4807
 9613TIP3    H150254   0.440   5.965  13.473 -0.7241  0.0856  0.5298
 9613TIP3    H250255   0.404   6.045  13.350 -0.1033 -1.0222 -0.3940
 9614TIP3   OH250256   5.033   6.024  10.582 -0.4425 -0.5288 -0.2439
 9614TIP3    H150257   4.947   6.034  10.542 -1.5641  0.5663  2.3955
 9614TIP3    H250258   5.025   6.061  10.669  2.7696 -0.2299  0.0086
 9615TIP3   OH250259   2.435   2.559  15.655 -0.7500  0.0753 -0.0372
 9615TIP3    H150260   2.377   2.486  15.676 -1.0659 -0.0062 -1.1643
 9615TIP3    H250261   2.427   2.618  15.730 -0.8616 -0.8096  0.6670
 9616TIP3   OH250262   3.483   2.031  11.348  0.6086 -0.5920 -0.2666
 9616TIP3    H150263   3.426   2.070  11.415  1.4986  1.3220 -0.5819
 9616TIP3    H250264   3.471   1.937  11.358 -0.3072 -0.2963  1.6834
 9617TIP3   OH250265   1.220   4.503  13.760  0.3695  0.2413  0.5075
 9617TIP3    H150266   1.157   4.574  13.747 -0.3560 -0.5027 -0.0752
 9617TIP3    H250267   1.303   4.548  13.776  0.0567  1.2206 -0.5483
 9618TIP3   OH250268   0.853   1.670   3.797 -0.1394  0.1404  0.1510
 9618TIP3    H150269   0.873   1.601   3.732  1.5998 -0.5526  1.3751
 9618TIP3    H250270   0.867   1.752   3.749  0.9967 -0.3683 -0.4254
 9619TIP3   OH250271   4.501   2.637  15.808 -0.5147  0.0206 -0.2255
 9619TIP3    H150272   4.569   2.582  15.847 -1.1209 -1.1747 -0.8420
 9619TIP3    H250273   4.421   2.611  15.853 -0.6401  1.1465  0.2183
 9620TIP3   OH250274   6.702   4.143  12.916  0.0667 -0.1551  0.4817
 9620TIP3    H150275   6.656   4.067  12.950  0.1188 -0.7971 -0.8627
 9620TIP3    H250276   6.728   4.192  12.994  1.2270 -2.2027  1.4330
 9621TIP3   OH250277   2.587   2.703  16.808 -0.3081  0.0652 -0.5004
 9621TIP3    H150278   2.582   2.608  16.817 -1.0677  0.1600  0.1192
 9621TIP3    H250279   2.680   2.721  16.792  0.4799 -0.4858  3.0873
 9622TIP3   OH250280   1.470   0.766   0.349 -0.1765  0.1945  0.0890
 9622TIP3    H150281   1.542   0.713   0.382  2.1067  2.8592 -0.4426
 9622TIP3    H250282   1.431   0.804   0.428 -1.0584 -1.2260  0.3733
 9623TIP3   OH250283   0.008   1.895   6.520  0.3488  1.1722  0.3525
 9623TIP3    H150284  -0.062   1.914   6.457  2.5613 -0.3600 -2.7058
 9623TIP3    H250285   0.087   1.930   6.479  1.7833  0.6434  2.5904
 9624TIP3   OH250286   5.255   4.898   1.354 -0.1868 -0.5977 -0.5396
 9624TIP3    H150287   5.159   4.903   1.354 -0.1460  0.7053  0.9791
 9624TIP3    H250288   5.278   4.884   1.263 -1.7958 -0.2817 -1.0214
 9625TIP3   OH250289   4.678   4.943   0.472  0.4039 -0.4405 -0.4902
 9625TIP3    H150290   4.741   5.010   0.447  0.2741 -0.4481 -0.8350
 9625TIP3    H250291   4.644   4.972   0.557  3.2674 -2.0672  1.2950
 9626TIP3   OH250292   2.937   3.316  14.362 -0.3867  0.0695  0.2558
 9626TIP3    H150293   2.893   3.232  14.356 -0.0841 -0.0641 -0.1533
 9626TIP3    H250294   2.867   3.380  14.369 -0.6442 -0.1576 -0.2169
 9627TIP3   OH250295   6.593   2.315  16.031 -0.1030  0.3082  0.2489
 9627TIP3    H150296   6.663   2.325  16.095  1.2946 -0.9630 -1.0449
 9627TIP3    H250297   6.528   2.259  16.076  1.2577 -1.2917  0.2680
 9628TIP3   OH250298   6.360   5.764  16.475  0.2643 -0.1289  0.3341
 9628TIP3    H150299   6.429   5.706  16.443 -0.3779  0.2738 -1.8469
 9628TIP3    H250300   6.283   5.707  16.483  0.2772 -0.1047  0.6489
 9629TIP3   OH250301   1.857   4.363   1.241  0.2471 -0.1912 -0.0304
 9629TIP3    H150302   1.783   4.304   1.225 -0.1257 -0.2104  1.6457
 9629TIP3    H250303   1.908   4.319   1.309 -0.2464  1.5697  1.5357
 9630TIP3   OH250304   5.818   5.400   0.472 -0.0023 -0.1168 -0.0614
 9630TIP3    H150305   5.774   5.390   0.557  1.2890  0.0111  0.6406
 9630TIP3    H250306   5.852   5.490   0.473  3.8472 -1.4784  1.1982
 9631TIP3   OH250307   6.536   0.668   5.998  0.7895  0.3085  0.1237
 9631TIP3    H150308   6.521   0.736   6.064 -0.6169 -1.1066  1.2803
 9631TIP3    H250309   6.450   0.652   5.960  1.1102 -0.9012 -0.0991
 9632TIP3   OH250310   6.419   5.054   1.798 -0.1328 -0.5810 -0.0372
 9632TIP3    H150311   6.331   5.029   1.827 -0.3328 -1.0495 -1.0229
 9632TIP3    H250312   6.407   5.140   1.757 -0.2659 -0.9661 -0.8183
 9633TIP3   OH250313   0.573   3.399  12.883  0.4495 -0.4427 -0.3404
 9633TIP3    H150314   0.492   3.361  12.917 -0.5983  0.9532 -1.2440
 9633TIP3    H250315   0.567   3.388  12.788  1.1373  0.0353 -0.4432
 9634TIP3   OH250316   0.956   2.072  11.204 -0.7660  0.0647  0.3246
 9634TIP3    H150317   1.006   2.064  11.286 -0.1867 -0.1765 -0.0448
 9634TIP3    H250318   0.865   2.072  11.231 -0.6205 -1.5904  0.8522
 9635TIP3   OH250319   6.530   3.684  11.486  0.2045  0.2485  0.2463
 9635TIP3    H150320   6.566   3.693  11.398  0.2044 -0.1627  0.2052
 9635TIP3    H250321   6.577   3.610  11.524 -0.9606 -0.6219  0.0057
 9636TIP3   OH250322   0.556   2.537  16.595 -0.7639 -0.3150  0.1405
 9636TIP3    H150323   0.630   2.537  16.656 -1.2237 -1.3532  0.7143
 9636TIP3    H250324   0.562   2.621  16.549  0.4505 -0.1656  0.5670
 9637TIP3   OH250325   3.810   1.053  15.796  0.6786  0.0116  1.4607
 9637TIP3    H150326   3.728   1.011  15.772  0.3522  0.2752  2.1171
 9637TIP3    H250327   3.814   1.046  15.892  0.3666  1.9750  1.6245
 9638TIP3   OH250328   6.062   3.851  14.075  0.5396  0.4027  0.5249
 9638TIP3    H150329   6.101   3.826  14.159  1.5022  0.2722  0.0426
 9638TIP3    H250330   6.033   3.941  14.088  2.0796  0.9114  0.5187
 9639TIP3   OH250331   4.043   0.089   2.432  0.5959 -0.3052  0.1558
 9639TIP3    H150332   4.083   0.017   2.480 -1.6315 -1.6197  0.1353
 9639TIP3    H250333   4.036   0.160   2.496  1.1395 -0.7444  0.7015
 9640TIP3   OH250334   3.254   1.147  13.040 -0.1414 -0.3115  0.3192
 9640TIP3    H150335   3.222   1.193  12.962  0.3767  0.8909  0.8043
 9640TIP3    H250336   3.333   1.102  13.009  0.0511  0.1426  0.1310
 9641TIP3   OH250337   0.033   5.745  15.844  0.1265  0.0493  0.4079
 9641TIP3    H150338  -0.041   5.798  15.870  0.5040  0.5338  0.4959
 9641TIP3    H250339  -0.006   5.666  15.806 -0.4830  1.6248 -2.3830
 9642TIP3   OH250340   5.409   4.529   0.557 -0.2810 -0.3102 -0.3256
 9642TIP3    H150341   5.467   4.572   0.494  2.6444 -1.3481  1.5280
 9642TIP3    H250342   5.410   4.437   0.531 -1.5390 -0.2657 -0.5726
 9643TIP3   OH250343   4.758   3.410   3.834  0.3503  0.3356 -0.5379
 9643TIP3    H150344   4.699   3.439   3.904 -0.3406  1.7406 -1.6903
 9643TIP3    H250345   4.801   3.333   3.870 -1.5453 -0.1947  0.6545
 9644TIP3   OH250346   3.846   1.099  14.960 -0.2125  0.6478 -0.1713
 9644TIP3    H150347   3.889   1.061  15.037 -0.1910  0.0641 -0.4652
 9644TIP3    H250348   3.912   1.158  14.923  0.5589 -0.6628 -0.9399
 9645TIP3   OH250349   3.687   4.173  12.065 -0.1694  0.0986 -0.4211
 9645TIP3    H150350   3.774   4.138  12.046 -0.6983 -1.7862  0.4644
 9645TIP3    H250351   3.702   4.266  12.081  1.3934  0.1823 -2.1676
 9646TIP3   OH250352   4.768   5.306  16.931 -0.0138 -0.5212 -0.5354
 9646TIP3    H150353   4.784   5.392  16.894  1.4665 -1.2117 -1.5059
 9646TIP3    H250354   4.751   5.323  17.024 -1.4568  0.9683 -1.0535
 9647TIP3   OH250355   6.411   4.206   4.047 -0.1682  0.6565 -0.1958
 9647TIP3    H150356   6.491   4.168   4.082 -0.6083  0.0748  0.1785
 9647TIP3    H250357   6.347   4.135   4.051 -0.0578  0.3330 -2.8041
 9648TIP3   OH250358   2.562   6.709  15.694  0.0986  0.4224  0.0071
 9648TIP3    H150359   2.527   6.754  15.617 -0.1217  0.2477  0.0040
 9648TIP3    H250360   2.511   6.628  15.699  0.0067  0.5060  0.4291
 9649TIP3   OH250361   4.714   4.527  16.459 -1.0923 -0.1541  0.8558
 9649TIP3    H150362   4.645   4.589  16.483 -1.0718  0.4646 -0.6078
 9649TIP3    H250363   4.787   4.549  16.517 -1.1207  1.1359  0.4211
 9650TIP3   OH250364   3.538   3.202   5.568 -0.0550  0.4842  0.3331
 9650TIP3    H150365   3.613   3.256   5.594 -1.0233  1.2281  1.6309
 9650TIP3    H250366   3.577   3.122   5.532  1.3753  1.3118 -0.0101
 9651TIP3   OH250367   6.105   3.390   4.826 -0.1019  0.4918  0.5165
 9651TIP3    H150368   6.162   3.408   4.750 -0.9978 -0.6657 -0.4544
 9651TIP3    H250369   6.092   3.475   4.867 -0.3527  1.2914 -1.1807
 9652TIP3   OH250370   2.207   2.502   0.329 -0.1645 -0.4514  0.1004
 9652TIP3    H150371   2.262   2.425   0.339 -0.5781 -0.6937  0.5560
 9652TIP3    H250372   2.122   2.475   0.365 -0.8016 -0.3326 -1.2608
 9653TIP3   OH250373   6.561   4.015   2.382  0.3886 -0.2415  0.5185
 9653TIP3    H150374   6.591   4.047   2.468  0.9851  1.9625 -0.4779
 9653TIP3    H250375   6.480   4.062   2.366  0.6925 -0.0451 -0.4706
 9654TIP3   OH250376   1.633   0.193  16.481  0.0050 -0.4415 -0.4093
 9654TIP3    H150377   1.654   0.285  16.496 -1.9061  0.1782 -1.3259
 9654TIP3    H250378   1.600   0.161  16.565 -3.5237  0.9418 -1.2164
 9655TIP3   OH250379   0.418   1.934   2.367 -0.3260 -0.0356 -0.8108
 9655TIP3    H150380   0.459   1.880   2.435 -2.3629  0.4787  0.8801
 9655TIP3    H250381   0.397   1.871   2.298  0.8919 -0.7342 -0.5713
 9656TIP3   OH250382   1.150   1.109   2.182  0.0688  0.2509 -0.4420
 9656TIP3    H150383   1.094   1.040   2.216  2.0088 -0.3204  1.7267
 9656TIP3    H250384   1.237   1.069   2.177  0.6892  1.7208 -1.7862
 9657TIP3   OH250385   2.083   5.580   5.091 -0.6351  0.7090 -0.3836
 9657TIP3    H150386   2.020   5.565   5.162 -1.1974 -0.1871 -1.0679
 9657TIP3    H250387   2.091   5.676   5.086 -1.2756  0.7982  0.2922
 9658TIP3   OH250388   0.144   4.552  16.923 -0.1279 -0.0538 -0.1802
 9658TIP3    H150389   0.209   4.533  16.991  0.1498 -2.0636 -0.9791
 9658TIP3    H250390   0.177   4.631  16.880  0.8971 -0.0837  0.5257
 9659TIP3   OH250391   2.175   0.319  13.143  0.2641  0.2213  0.2731
 9659TIP3    H150392   2.138   0.253  13.202 -0.0911 -1.3044 -1.6118
 9659TIP3    H250393   2.106   0.336  13.079  1.0812  0.9320 -0.4368
 9660TIP3   OH250394   0.824   5.059   2.343  0.0037 -0.1233  0.1198
 9660TIP3    H150395   0.811   5.001   2.268  0.8775 -0.5859  0.3252
 9660TIP3    H250396   0.797   5.007   2.418  0.9577 -0.3366  0.3233
 9661TIP3   OH250397   6.103   1.398  12.008  0.4441 -0.2750 -0.1891
 9661TIP3    H150398   6.092   1.335  12.079 -2.6089  1.5259  1.0467
 9661TIP3    H250399   6.151   1.470  12.046 -0.4149  0.3020 -0.1817
 9662TIP3   OH250400   3.385   4.531  16.987  0.4181 -0.0648  0.5299
 9662TIP3    H150401   3.326   4.606  16.986 -1.1735 -1.2901  0.0428
 9662TIP3    H250402   3.455   4.553  16.925 -0.6277  0.5409 -0.4425
 9663TIP3   OH250403   6.339   0.456   4.794 -0.1558 -0.0585  0.5943
 9663TIP3    H150404   6.244   0.448   4.796 -0.0258 -1.7436  1.9442
 9663TIP3    H250405   6.363   0.430   4.705 -1.0055  1.2043 -0.0161
 9664TIP3   OH250406   0.819   2.232  13.785 -0.3913 -0.5770  0.1502
 9664TIP3    H150407   0.760   2.307  13.784 -2.4668 -2.1883 -0.3252
 9664TIP3    H250408   0.887   2.254  13.721 -1.5923  0.3976 -0.8060
 9665TIP3   OH250409   0.818   5.009   6.430 -0.1374 -0.2603 -0.4019
 9665TIP3    H150410   0.733   4.970   6.409 -0.9809 -1.1599  4.1802
 9665TIP3    H250411   0.827   5.082   6.369 -3.1993 -1.4251 -2.3612
 9666TIP3   OH250412   5.223   2.074  13.413  0.1560 -0.1018 -0.7404
 9666TIP3    H150413   5.296   2.100  13.469 -0.3287 -2.3042  0.9782
 9666TIP3    H250414   5.243   1.985  13.386 -2.7748 -1.4920  1.3729
 9667TIP3   OH250415   4.488   5.098  16.647 -0.0443 -0.1368  0.2389
 9667TIP3    H150416   4.513   5.177  16.599 -1.8119  0.7510  0.7396
 9667TIP3    H250417   4.548   5.094  16.721  1.0338 -0.1108 -0.6204
 9668TIP3   OH250418   2.193   6.327   4.058 -0.2611  0.2313  0.4545
 9668TIP3    H150419   2.230   6.412   4.036  0.2053 -0.7748 -2.8170
 9668TIP3    H250420   2.198   6.276   3.978 -0.6080 -2.8920  2.3139
 9669TIP3   OH250421   1.573   2.677  11.582 -0.4553 -0.1539 -0.2750
 9669TIP3    H150422   1.652   2.634  11.615 -0.5963  0.1731  0.5100
 9669TIP3    H250423   1.503   2.614  11.599 -0.3455 -0.5159 -1.1282
 9670TIP3   OH250424   4.330   4.733   4.688 -0.0833  0.2315  0.5088
 9670TIP3    H150425   4.379   4.652   4.673 -0.0264 -0.0452  2.1762
 9670TIP3    H250426   4.398   4.801   4.696 -0.1854  0.8413 -2.9899
 9671TIP3   OH250427   0.646   1.861   1.359 -0.1750  0.7148  0.0983
 9671TIP3    H150428   0.593   1.940   1.355 -1.0341  0.1422 -0.0027
 9671TIP3    H250429   0.729   1.889   1.397  0.3697  2.1169 -2.0188
 9672TIP3   OH250430   0.032   4.862  11.166 -0.7725 -0.5231  0.4949
 9672TIP3    H150431   0.116   4.901  11.193  0.2711 -0.9647 -1.9651
 9672TIP3    H250432  -0.006   4.926  11.106 -1.9138 -0.6171  1.1035
 9673TIP3   OH250433   2.274   1.974   1.566  0.0320  0.3945 -0.1296
 9673TIP3    H150434   2.263   2.061   1.529  2.4009  2.0138  2.7660
 9673TIP3    H250435   2.314   1.923   1.495 -1.5068  1.5668 -1.8957
 9674TIP3   OH250436   3.891   6.279  15.978 -0.0061  0.1745 -0.3572
 9674TIP3    H150437   3.829   6.320  16.039 -1.2904 -0.0008 -1.5124
 9674TIP3    H250438   3.908   6.347  15.913  1.1291  0.2602  0.0241
 9675TIP3   OH250439   4.020   2.451  11.958  0.2689  0.5317  0.1582
 9675TIP3    H150440   4.064   2.408  11.885  0.5219  0.8239  0.1393
 9675TIP3    H250441   4.058   2.538  11.961  0.1970  0.5494  0.5868
 9676TIP3   OH250442   0.183   4.722  13.254  0.0197 -0.5377 -0.0077
 9676TIP3    H150443   0.123   4.658  13.292 -2.7890  2.6789  1.1799
 9676TIP3    H250444   0.263   4.713  13.305 -1.3925 -0.9951  2.1688
 9677TIP3   OH250445   4.660   5.669  16.114 -0.0857  0.6241  0.1859
 9677TIP3    H150446   4.685   5.662  16.022  1.3287 -0.1438  0.6044
 9677TIP3    H250447   4.645   5.763  16.128  1.0185  0.9113 -0.4959
 9678TIP3   OH250448   3.987   6.467  11.941 -0.4928 -0.1578  0.2333
 9678TIP3    H150449   4.070   6.481  11.895 -1.3122  0.6609 -1.0285
 9678TIP3    H250450   4.010   6.409  12.014  1.0622 -0.4889 -0.4888
 9679TIP3   OH250451   3.177   2.340  13.680  0.1624 -0.0815  0.7195
 9679TIP3    H150452   3.272   2.342  13.669  0.1428 -0.5546  0.4519
 9679TIP3    H250453   3.164   2.326  13.774  0.3657 -0.7028  0.6576
 9680TIP3   OH250454   1.037   5.762   1.829 -0.2409 -0.4138 -0.0206
 9680TIP3    H150455   1.131   5.756   1.846 -0.1804 -0.8168 -0.4853
 9680TIP3    H250456   1.020   5.691   1.767 -0.6006  0.5119 -0.9915
 9681TIP3   OH250457   6.006   0.154   0.247 -0.1979  0.0925 -0.4660
 9681TIP3    H150458   6.099   0.171   0.257  0.2231 -2.4319  0.2471
 9681TIP3    H250459   5.984   0.097   0.321 -1.8735 -0.9330 -1.7156
 9682TIP3   OH250460   5.410   5.405   0.870 -0.0904  0.3013  0.2757
 9682TIP3    H150461   5.357   5.461   0.814 -0.4150 -0.0787  0.1969
 9682TIP3    H250462   5.497   5.446   0.871 -0.4489  1.0617  0.6048
 9683TIP3   OH250463   6.362   3.558  15.135 -0.1566 -0.3121 -0.8692
 9683TIP3    H150464   6.415   3.499  15.188  1.3412  2.0523  0.3959
 9683TIP3    H250465   6.318   3.614  15.199  0.3742  1.5066 -2.0285
 9684TIP3   OH250466   1.350   0.854   5.651 -0.2920 -0.1552 -0.9796
 9684TIP3    H150467   1.385   0.896   5.730 -1.9305 -0.4023 -0.1078
 9684TIP3    H250468   1.261   0.888   5.643 -0.1162 -0.0662 -2.7850
 9685TIP3   OH250469   5.963   4.987  13.256  0.0377 -0.1666 -0.6972
 9685TIP3    H150470   5.897   5.043  13.216  1.6996  2.1969 -0.2174
 9685TIP3    H250471   5.913   4.927  13.313 -1.7999  0.4774 -1.6082
 9686TIP3   OH250472   6.029   5.930   2.195  0.0430 -0.3929 -0.4895
 9686TIP3    H150473   6.012   5.842   2.161 -1.1339 -0.3118 -0.1418
 9686TIP3    H250474   6.028   5.986   2.117  0.9186 -0.7013 -0.7258
 9687TIP3   OH250475   0.764   3.576   0.357  0.6730  0.4564 -0.1134
 9687TIP3    H150476   0.806   3.592   0.272 -0.8780 -1.4487 -1.2909
 9687TIP3    H250477   0.794   3.647   0.412  1.8398  1.6646 -2.2282
 9688TIP3   OH250478   6.701   2.209   5.574 -1.2066 -0.0648 -0.7825
 9688TIP3    H150479   6.671   2.146   5.640 -0.5895 -0.1117 -0.5452
 9688TIP3    H250480   6.796   2.207   5.581 -1.1559  0.2234 -1.4081
 9689TIP3   OH250481   2.287   3.118   4.627  0.7816  0.5081  0.4814
 9689TIP3    H150482   2.236   3.195   4.653  0.3692  0.3690  0.1081
 9689TIP3    H250483   2.312   3.136   4.536  1.4724  0.6091  0.6876
 9690TIP3   OH250484   6.713   4.339   1.257  0.0683  0.7203 -0.0971
 9690TIP3    H150485   6.785   4.325   1.195 -1.3829 -1.1408 -1.4591
 9690TIP3    H250486   6.730   4.276   1.327 -1.3786 -1.3387 -1.5321
 9691TIP3   OH250487   4.712   1.523   3.010 -0.0419 -0.5434  0.9654
 9691TIP3    H150488   4.725   1.511   2.916 -1.1639  0.0567  0.7316
 9691TIP3    H250489   4.788   1.574   3.039  0.2239 -0.5998  0.3616
 9692TIP3   OH250490   5.549   6.300   5.294 -0.3550  0.1240 -0.2296
 9692TIP3    H150491   5.591   6.378   5.256 -0.4584 -0.6159 -1.9350
 9692TIP3    H250492   5.614   6.231   5.284 -0.4132 -0.0991  0.9258
 9693TIP3   OH250493   4.997   3.701   0.820  0.2981  0.0692 -0.5159
 9693TIP3    H150494   5.048   3.641   0.766  1.5828  1.6013 -1.0283
 9693TIP3    H250495   5.041   3.700   0.905  0.5243  0.5438 -0.6274
 9694TIP3   OH250496   5.781   5.115   5.779 -0.6028 -0.8706 -0.1065
 9694TIP3    H150497   5.804   5.023   5.795 -1.4083 -1.0377  0.0855
 9694TIP3    H250498   5.865   5.157   5.759 -0.6468 -2.3491 -3.7789
 9695TIP3   OH250499   5.459   0.780  12.918 -0.4337  0.3349 -0.3900
 9695TIP3    H150500   5.492   0.790  12.829 -0.9198  0.4509 -0.5573
 9695TIP3    H250501   5.524   0.723  12.961 -0.6454 -0.4233 -1.0624
 9696TIP3   OH250502   1.066   0.692   4.456  0.3457 -0.2633 -0.0206
 9696TIP3    H150503   1.043   0.721   4.368  2.0727 -0.4166 -0.5335
 9696TIP3    H250504   1.105   0.769   4.498 -2.1469  0.3660  1.2833
 9697TIP3   OH250505   6.439   5.177   1.057  0.8372 -0.5372  0.0733
 9697TIP3    H150506   6.446   5.104   1.119 -0.7155  0.7799  1.8536
 9697TIP3    H250507   6.346   5.180   1.034  0.9015  0.8226 -0.0361
 9698TIP3   OH250508   2.717   1.024   4.048 -0.6626 -0.0192  0.1790
 9698TIP3    H150509   2.777   1.020   3.974  1.0670  0.2408  1.5263
 9698TIP3    H250510   2.640   1.070   4.014 -0.5011 -1.1847 -1.8305
 9699TIP3   OH250511   1.356   2.207   2.971  0.6684  0.2895 -0.1017
 9699TIP3    H150512   1.367   2.292   2.929  0.4604  1.1812  1.5988
 9699TIP3    H250513   1.443   2.167   2.968  0.6246  0.2786 -1.4787
 9700TIP3   OH250514   3.509   1.675   5.078 -0.1812 -0.1882 -0.2559
 9700TIP3    H150515   3.555   1.628   5.148 -1.8188  0.4436  1.2871
 9700TIP3    H250516   3.516   1.617   5.002  0.6103 -1.4375  0.7373
 9701TIP3   OH250517   1.180   3.471   0.189 -0.1181 -0.1519  0.4671
 9701TIP3    H150518   1.122   3.420   0.245  0.9062 -1.8497  0.0169
 9701TIP3    H250519   1.256   3.415   0.175 -0.1449  0.3941 -2.2359
 9702TIP3   OH250520   2.708   0.344   1.385  0.3383 -0.1315  0.3842
 9702TIP3    H150521   2.786   0.360   1.439  0.0859 -1.2764  1.1188
 9702TIP3    H250522   2.742   0.297   1.308  0.4278 -0.3028  0.5266
 9703TIP3   OH250523   3.027   5.834  11.774  0.6922  0.1173 -0.1158
 9703TIP3    H150524   3.011   5.927  11.785 -0.0128  0.1147 -1.0650
 9703TIP3    H250525   2.974   5.792  11.842 -0.3891  0.3164 -0.8351
 9704TIP3   OH250526   0.890   4.319  11.778  0.2166  0.1952 -0.0781
 9704TIP3    H150527   0.876   4.231  11.742  0.8066  0.0602  0.0164
 9704TIP3    H250528   0.982   4.320  11.804  0.3535  1.0233 -0.5755
 9705TIP3   OH250529   2.038   1.156  15.804  0.2441 -0.0026  0.3197
 9705TIP3    H150530   2.105   1.205  15.757 -1.3438 -0.4353 -2.5009
 9705TIP3    H250531   2.064   1.064  15.792  0.7538 -0.0658  1.7833
 9706TIP3   OH250532   0.786   0.076   2.926  0.1023  0.3799  0.6074
 9706TIP3    H150533   0.820   0.156   2.884  0.8297  0.2311  0.9006
 9706TIP3    H250534   0.714   0.049   2.870  1.0178  0.2197 -0.5245
 9707TIP3   OH250535   0.714   1.791  12.980 -0.0017  0.2985  0.5172
 9707TIP3    H150536   0.707   1.868  13.036  0.3533  1.2872 -0.7931
 9707TIP3    H250537   0.636   1.740  12.999  0.1416  0.5901  1.9586
 9708TIP3   OH250538   6.766   3.783  16.309  0.0764  0.0010 -0.3353
 9708TIP3    H150539   6.821   3.766  16.385  1.6205 -0.5204 -1.5342
 9708TIP3    H250540   6.686   3.733  16.326 -0.5611  1.7070  1.9651
 9709TIP3   OH250541   6.014   3.228   0.149  0.3870 -0.0977 -0.1261
 9709TIP3    H150542   5.996   3.205   0.058 -2.5553 -1.0184  0.6239
 9709TIP3    H250543   6.029   3.322   0.148 -0.0272 -0.0401 -1.5045
 9710TIP3   OH250544   4.385   0.047   5.862  0.2014  0.1367  0.0852
 9710TIP3    H150545   4.438  -0.011   5.916 -0.1816  1.6369  2.1314
 9710TIP3    H250546   4.381   0.129   5.911 -1.5149  1.0168 -1.4589
 9711TIP3   OH250547   6.732   3.020  15.290 -0.1716  0.4196  0.5183
 9711TIP3    H150548   6.685   2.975  15.360 -0.3169  0.5199  0.4850
 9711TIP3    H250549   6.795   2.955  15.257  0.2280  0.5294  1.0614
 9712TIP3   OH250550   2.435   6.607  13.407  0.2201 -0.0510 -0.1545
 9712TIP3    H150551   2.449   6.536  13.470  0.6801  0.0012 -0.1967
 9712TIP3    H250552   2.343   6.600  13.383  0.4411 -1.1253 -0.7428
 9713TIP3   OH250553   5.156   3.813  15.030 -0.5390 -0.1960 -0.0218
 9713TIP3    H150554   5.176   3.907  15.025  0.1753 -0.3796 -0.7880
 9713TIP3    H250555   5.185   3.787  15.117  0.2158  0.0782 -0.1881
 9714TIP3   OH250556   5.244   3.768   5.667  0.2590 -0.1443 -0.3457
 9714TIP3    H150557   5.217   3.860   5.666 -0.4521 -0.3528 -0.9623
 9714TIP3    H250558   5.318   3.764   5.606  0.9541  0.2045  0.4558
 9715TIP3   OH250559   3.612   4.445   2.094  0.7599  0.6059 -0.0501
 9715TIP3    H150560   3.536   4.482   2.050  1.2609  0.2437 -1.2238
 9715TIP3    H250561   3.646   4.517   2.147 -0.4531  0.7389  0.5854
 9716TIP3   OH250562   3.853   6.697   6.203 -0.6714 -0.1868 -0.2588
 9716TIP3    H150563   3.809   6.782   6.194  0.3652  0.5127  1.0874
 9716TIP3    H250564   3.888   6.679   6.115 -0.8199  0.8345 -0.5334
 9717TIP3   OH250565   5.525   0.939  13.497  0.0072  0.4436  0.1532
 9717TIP3    H150566   5.471   0.864  13.520 -0.6923  1.3906  1.7389
 9717TIP3    H250567   5.466   0.997  13.448  0.0446  0.7149  0.4208
 9718TIP3   OH250568   5.833   6.228   4.586 -0.4939  0.1762 -0.3949
 9718TIP3    H150569   5.864   6.292   4.522  0.5769  0.7102  0.6267
 9718TIP3    H250570   5.858   6.266   4.671 -0.0308 -1.4960  0.2350
 9719TIP3   OH250571   0.669   4.311   0.818 -0.3166 -0.0401 -0.0626
 9719TIP3    H150572   0.732   4.283   0.884 -0.3476  0.9228  0.3934
 9719TIP3    H250573   0.689   4.258   0.741  0.1117 -0.7470  0.5331
 9720TIP3   OH250574   4.557   1.487   4.810  0.2734 -0.0706 -0.1092
 9720TIP3    H150575   4.504   1.417   4.772  1.0060 -0.9689  0.4957
 9720TIP3    H250576   4.565   1.463   4.902  2.7024 -0.5762 -0.4194
 9721TIP3   OH250577   1.026   4.633  14.415 -0.5780  0.3047 -0.3939
 9721TIP3    H150578   1.094   4.580  14.456  0.8763  1.2988 -1.4546
 9721TIP3    H250579   0.945   4.609  14.460  0.2241 -2.0043 -0.1460
 9722TIP3   OH250580   6.240   4.267   3.220  0.4438  0.2503 -0.0072
 9722TIP3    H150581   6.216   4.187   3.174 -0.4835  0.7141 -0.3441
 9722TIP3    H250582   6.156   4.308   3.242  0.8898  0.5769  1.1333
 9723TIP3   OH250583   1.949   4.886  14.458  0.6381  0.0413 -0.7646
 9723TIP3    H150584   1.900   4.951  14.509  1.4639 -0.5293  0.7859
 9723TIP3    H250585   2.039   4.897  14.487  0.5914 -2.7955  0.5959
 9724TIP3   OH250586   4.986   2.338  14.382  0.2248 -0.2336  0.1024
 9724TIP3    H150587   5.040   2.296  14.449 -1.8440  0.7650  2.5393
 9724TIP3    H250588   4.913   2.278  14.369 -0.9042  0.8992  0.9828
 9725TIP3   OH250589   5.052   0.906   5.162 -0.0585  0.0920 -0.4547
 9725TIP3    H150590   5.110   0.981   5.151 -0.0845  0.1248 -0.3645
 9725TIP3    H250591   5.031   0.879   5.073 -2.0823  1.7599 -0.5174
 9726TIP3   OH250592   5.071   6.344  14.091  0.2015  0.0626 -0.6247
 9726TIP3    H150593   5.031   6.258  14.106  0.3857 -0.2112 -1.5971
 9726TIP3    H250594   5.097   6.375  14.177  0.3766 -0.9910 -0.2965
 9727TIP3   OH250595   4.495   3.816   1.092 -0.3173 -0.4153  0.2220
 9727TIP3    H150596   4.488   3.748   1.025  2.3506 -1.4730  0.9728
 9727TIP3    H250597   4.447   3.781   1.167 -0.7051 -0.5593 -0.0930
 9728TIP3   OH250598   6.077   4.974   0.613 -0.6366  0.7924 -0.3667
 9728TIP3    H150599   5.989   4.937   0.606 -1.3192  2.4505 -0.7147
 9728TIP3    H250600   6.120   4.948   0.532 -0.6758 -0.3351 -0.0349
 9729TIP3   OH250601   2.155   0.934  15.725  0.2014  0.0889 -0.6313
 9729TIP3    H150602   2.183   0.856  15.773 -2.0705 -0.7254 -0.5821
 9729TIP3    H250603   2.154   0.907  15.633  0.6161  0.4558 -0.7502
 9730TIP3   OH250604   1.940   0.304  12.380  0.4771  0.0268  0.3600
 9730TIP3    H150605   1.952   0.316  12.474 -0.0658  0.3545  0.3904
 9730TIP3    H250606   1.988   0.376  12.340  3.6292 -2.0461  0.2351
 9731TIP3   OH250607   6.190   4.141   3.554 -0.2286 -0.0234  0.0553
 9731TIP3    H150608   6.237   4.114   3.633  1.4224  2.1050 -0.1545
 9731TIP3    H250609   6.169   4.059   3.509  2.4394 -1.0783  0.6512
 9732TIP3   OH250610   6.304   2.890  16.544  0.4435  0.0088  0.4707
 9732TIP3    H150611   6.389   2.861  16.511 -0.2157  0.8467 -2.0424
 9732TIP3    H250612   6.325   2.960  16.606  1.5691  0.4881 -0.4385
 9733TIP3   OH250613   1.143   2.983  14.387  0.8992 -0.2848  0.0699
 9733TIP3    H150614   1.155   2.902  14.338  0.8638 -0.2244 -0.0389
 9733TIP3    H250615   1.053   2.977  14.420  0.8868 -0.2766  0.0381
 9734TIP3   OH250616   3.095   2.467   0.600 -0.0186  0.1685 -0.6683
 9734TIP3    H150617   3.051   2.406   0.659 -1.4089 -0.1760 -2.0132
 9734TIP3    H250618   3.027   2.530   0.575  0.2546 -0.2817 -2.6629
 9735TIP3   OH250619   0.968   2.348   5.207 -0.2407  0.1867  0.0700
 9735TIP3    H150620   0.970   2.258   5.174 -3.2966  0.2783 -0.4977
 9735TIP3    H250621   0.996   2.402   5.133  1.3668 -0.2528  0.3395
 9736TIP3   OH250622   6.490   1.618  11.473  0.1501  0.0630  0.5259
 9736TIP3    H150623   6.461   1.562  11.545 -0.6396  0.7094  0.7202
 9736TIP3    H250624   6.546   1.684  11.515  0.2499  0.0259  0.4510
 9737TIP3   OH250625   2.334   4.170   2.658  0.0526 -0.5258  0.2876
 9737TIP3    H150626   2.419   4.136   2.688  0.9345  1.5632  0.2370
 9737TIP3    H250627   2.287   4.092   2.629  2.4694 -1.6064 -0.9318
 9738TIP3   OH250628   1.042   2.540  11.106  0.3396 -0.0365 -0.7276
 9738TIP3    H150629   1.035   2.460  11.054 -2.4464  0.1878 -0.7909
 9738TIP3    H250630   1.020   2.610  11.044 -0.9539  0.4242  0.2427
 9739TIP3   OH250631   3.652   0.649   5.965  0.0601 -0.2178  0.3227
 9739TIP3    H150632   3.655   0.655   6.060 -0.5098 -0.7132  0.3722
 9739TIP3    H250633   3.570   0.604   5.946 -0.5721  1.2453 -0.4632
 9740TIP3   OH250634   5.299   5.552  10.815  0.9472  0.4806  0.6787
 9740TIP3    H150635   5.231   5.538  10.881 -0.3713  0.0412 -0.7473
 9740TIP3    H250636   5.314   5.646  10.815  0.2566  0.5936  0.9195
 9741TIP3   OH250637   0.734   5.496  12.754 -0.2211 -0.3065  0.8746
 9741TIP3    H150638   0.641   5.482  12.735 -0.9161  2.4861  1.8953
 9741TIP3    H250639   0.749   5.449  12.836 -0.7865 -0.5569  0.8374
 9742TIP3   OH250640   0.218   2.936   0.172 -0.3595 -0.4482  0.3777
 9742TIP3    H150641   0.156   3.004   0.197  2.3895  2.7592 -1.2618
 9742TIP3    H250642   0.304   2.976   0.182  1.3875 -3.8630 -0.1302
 9743TIP3   OH250643   5.665   1.169  11.051  0.5796 -0.2057  0.1177
 9743TIP3    H150644   5.688   1.079  11.074  0.2389 -0.4881 -0.6148
 9743TIP3    H250645   5.662   1.216  11.134  1.0147 -0.8164  0.4767
 9744TIP3   OH250646   0.529   1.428  11.178  0.5850 -0.2332 -0.2239
 9744TIP3    H150647   0.512   1.334  11.173  1.3364 -0.2791 -2.1333
 9744TIP3    H250648   0.545   1.455  11.088 -1.2505  2.0479  0.0702
 9745TIP3   OH250649   5.227   2.688  13.519 -1.0028 -0.3668 -0.1362
 9745TIP3    H150650   5.252   2.671  13.428 -0.7381  1.7361 -0.4857
 9745TIP3    H250651   5.131   2.690  13.518 -1.0049  2.9567 -1.0871
 9746TIP3   OH250652   5.390   3.866  17.092 -0.0185  0.4089  0.3002
 9746TIP3    H150653   5.384   3.954  17.129  1.1840  0.3833  0.5630
 9746TIP3    H250654   5.345   3.810  17.156 -0.5985  0.7910  0.2305
 9747TIP3   OH250655   1.999   2.431   4.401 -0.8490 -0.1148 -0.2766
 9747TIP3    H150656   2.052   2.428   4.481 -0.6515  0.0175 -0.4008
 9747TIP3    H250657   1.977   2.340   4.383  1.5092 -0.4511 -1.6592
 9748TIP3   OH250658   4.243   3.370   1.354 -0.4372  0.3300  0.7463
 9748TIP3    H150659   4.315   3.349   1.294 -1.8526 -0.2698 -0.7884
 9748TIP3    H250660   4.167   3.384   1.297 -1.4755  1.2946  2.3084
 9749TIP3   OH250661   2.146   0.709  13.621 -0.3502  0.9326  0.1411
 9749TIP3    H150662   2.220   0.742  13.569 -1.1273  1.3818 -0.6882
 9749TIP3    H250663   2.119   0.629  13.576  1.2727 -0.6823  1.9220
 9750TIP3   OH250664   5.026   1.964  15.245 -0.5034  0.3319  0.3592
 9750TIP3    H150665   5.043   2.057  15.232 -1.5932  0.6019  0.7770
 9750TIP3    H250666   5.101   1.932  15.295 -0.9338  1.3498  1.6816
 9751TIP3   OH250667   0.186   0.154  11.768 -0.6021 -0.7913 -0.2538
 9751TIP3    H150668   0.270   0.192  11.741 -0.8837 -0.3437 -0.5057
 9751TIP3    H250669   0.129   0.168  11.693 -1.2646  0.0650  0.3976
 9752TIP3   OH250670   4.499   6.507  16.985 -0.2663 -0.3951 -0.2912
 9752TIP3    H150671   4.481   6.562  16.909 -0.4982 -1.1054 -0.7573
 9752TIP3    H250672   4.562   6.443  16.953 -0.0862 -0.4765  0.2181
 9753TIP3   OH250673   5.836   5.739  11.037  0.5949 -0.5429 -0.8259
 9753TIP3    H150674   5.851   5.826  11.075 -0.9140 -1.0229  0.9486
 9753TIP3    H250675   5.775   5.755  10.965  0.5739 -0.0895 -0.7107
 9754TIP3   OH250676   3.690   4.330   5.435 -0.2552 -0.0166  0.0892
 9754TIP3    H150677   3.731   4.257   5.389  0.1717  1.1224 -1.3716
 9754TIP3    H250678   3.608   4.345   5.389 -1.2822 -0.8505  1.6243
 9755TIP3   OH250679   3.300   5.849  13.702 -0.2730  0.4495  0.9369
 9755TIP3    H150680   3.360   5.834  13.629  0.2865  1.6442  1.1304
 9755TIP3    H250681   3.352   5.899  13.765 -0.8556 -0.2871  2.0049
 9756TIP3   OH250682   3.329   6.484   5.491  0.3051 -0.0049 -0.2295
 9756TIP3    H150683   3.239   6.467   5.464  0.2680 -0.7104  0.3316
 9756TIP3    H250684   3.383   6.433   5.431  0.4538  2.2121 -2.0459
 9757TIP3   OH250685   4.599   3.833   2.833 -0.0308  0.0714 -0.0819
 9757TIP3    H150686   4.543   3.910   2.823  1.8367  1.3651 -0.9268
 9757TIP3    H250687   4.579   3.780   2.756 -2.2566 -0.9451  1.1496
 9758TIP3   OH250688   6.643   2.452  16.485 -0.1839  0.4381  0.5102
 9758TIP3    H150689   6.553   2.419  16.488 -0.6150  1.6834  1.5112
 9758TIP3    H250690   6.687   2.407  16.557 -0.2068  0.4058  0.5049
 9759TIP3   OH250691   2.299   5.511   3.083  0.0224  0.0192  0.3366
 9759TIP3    H150692   2.367   5.487   3.020  0.9033  0.9226  0.9206
 9759TIP3    H250693   2.306   5.446   3.153  0.8476  0.5919  0.7943
 9760TIP3   OH250694   6.213   2.695   0.384  0.0743 -0.2644  0.5664
 9760TIP3    H150695   6.196   2.604   0.360  1.3673 -0.5164  0.5725
 9760TIP3    H250696   6.306   2.697   0.405  0.3569  1.3718 -0.8163
 9761TIP3   OH250697   2.866   6.145  10.988 -0.0451  1.0624  0.8448
 9761TIP3    H150698   2.856   6.055  11.019  0.7473  0.6222 -0.1374
 9761TIP3    H250699   2.886   6.195  11.066  0.6937  0.1792  1.2281
 9762TIP3   OH250700   2.717   2.968   2.479 -0.4884 -0.1562  0.5219
 9762TIP3    H150701   2.744   3.053   2.443 -0.0005 -0.9119 -0.9599
 9762TIP3    H250702   2.632   2.952   2.439 -0.9782  0.0324  1.4852
 9763TIP3   OH250703   4.661   0.336  14.639 -0.2035 -0.2864  0.4078
 9763TIP3    H150704   4.581   0.373  14.602 -1.3152  0.2550  3.1830
 9763TIP3    H250705   4.709   0.412  14.672  0.5106 -0.7775  0.5070
 9764TIP3   OH250706   5.782   1.859   3.908  0.5839  0.2528 -0.1772
 9764TIP3    H150707   5.825   1.847   3.823  0.3093 -1.5603 -0.0777
 9764TIP3    H250708   5.712   1.794   3.909  0.6977  0.1346  1.5229
 9765TIP3   OH250709   1.778   3.477   0.911  0.5989  0.6604 -0.8757
 9765TIP3    H150710   1.813   3.487   0.823  0.9437 -1.0157 -0.9440
 9765TIP3    H250711   1.849   3.437   0.961 -0.4338 -0.6944 -0.4622
 9766TIP3   OH250712   2.978   4.402  16.024  0.1353  0.0541 -0.2414
 9766TIP3    H150713   2.982   4.469  16.091  1.3860 -0.7827  0.5422
 9766TIP3    H250714   2.957   4.321  16.071  0.4322 -0.4283 -0.9154
 9767TIP3   OH250715   0.576   6.589   3.606  0.8345  0.7010  0.1450
 9767TIP3    H150716   0.566   6.498   3.635  1.4049  1.1744  1.8517
 9767TIP3    H250717   0.486   6.618   3.588  0.7008 -0.3837 -1.0562
 9768TIP3   OH250718   2.767   5.542   0.840  0.2926 -0.1163 -0.0748
 9768TIP3    H150719   2.681   5.546   0.797  0.3127  1.2313 -0.0241
 9768TIP3    H250720   2.817   5.613   0.800  0.8032  0.2259  1.1425
 9769TIP3   OH250721   0.471   1.336   5.966  0.1369 -0.0032 -0.5607
 9769TIP3    H150722   0.463   1.246   5.997 -1.3153 -0.0479 -1.0186
 9769TIP3    H250723   0.537   1.375   6.022 -0.3767 -0.9015  0.6917
 9770TIP3   OH250724   2.164   2.860  13.200 -0.0965 -0.3823  0.1525
 9770TIP3    H150725   2.219   2.936  13.220 -1.5044  1.2437 -1.9584
 9770TIP3    H250726   2.211   2.815  13.129  0.5484 -1.2883  1.1459
 9771TIP3   OH250727   2.679   3.731   0.607 -0.2282 -0.6551 -0.1130
 9771TIP3    H150728   2.766   3.746   0.570  0.1581  1.6560  1.6104
 9771TIP3    H250729   2.692   3.661   0.671  0.8653  1.1666  1.7192
 9772TIP3   OH250730   2.672   3.917  16.604 -0.4950 -0.3348 -0.3386
 9772TIP3    H150731   2.577   3.918  16.595 -0.8359 -0.5132  2.7240
 9772TIP3    H250732   2.693   3.826  16.625 -0.1029  0.4224  2.7838
 9773TIP3   OH250733   5.492   5.175   0.550 -0.1310  0.3353  0.3379
 9773TIP3    H150734   5.434   5.119   0.497  1.3467 -1.3752  0.4963
 9773TIP3    H250735   5.453   5.262   0.543 -1.5000 -0.3725 -1.3475
 9774TIP3   OH250736   0.129   2.032   0.960  0.4886 -0.1689 -0.3958
 9774TIP3    H150737   0.098   2.064   0.875  1.0267  0.2141 -0.4537
 9774TIP3    H250738   0.051   2.028   1.014  0.3676  0.9777 -0.4806
 9775TIP3   OH250739   4.457   2.964  15.986 -0.2876 -0.3826  0.0553
 9775TIP3    H150740   4.378   2.909  15.990  0.1876 -1.0794  0.0805
 9775TIP3    H250741   4.429   3.049  16.019 -1.6924  0.1758 -2.4574
 9776TIP3   OH250742   0.302   6.232   4.909 -0.0371 -0.6303  0.4569
 9776TIP3    H150743   0.249   6.206   4.833  2.7598 -0.0640 -1.7576
 9776TIP3    H250744   0.370   6.289   4.873  1.0367  0.1141  3.5019
 9777TIP3   OH250745   4.674   5.322   1.080  0.2911 -0.0236  0.1162
 9777TIP3    H150746   4.627   5.366   1.009 -3.0718 -2.7559  0.5041
 9777TIP3    H250747   4.743   5.272   1.036  2.0145  2.9048 -0.6159
 9778TIP3   OH250748   3.441   4.968  15.604  0.7685  0.4989 -0.3129
 9778TIP3    H150749   3.465   4.913  15.679 -0.7967 -1.8110 -1.4539
 9778TIP3    H250750   3.471   4.919  15.527  0.7246  1.9875 -1.3024
 9779TIP3   OH250751   1.112   3.401   2.212 -0.3872  0.4713  0.0582
 9779TIP3    H150752   1.142   3.312   2.227  0.8429  0.8708  0.0235
 9779TIP3    H250753   1.184   3.456   2.241 -1.3760  1.4771  0.6326
 9780TIP3   OH250754   1.256   5.821   4.887 -0.1444  0.5234  0.0185
 9780TIP3    H150755   1.165   5.796   4.875 -0.0016 -0.4057  0.8203
 9780TIP3    H250756   1.288   5.840   4.798 -1.2416  1.3517 -0.2132
 9781TIP3   OH250757   5.805   2.063  14.269 -0.0422  0.4081 -0.1126
 9781TIP3    H150758   5.746   2.023  14.334 -3.1744  0.6364 -2.6835
 9781TIP3    H250759   5.777   2.154  14.265  1.0443  0.7127 -0.8000
 9782TIP3   OH250760   0.192   4.102  16.831  0.7878  0.1143  0.3288
 9782TIP3    H150761   0.166   4.086  16.921  0.6303 -3.0512 -0.2044
 9782TIP3    H250762   0.113   4.136  16.789  0.3565 -0.0655  0.9917
 9783TIP3   OH250763   6.673   1.090  16.315 -0.1923  0.6413 -0.0375
 9783TIP3    H150764   6.736   1.141  16.265  2.3128 -1.0938  1.2129
 9783TIP3    H250765   6.665   1.136  16.398 -1.3226  1.3760 -0.5446
 9784TIP3   OH250766   5.158   4.011   3.154  0.0224 -0.5793 -0.4174
 9784TIP3    H150767   5.152   3.969   3.240  0.0216 -2.5735 -1.3691
 9784TIP3    H250768   5.068   4.013   3.123 -0.1136  1.0768  0.0479
 9785TIP3   OH250769   2.215   3.596  16.023  0.2065  0.3080  0.5354
 9785TIP3    H150770   2.277   3.618  15.954 -0.4593 -0.9498 -0.4778
 9785TIP3    H250771   2.130   3.623  15.989 -0.2164 -0.9548  0.5486
 9786TIP3   OH250772   6.598   2.298   1.114 -0.1912 -0.2994 -0.1851
 9786TIP3    H150773   6.513   2.306   1.070 -0.6714 -3.4718  0.0271
 9786TIP3    H250774   6.576   2.303   1.207  0.2263  1.5559 -0.1656
 9787TIP3   OH250775   6.706   1.999  17.234  0.4007  0.2475 -0.3715
 9787TIP3    H150776   6.675   1.985  17.324 -0.4754  0.9544 -0.5557
 9787TIP3    H250777   6.669   2.083  17.209  0.5551  0.0067 -1.4376
 9788TIP3   OH250778   3.352   2.073   5.324 -0.4157  0.0634  0.3844
 9788TIP3    H150779   3.370   2.031   5.240  0.4682  1.3247 -0.0721
 9788TIP3    H250780   3.330   2.001   5.383  3.0215 -1.2878  0.1312
 9789TIP3   OH250781   0.657   1.510   1.735  0.3207 -0.7811 -0.3922
 9789TIP3    H150782   0.698   1.432   1.699  0.6134 -1.6015  1.6353
 9789TIP3    H250783   0.566   1.505   1.706  0.9427 -0.5106 -2.4158
 9790TIP3   OH250784   6.129   4.536   2.593  0.0168 -0.9996 -0.2318
 9790TIP3    H150785   6.049   4.485   2.610  0.4241 -0.9094  2.2333
 9790TIP3    H250786   6.114   4.619   2.638  0.6514 -0.1419 -1.5700
 9791TIP3   OH250787   5.479   1.414   3.827  0.2050 -0.2196 -0.6942
 9791TIP3    H150788   5.390   1.446   3.810  0.0531 -0.8127 -1.0405
 9791TIP3    H250789   5.477   1.386   3.918 -0.0384 -0.4651 -0.7723
 9792TIP3   OH250790   0.186   5.244   2.488  0.4193  0.7437 -0.0726
 9792TIP3    H150791   0.137   5.192   2.424 -1.1892  2.5644 -0.3696
 9792TIP3    H250792   0.265   5.193   2.504 -1.5936 -2.3527  0.4901
 9793TIP3   OH250793   2.217   5.324   1.545 -0.0609 -0.1199  0.0648
 9793TIP3    H150794   2.245   5.393   1.485 -0.0136 -0.5826 -0.4563
 9793TIP3    H250795   2.292   5.311   1.604 -0.3500  0.7799  0.6342
 9794TIP3   OH250796   4.958   6.352  11.248  0.1057  0.0705  1.1997
 9794TIP3    H150797   4.945   6.381  11.158 -0.9510  0.5879  1.5174
 9794TIP3    H250798   4.871   6.351  11.286  0.5260 -0.3281  2.1676
 9795TIP3   OH250799   4.318   0.210  12.860 -0.3419  0.0034  0.1111
 9795TIP3    H150800   4.350   0.120  12.854  1.7920  0.5959  1.9870
 9795TIP3    H250801   4.238   0.203  12.912 -0.4249 -0.8381 -0.1165
 9796TIP3   OH250802   0.150   6.023  16.088  0.3526  0.3218  0.3226
 9796TIP3    H150803   0.190   6.086  16.148 -1.1752  0.6978  0.9420
 9796TIP3    H250804   0.175   6.056  16.001 -1.3520  2.4478  0.5902
 9797TIP3   OH250805   1.093   0.271  14.943  0.1471  0.4396 -0.0134
 9797TIP3    H150806   1.039   0.248  14.868  2.1349  1.1475 -1.7061
 9797TIP3    H250807   1.069   0.362  14.963  0.7768  0.7893 -0.8299
 9798TIP3   OH250808   5.709   1.904  15.633 -0.5450  0.1572 -0.3696
 9798TIP3    H150809   5.796   1.867  15.649  0.2184  2.5149  1.3181
 9798TIP3    H250810   5.696   1.895  15.539  0.9922 -1.3425 -0.4646
 9799TIP3   OH250811   0.667   2.025  15.854  0.3035 -0.2088  0.3968
 9799TIP3    H150812   0.637   1.975  15.930 -0.7473 -1.2098 -0.6525
 9799TIP3    H250813   0.598   2.091  15.840  0.5921  0.1024  0.4345
 9800TIP3   OH250814   1.088   2.429  11.715 -0.1501  0.5083 -0.2745
 9800TIP3    H150815   1.164   2.477  11.682  0.3275  0.2186  0.3852
 9800TIP3    H250816   1.120   2.385  11.794 -0.9878  0.3287 -0.0299
 9801TIP3   OH250817   2.757   1.542   3.510  0.2221  0.4095 -0.5192
 9801TIP3    H150818   2.766   1.510   3.420  1.1512  0.9285 -0.6105
 9801TIP3    H250819   2.677   1.499   3.542  0.6791 -0.9032 -1.1039
 9802TIP3   OH250820   1.734   5.664   1.432  0.0805 -1.0169  0.0150
 9802TIP3    H150821   1.675   5.615   1.375 -1.8889  1.8073 -0.4624
 9802TIP3    H250822   1.692   5.661   1.518 -0.0423 -0.1618 -0.0165
 9803TIP3   OH250823   4.585   4.186   3.195  0.1077 -0.2234  0.5998
 9803TIP3    H150824   4.527   4.241   3.248  1.4657 -0.7157  2.6460
 9803TIP3    H250825   4.562   4.096   3.219  1.4614 -0.4325  1.1677
 9804TIP3   OH250826   4.799   4.177  14.714  0.4297  0.2333  0.3992
 9804TIP3    H150827   4.844   4.258  14.689 -0.5922  0.5536 -0.4416
 9804TIP3    H250828   4.715   4.206  14.750 -2.2059 -0.5638 -4.6613
 9805TIP3   OH250829   2.868   5.483  13.208  0.8077  0.0550  0.3846
 9805TIP3    H150830   2.846   5.561  13.156  1.1473 -0.5709 -0.7161
 9805TIP3    H250831   2.822   5.496  13.291 -1.0789  0.3082 -0.6748
 9806TIP3   OH250832   1.749   1.585  14.322  0.3956  0.2788 -0.4631
 9806TIP3    H150833   1.738   1.574  14.416 -0.1484 -0.3060 -0.5961
 9806TIP3    H250834   1.661   1.597  14.288  0.4057 -1.4554 -1.1510
 9807TIP3   OH250835   1.907   3.934   4.611  0.5677 -0.3110 -0.8647
 9807TIP3    H150836   1.911   3.980   4.696 -2.3686 -1.1501 -0.2375
 9807TIP3    H250837   1.924   4.003   4.547 -0.9217  1.1243  0.2251
 9808TIP3   OH250838   5.520   6.130   2.706 -0.1428 -0.5609  0.6048
 9808TIP3    H150839   5.453   6.062   2.696  0.9582 -1.3099 -2.4231
 9808TIP3    H250840   5.471   6.209   2.727 -1.9776 -1.1470 -1.2954
 9809TIP3   OH250841   2.893   4.462   0.143 -0.0789 -0.4287  0.2315
 9809TIP3    H150842   2.976   4.438   0.102 -0.0102  0.8971 -0.4358
 9809TIP3    H250843   2.827   4.440   0.077 -0.0523  0.7417 -0.1951
 9810TIP3   OH250844   5.633   6.058   6.135  0.0357 -0.0537  0.0779
 9810TIP3    H150845   5.683   6.083   6.213  1.0209  0.1267 -0.5965
 9810TIP3    H250846   5.565   5.999   6.168  2.1638 -2.2665  0.7294
 9811TIP3   OH250847   1.888   1.873   5.700 -0.4488  0.3712 -0.0650
 9811TIP3    H150848   1.840   1.954   5.680 -1.5810 -0.0121  0.9912
 9811TIP3    H250849   1.977   1.902   5.718 -0.7579  1.3503 -0.0663
 9812TIP3   OH250850   1.316   4.233   1.557  0.5880  0.4101 -0.1266
 9812TIP3    H150851   1.276   4.311   1.518  0.8047  1.0488  0.9050
 9812TIP3    H250852   1.241   4.179   1.584  0.3408  1.9100  2.4151
 9813TIP3   OH250853   2.974   1.948   5.099 -0.5439  0.0056  0.1187
 9813TIP3    H150854   2.902   1.929   5.038 -0.7457  0.1320  0.3186
 9813TIP3    H250855   3.044   1.982   5.042 -0.7012  0.0411 -0.0568
 9814TIP3   OH250856   5.588   6.261   4.907  0.5934  0.1516  0.0491
 9814TIP3    H150857   5.579   6.350   4.874  2.3950 -0.1560 -1.4050
 9814TIP3    H250858   5.503   6.220   4.890  0.0941  1.2906 -0.2227
 9815TIP3   OH250859   6.427   2.041  14.739  0.4290 -0.1700  0.0627
 9815TIP3    H150860   6.410   1.986  14.815  1.6377 -1.9083 -0.8940
 9815TIP3    H250861   6.519   2.067  14.748  0.4134  0.0970 -0.5122
 9816TIP3   OH250862   4.056   1.381   6.050 -0.3892  0.4593  0.0644
 9816TIP3    H150863   4.150   1.396   6.048 -0.3318  0.0023 -1.9039
 9816TIP3    H250864   4.039   1.320   5.978 -2.3704  1.7299 -0.6104
 9817TIP3   OH250865   6.737   0.935   4.933 -0.5797 -0.2047 -0.3763
 9817TIP3    H150866   6.701   0.925   4.844 -0.2062  0.8942 -0.6543
 9817TIP3    H250867   6.831   0.946   4.919 -0.2555 -1.9281  0.2836
 9818TIP3   OH250868   2.038   1.449  12.109 -0.3946  0.4289 -0.1118
 9818TIP3    H150869   2.052   1.482  12.198 -1.8148 -2.7746  1.3985
 9818TIP3    H250870   2.111   1.389  12.093  0.5842  1.9813 -1.6789
 9819TIP3   OH250871   6.580   3.356  17.093 -0.1540  0.0620  0.2823
 9819TIP3    H150872   6.673   3.376  17.090  0.0713 -1.1516 -1.7474
 9819TIP3    H250873   6.549   3.372  17.004 -1.3824 -1.7662  0.3509
 9820TIP3   OH250874   4.279   5.682   2.834  0.1783  0.0405 -0.6345
 9820TIP3    H150875   4.207   5.621   2.824 -1.4742  1.7831  0.3198
 9820TIP3    H250876   4.288   5.723   2.748 -1.1779  1.1101 -0.2794
 9821TIP3   OH250877   5.969   3.002   2.491 -0.0637  0.0351 -0.1425
 9821TIP3    H150878   6.019   3.079   2.464  0.2134  0.1662  0.7440
 9821TIP3    H250879   6.035   2.942   2.527 -0.4437 -0.0931  0.3441
 9822TIP3   OH250880   1.447   6.131  16.040 -0.0154  0.4197 -0.1552
 9822TIP3    H150881   1.355   6.160  16.037 -0.3701 -0.6470  0.4188
 9822TIP3    H250882   1.474   6.130  15.948 -0.9562 -0.4756 -0.4331
 9823TIP3   OH250883   1.337   5.754  16.430  0.0276  0.3211  0.0400
 9823TIP3    H150884   1.268   5.705  16.475  0.9853  0.2163  1.4212
 9823TIP3    H250885   1.296   5.786  16.350 -2.0827  1.5335  1.5534
 9824TIP3   OH250886   5.492   0.335   3.411  0.6664  0.6419  0.5251
 9824TIP3    H150887   5.444   0.412   3.381 -0.5373  0.4757  1.9299
 9824TIP3    H250888   5.548   0.368   3.482  0.7768  0.3857  0.5588
 9825TIP3   OH250889   4.663   0.152  13.972 -0.0186  0.7392 -0.5781
 9825TIP3    H150890   4.638   0.239  13.941  0.2531  1.1269  0.2710
 9825TIP3    H250891   4.730   0.168  14.038  0.4112 -0.1437 -0.7791
 9826TIP3   OH250892   3.925   2.408  13.405 -0.3606  0.4706  0.2180
 9826TIP3    H150893   3.908   2.332  13.460  1.1983 -0.1260 -0.1221
 9826TIP3    H250894   4.005   2.387  13.357 -1.5183  1.0861 -2.0865
 9827TIP3   OH250895   0.877   2.629  11.810  0.3530  0.5051 -0.4769
 9827TIP3    H150896   0.926   2.682  11.748  0.7994  0.2152 -0.3768
 9827TIP3    H250897   0.936   2.557  11.831 -0.5517 -0.4877 -1.2565
 9828TIP3   OH250898   4.524   2.938   3.478 -0.2616  0.0570  0.3811
 9828TIP3    H150899   4.570   3.021   3.487 -0.3367 -0.0732  2.0187
 9828TIP3    H250900   4.431   2.962   3.473 -0.2889  0.0640  0.9353
 9829TIP3   OH250901   5.291   5.691  15.648 -0.3010 -0.0484  0.2429
 9829TIP3    H150902   5.260   5.678  15.558 -1.6530  1.4479  0.4767
 9829TIP3    H250903   5.238   5.631  15.700 -2.2192  1.8491  0.5230
 9830TIP3   OH250904   1.545   2.933   1.861  0.0348 -0.0810 -0.7308
 9830TIP3    H150905   1.597   2.873   1.914  1.4263  1.8736  0.1522
 9830TIP3    H250906   1.457   2.928   1.898  0.4273 -0.6406  0.1308
 9831TIP3   OH250907   2.845   2.351   3.094 -0.3295 -0.5768  0.3524
 9831TIP3    H150908   2.909   2.345   3.023  0.3765 -0.8446  1.0110
 9831TIP3    H250909   2.774   2.293   3.066 -0.1543 -0.5059 -0.2450
 9832TIP3   OH250910   3.808   5.309  15.812 -0.2635 -1.0426 -0.0199
 9832TIP3    H150911   3.790   5.346  15.898  1.2116  2.7557 -1.2121
 9832TIP3    H250912   3.876   5.244  15.827  1.7307  1.2957  1.4131
 9833TIP3   OH250913   5.997   5.669   4.531  0.3445  0.2197 -0.3461
 9833TIP3    H150914   6.019   5.732   4.462 -0.0191  0.1892 -0.4931
 9833TIP3    H250915   5.916   5.628   4.501 -1.3204  2.1428  1.3800
 9834TIP3   OH250916   1.638   5.773  13.071  0.1588  0.4012 -0.3955
 9834TIP3    H150917   1.573   5.764  13.141  0.2910  0.6110 -0.2453
 9834TIP3    H250918   1.668   5.863  13.078  1.7311 -0.1814  0.6502
 9835TIP3   OH250919   3.518   5.192  15.848 -0.1833 -0.9044 -0.9951
 9835TIP3    H150920   3.533   5.173  15.756 -1.9736 -1.9771 -1.0889
 9835TIP3    H250921   3.580   5.136  15.895  0.6137 -0.4802 -1.5312
 9836TIP3   OH250922   4.002   5.495   1.473  0.2998 -0.0766  0.5710
 9836TIP3    H150923   4.004   5.483   1.568  0.7349  2.1097  0.8512
 9836TIP3    H250924   4.073   5.440   1.440 -1.0897 -2.4014  1.2951
 9837TIP3   OH250925   1.325   3.950  12.231 -0.3078 -0.3680 -0.0099
 9837TIP3    H150926   1.369   3.938  12.315 -0.3632 -1.5022 -0.1305
 9837TIP3    H250927   1.247   4.002  12.252 -1.2166 -2.0461  0.9377
 9838TIP3   OH250928   3.731   2.747  14.536  0.0990  0.3061  0.0951
 9838TIP3    H150929   3.757   2.656  14.547 -0.5164  0.0828 -0.2577
 9838TIP3    H250930   3.813   2.795  14.525  0.4444 -0.1479  0.7113
 9839TIP3   OH250931   3.987   3.038   5.985  0.4420  0.3051  0.4162
 9839TIP3    H150932   4.076   3.073   5.983  1.0818 -1.1707  1.5468
 9839TIP3    H250933   3.967   3.029   6.078 -0.3230 -0.7450  0.1620
 9840TIP3   OH250934   3.178   0.339   3.518  0.8881 -0.1165  0.2556
 9840TIP3    H150935   3.193   0.256   3.473  0.4770 -0.2203  0.3121
 9840TIP3    H250936   3.167   0.316   3.610 -1.0105 -0.1958  0.0268
 9841TIP3   OH250937   0.255   5.750   0.359 -0.2824 -0.7617  0.0004
 9841TIP3    H150938   0.232   5.695   0.433  3.1031 -0.0016  1.7551
 9841TIP3    H250939   0.196   5.825   0.365  0.2320 -0.5027  2.2432
 9842TIP3   OH250940   5.255   1.845   3.607 -0.6232  0.5771 -0.6908
 9842TIP3    H150941   5.215   1.783   3.669  0.1633  0.3654 -0.3865
 9842TIP3    H250942   5.207   1.831   3.525  1.5459 -2.7038 -1.5350
 9843TIP3   OH250943   4.066   5.454  12.344 -0.0337 -0.1443  0.0479
 9843TIP3    H150944   4.076   5.483  12.254  1.4097 -0.1556  0.1880
 9843TIP3    H250945   4.155   5.430  12.372  0.0038  2.3312  2.2897
 9844TIP3   OH250946   1.862   6.471  16.282 -0.3129 -0.3211 -0.6260
 9844TIP3    H150947   1.877   6.464  16.377 -1.5984  2.8872 -0.1122
 9844TIP3    H250948   1.787   6.413  16.266 -1.7324  1.0502  0.8280
 9845TIP3   OH250949   0.344   6.390   0.495  0.4729 -0.3625 -0.5316
 9845TIP3    H150950   0.309   6.307   0.525  0.9961 -0.5936 -0.5593
 9845TIP3    H250951   0.359   6.440   0.575 -0.4851 -0.0309 -0.5507
 9846TIP3   OH250952   3.318   0.739   3.017  0.2623 -0.0697 -0.1665
 9846TIP3    H150953   3.299   0.831   3.002  0.1913 -0.1457 -0.5410
 9846TIP3    H250954   3.404   0.738   3.058 -0.9007  0.3479  2.3945
 9847TIP3   OH250955   4.912   6.557   5.231  0.1135  0.4206  0.2229
 9847TIP3    H150956   5.002   6.526   5.227 -0.1808 -0.3479 -0.7418
 9847TIP3    H250957   4.898   6.602   5.148 -0.5437  0.0966  0.1500
 9848TIP3   OH250958   5.064   3.921   0.049 -0.5072 -0.7497 -0.4037
 9848TIP3    H150959   5.012   4.001   0.052  0.1737 -0.3101 -0.3778
 9848TIP3    H250960   5.104   3.915   0.136 -0.3937 -1.0153 -0.4729
 9849TIP3   OH250961   2.271   3.965   4.317  0.6477 -0.0074 -0.3719
 9849TIP3    H150962   2.258   3.888   4.262  0.7717 -0.8204  0.7220
 9849TIP3    H250963   2.364   3.963   4.339  0.8747  1.0334 -1.1660
 9850TIP3   OH250964   0.180   2.000   4.611  0.0903 -0.6226 -0.0608
 9850TIP3    H150965   0.109   1.945   4.642 -0.1582  0.2452  0.9385
 9850TIP3    H250966   0.210   1.958   4.530 -1.9940 -0.6233 -0.8600
 9851TIP3   OH250967   1.251   1.695   5.105  0.3552 -0.2702 -0.2567
 9851TIP3    H150968   1.176   1.741   5.141  2.1587  1.0488  1.9725
 9851TIP3    H250969   1.304   1.763   5.064  1.8140 -0.7006  0.8645
 9852TIP3   OH250970   1.719   0.661  15.466  0.2322  0.5174  0.0894
 9852TIP3    H150971   1.676   0.621  15.390  0.2866  0.8771 -0.1359
 9852TIP3    H250972   1.772   0.732  15.429 -0.3080  1.1627  0.5255
 9853TIP3   OH250973   5.123   5.468   1.685 -0.3905  0.1602  0.1573
 9853TIP3    H150974   5.041   5.493   1.728  0.1275  1.2744  0.5178
 9853TIP3    H250975   5.097   5.448   1.595 -1.1925 -0.3817  0.4966
 9854TIP3   OH250976   4.188   0.116  16.023 -0.3758 -0.4945  0.0047
 9854TIP3    H150977   4.143   0.040  16.060 -1.1833  0.5311  1.1481
 9854TIP3    H250978   4.252   0.141  16.089 -0.8733  0.4975  0.1190
 9855TIP3   OH250979   4.778   4.662   1.147 -0.2658 -0.2892  0.4294
 9855TIP3    H150980   4.736   4.588   1.103 -0.3704  0.3230 -0.5067
 9855TIP3    H250981   4.809   4.625   1.230  1.7329 -1.9728 -1.0129
 9856TIP3   OH250982   0.244   4.766  12.659  0.0638  0.6346  0.0012
 9856TIP3    H150983   0.327   4.782  12.616  1.2452 -0.8144  1.6735
 9856TIP3    H250984   0.185   4.737  12.589  0.9222  1.7541 -1.2024
 9857TIP3   OH250985   3.801   5.138   5.829 -0.1523  0.7493 -0.0616
 9857TIP3    H150986   3.820   5.228   5.803  0.1192  0.3883 -1.1271
 9857TIP3    H250987   3.841   5.130   5.916 -0.5120  1.7653  0.2115
 9858TIP3   OH250988   4.396   2.175   4.600  0.3179  0.7410 -0.2663
 9858TIP3    H150989   4.372   2.128   4.680  3.3667 -1.6629 -0.6889
 9858TIP3    H250990   4.430   2.259   4.631 -1.9229  1.3562  0.6813
 9859TIP3   OH250991   6.089   1.738  12.433  0.0297 -0.1645  0.9810
 9859TIP3    H150992   6.176   1.750  12.394 -0.8551  0.4824 -0.8720
 9859TIP3    H250993   6.060   1.652  12.400 -0.6898  0.3494  0.2353
 9860TIP3   OH250994   3.215   1.745   4.520  0.1205  0.0149 -0.3604
 9860TIP3    H150995   3.308   1.736   4.496  1.1550  1.1820  2.9872
 9860TIP3    H250996   3.197   1.669   4.576 -0.2786  0.9993  0.8698
 9861TIP3   OH250997   1.981   6.368   6.015  0.1307 -0.3563 -0.0682
 9861TIP3    H150998   1.898   6.407   6.042  0.2465 -0.7634  0.8996
 9861TIP3    H250999   1.956   6.290   5.965 -0.0755 -1.6443  1.9736
 9862TIP3   OH251000   5.191   2.259   4.819  0.3473 -0.4619  0.1901
 9862TIP3    H151001   5.129   2.331   4.832 -0.5184 -1.2044  0.2068
 9862TIP3    H251002   5.262   2.276   4.882 -1.2166 -1.1329  2.2014
 9863TIP3   OH251003   6.536   5.929  16.340 -0.1486 -0.1575 -0.3147
 9863TIP3    H151004   6.473   5.868  16.379  0.2101 -0.7169 -0.5895
 9863TIP3    H251005   6.482   5.992  16.292 -0.5812  0.4749  0.9915
 9864TIP3   OH251006   2.696   5.590  11.059 -0.0360  0.0788 -0.1484
 9864TIP3    H151007   2.686   5.546  10.975 -0.0090 -0.8165  0.3089
 9864TIP3    H251008   2.700   5.519  11.123 -1.9629  0.8096  0.8222
 9865TIP3   OH251009   3.032   3.822  13.872 -0.2346  0.0437  0.3071
 9865TIP3    H151010   3.058   3.766  13.799 -1.7782  1.6133 -1.4894
 9865TIP3    H251011   2.940   3.842  13.857 -0.6451  0.2839  2.7896
 9866TIP3   OH251012   5.729   1.093  11.618  0.2754  0.0917 -0.5181
 9866TIP3    H151013   5.642   1.129  11.607 -0.1947 -1.3463 -1.6599
 9866TIP3    H251014   5.789   1.165  11.598 -0.6256  1.3719  1.2666
 9867TIP3   OH251015   4.289   1.911   3.894 -0.0909 -0.6706  0.3572
 9867TIP3    H151016   4.368   1.902   3.947 -0.3392 -1.4739  0.5986
 9867TIP3    H251017   4.308   1.860   3.815 -0.3079 -0.7377  0.3478
 9868TIP3   OH251018   2.838   5.175   2.527  0.5827 -0.1029 -0.8554
 9868TIP3    H151019   2.865   5.191   2.618 -2.4107 -2.6584  0.5600
 9868TIP3    H251020   2.920   5.170   2.478  2.2606  1.1943  1.7068
 9869TIP3   OH251021   1.241   1.449  13.001 -0.0099 -0.4227  0.3804
 9869TIP3    H151022   1.192   1.386  12.949  0.4500 -0.5264  0.0633
 9869TIP3    H251023   1.240   1.529  12.948  0.7392 -0.6237  0.0533
 9870TIP3   OH251024   3.883   1.328   3.032 -0.5136 -0.1227  0.2723
 9870TIP3    H151025   3.842   1.349   2.948  1.1636 -0.8213 -0.7472
 9870TIP3    H251026   3.830   1.256   3.067 -0.4093 -0.7734 -0.8613
 9871TIP3   OH251027   6.749   5.657   1.227  0.0896 -0.0972 -0.3041
 9871TIP3    H151028   6.783   5.583   1.176 -0.8313 -0.3006 -0.6189
 9871TIP3    H251029   6.663   5.628   1.258  0.2128  0.4083  0.5327
 9872TIP3   OH251030   2.263   3.895  16.103  0.0603  0.0139 -0.4568
 9872TIP3    H151031   2.212   3.968  16.066 -2.2891 -0.7093  1.2350
 9872TIP3    H251032   2.217   3.817  16.075  0.9039 -0.7202  0.1696
 9873TIP3   OH251033   0.987   3.526   6.245  0.5977 -0.3098  0.5869
 9873TIP3    H151034   1.063   3.498   6.296  0.9420 -0.3603  0.0440
 9873TIP3    H251035   1.023   3.572   6.169  0.0883 -0.2722  0.3605
 9874TIP3   OH251036   2.915   4.676   2.709 -0.5522 -0.3766 -0.0397
 9874TIP3    H151037   2.939   4.620   2.635  0.4344  0.7997 -0.6325
 9874TIP3    H251038   2.868   4.749   2.669 -0.4663  0.0022  0.5561
 9875TIP3   OH251039   4.315   0.600   1.351 -0.0986 -0.1981 -0.3581
 9875TIP3    H151040   4.308   0.504   1.354 -0.1493 -0.2067 -0.6492
 9875TIP3    H251041   4.225   0.631   1.358 -0.0467 -0.1597  0.1198
 9876TIP3   OH251042   0.524   4.596  12.561 -0.5643 -0.3227 -0.1748
 9876TIP3    H151043   0.614   4.589  12.595 -0.2312 -0.5654 -1.0749
 9876TIP3    H251044   0.512   4.690  12.547 -0.3970 -0.3032 -0.1930
 9877TIP3   OH251045   5.007   3.686  14.841  0.0733 -1.0760  0.2708
 9877TIP3    H151046   4.923   3.725  14.864  0.1630 -1.2431  0.9000
 9877TIP3    H251047   5.072   3.737  14.890  0.2239 -1.7459  0.7749
 9878TIP3   OH251048   1.934   0.025   3.383  0.8390  0.1112 -0.0220
 9878TIP3    H151049   1.947  -0.003   3.293 -0.6120  0.7378 -0.4278
 9878TIP3    H251050   1.902   0.115   3.377  0.5369  0.0966  1.1072
 9879TIP3   OH251051   0.565   5.693  15.903  0.8544 -0.2345 -0.5206
 9879TIP3    H151052   0.504   5.624  15.876  0.1257  0.4933 -0.7542
 9879TIP3    H251053   0.509   5.766  15.927  1.5952 -0.0761  0.7372
 9880TIP3   OH251054   5.670   6.636  12.836 -0.1521  0.1472  0.4075
 9880TIP3    H151055   5.624   6.683  12.906 -1.0413  0.0521 -0.1069
 9880TIP3    H251056   5.627   6.664  12.756  0.6051 -0.0497 -0.0739
 9881TIP3   OH251057   1.177   6.570   4.636  0.5619  0.3372  0.0591
 9881TIP3    H151058   1.119   6.494   4.634  0.2225  0.4858  2.2793
 9881TIP3    H251059   1.224   6.562   4.720  2.8738  0.8765 -1.1319
 9882TIP3   OH251060   0.599   3.477   4.413 -0.1759  0.1527 -0.4739
 9882TIP3    H151061   0.628   3.557   4.457 -1.4940 -0.2325  1.1787
 9882TIP3    H251062   0.506   3.491   4.398 -0.2066 -0.6780 -1.0436
 9883TIP3   OH251063   3.032   2.218   2.851 -0.0513 -0.0113 -0.2085
 9883TIP3    H151064   3.074   2.151   2.904  0.7856  1.6855  1.3381
 9883TIP3    H251065   3.103   2.257   2.799 -0.7015 -0.9951 -1.8793
 9884TIP3   OH251066   2.462   5.281   2.216 -0.1516 -0.3623 -0.5562
 9884TIP3    H151067   2.495   5.191   2.207  0.9432 -0.0262 -0.0109
 9884TIP3    H251068   2.400   5.291   2.144  0.5116 -1.2033 -1.2633
 9885TIP3   OH251069   0.683   6.629   6.419  0.0329 -0.1953 -0.1339
 9885TIP3    H151070   0.661   6.706   6.471  1.5119  0.4006 -0.3606
 9885TIP3    H251071   0.701   6.664   6.331  1.3896 -0.7125 -0.0681
 9886TIP3   OH251072   1.335   1.942  12.340 -0.5636  0.3659  0.0868
 9886TIP3    H151073   1.417   1.893  12.335 -0.9965 -0.6827  2.6097
 9886TIP3    H251074   1.290   1.921  12.258  1.4212  0.4917 -1.0600
 9887TIP3   OH251075   5.686   2.616  14.844  0.4463 -0.0663 -0.0911
 9887TIP3    H151076   5.729   2.583  14.923  0.4953  0.5252  0.1344
 9887TIP3    H251077   5.744   2.686  14.813  0.2858 -0.1102 -0.4939
 9888TIP3   OH251078   6.450   1.051   3.219 -0.7586  0.1593 -0.0877
 9888TIP3    H151079   6.434   1.010   3.304 -0.3556 -1.4357 -0.7745
 9888TIP3    H251080   6.365   1.050   3.175 -0.7742  0.1837 -0.0573
 9889TIP3   OH251081   2.870   1.399   4.201  0.5694 -0.1141  0.4880
 9889TIP3    H151082   2.889   1.491   4.214 -0.3364  0.0276  0.8654
 9889TIP3    H251083   2.785   1.398   4.158  1.6894 -0.7071 -1.7447
 9890TIP3   OH251084   0.898   2.302  12.181  0.3629 -0.3438 -0.9209
 9890TIP3    H151085   0.974   2.251  12.211 -1.2818 -2.5677 -0.4096
 9890TIP3    H251086   0.882   2.365  12.251  0.0719 -1.7135  0.2845
 9891TIP3   OH251087   5.398   5.094   4.884  0.4757 -0.1138 -0.1496
 9891TIP3    H151088   5.458   5.103   4.809 -0.9454  3.0593 -0.9858
 9891TIP3    H251089   5.416   5.171   4.937 -2.9532  0.9978 -0.5026
 9892TIP3   OH251090   0.130   1.482  12.196 -0.5017  0.1560 -0.4911
 9892TIP3    H151091   0.119   1.431  12.115 -2.8345  0.4166 -0.3744
 9892TIP3    H251092   0.040   1.504  12.222  0.2816  0.8649  1.6675
 9893TIP3   OH251093   5.257   1.398  16.371 -0.0011 -0.1218 -0.2947
 9893TIP3    H151094   5.350   1.398  16.391  0.2956  1.0440 -1.5886
 9893TIP3    H251095   5.249   1.453  16.293 -1.7362 -0.4177 -0.3505
 9894TIP3   OH251096   5.641   1.280  15.239  0.3622 -0.2486  0.5645
 9894TIP3    H151097   5.615   1.282  15.146  0.3790 -2.6804  0.4756
 9894TIP3    H251098   5.593   1.353  15.278  1.4051  1.6631 -1.6044
 9895TIP3   OH251099   5.991   3.414  12.997 -0.1811  0.0584  0.0581
 9895TIP3    H151100   6.024   3.486  13.050 -1.0965 -0.5827  1.5356
 9895TIP3    H251101   5.906   3.445  12.964 -0.1727 -0.0114 -0.0291
 9896TIP3   OH251102   3.027   3.560   6.143 -1.1980 -0.5716  0.0082
 9896TIP3    H151103   3.017   3.554   6.048 -1.1504 -0.4982 -0.0014
 9896TIP3    H251104   3.014   3.471   6.174  1.1924 -1.0618 -0.2829
 9897TIP3   OH251105   1.166   2.580   5.610  0.3702 -0.0955  0.7265
 9897TIP3    H151106   1.097   2.516   5.591  0.8525 -0.3580 -0.1476
 9897TIP3    H251107   1.122   2.665   5.605  0.3386 -0.1967 -0.9093
 9898TIP3   OH251108   1.628   0.061  12.079 -0.4828 -0.4617 -0.1337
 9898TIP3    H151109   1.574   0.064  12.000 -0.8987 -0.3854  0.1489
 9898TIP3    H251110   1.624   0.149  12.114  0.7294 -0.1787 -0.7025
 9899TIP3   OH251111   5.319   3.286  15.408  0.0306  0.3883  0.0551
 9899TIP3    H151112   5.307   3.251  15.496  0.4183  1.7383  0.6587
 9899TIP3    H251113   5.384   3.356  15.418  0.5834  0.1136 -1.4129
 9900TIP3   OH251114   1.927   1.019  14.279 -0.0629 -0.8673 -0.2458
 9900TIP3    H151115   1.841   1.047  14.309 -1.0385 -2.9757 -0.9408
 9900TIP3    H251116   1.945   1.073  14.203 -0.6264 -0.2009  0.0896
 9901TIP3   OH251117   4.930   3.342   5.421  0.4806 -0.6843  0.0509
 9901TIP3    H151118   4.908   3.372   5.333  1.9454 -0.0461 -0.0984
 9901TIP3    H251119   4.980   3.261   5.407  1.0684 -0.3638  0.2804
 9902TIP3   OH251120   2.488   2.059  14.231  0.0898  0.1160  0.4464
 9902TIP3    H151121   2.554   2.043  14.299  1.5313  2.5690 -0.3127
 9902TIP3    H251122   2.488   2.154  14.220 -2.1519 -0.0282 -1.0155
 9903TIP3   OH251123   5.883   2.616   4.477  0.4062 -0.5901 -0.4801
 9903TIP3    H151124   5.904   2.708   4.496 -1.4191 -0.0745 -0.8907
 9903TIP3    H251125   5.896   2.571   4.561 -0.5957  0.3946  0.2188
 9904TIP3   OH251126   0.380   3.990  15.536  0.1237 -0.4529 -0.4760
 9904TIP3    H151127   0.330   3.994  15.455 -0.1589  2.2117 -0.1905
 9904TIP3    H251128   0.324   4.030  15.602  1.2395 -0.5811  0.5758
 9905TIP3   OH251129   1.168   1.263  16.631 -0.1748  0.1225  0.4893
 9905TIP3    H151130   1.086   1.309  16.611 -0.4422 -1.0948 -1.3266
 9905TIP3    H251131   1.140   1.184  16.677 -0.0863 -0.6394 -0.7489
 9906TIP3   OH251132   5.441   1.404  16.043 -0.0821  0.1208 -0.1709
 9906TIP3    H151133   5.345   1.403  16.049 -0.0944  1.3650  0.0596
 9906TIP3    H251134   5.464   1.316  16.015 -1.5078  0.6172 -3.1533
 9907TIP3   OH251135   5.459   3.509  12.793 -0.3990 -0.1972  0.2736
 9907TIP3    H151136   5.381   3.506  12.849  0.6476  0.4594  1.7998
 9907TIP3    H251137   5.484   3.601  12.791  1.9358 -0.7307  2.1028
 9908TIP3   OH251138   2.708   6.470   5.585 -0.0512  0.2699  0.8251
 9908TIP3    H151139   2.615   6.462   5.604  0.2309 -2.5186  1.2824
 9908TIP3    H251140   2.743   6.523   5.656 -1.2749  1.2629  0.6925
 9909TIP3   OH251141   4.339   1.191  14.087 -0.6047 -0.3056  0.0273
 9909TIP3    H151142   4.246   1.169  14.086 -1.1207  1.7637  0.5957
 9909TIP3    H251143   4.348   1.253  14.159  0.7907  1.2337 -1.4265
 9910TIP3   OH251144   6.761   4.217   1.766 -0.0305  0.0490  0.2846
 9910TIP3    H151145   6.725   4.247   1.850 -1.7545  3.0742 -1.4612
 9910TIP3    H251146   6.825   4.283   1.742  1.3970 -1.4742 -0.2072
 9911TIP3   OH251147   2.915   5.664  12.603  0.4379 -0.6571 -0.3074
 9911TIP3    H151148   2.952   5.728  12.663  0.1728  0.3287 -1.1752
 9911TIP3    H251149   2.825   5.694  12.588 -0.6131 -2.7852  1.4425
 9912TIP3   OH251150   5.244   2.931  15.819  0.1477  0.1799 -0.0607
 9912TIP3    H151151   5.303   2.861  15.846 -1.1686 -0.5900  0.8574
 9912TIP3    H251152   5.218   2.908  15.730 -0.1722 -0.4270  0.1885
 9913TIP3   OH251153   0.162   5.552  14.236  0.5665  0.2813 -0.6034
 9913TIP3    H151154   0.132   5.462  14.225 -0.9930  0.7913 -0.7623
 9913TIP3    H251155   0.229   5.548  14.303 -0.9207 -0.7358  0.8517
 9914TIP3   OH251156   3.208   4.336  12.510  0.0191  0.0366 -0.0277
 9914TIP3    H151157   3.129   4.333  12.457  0.1165 -2.1818 -0.0794
 9914TIP3    H251158   3.279   4.352  12.448  0.0448 -1.8223 -0.5125
 9915TIP3   OH251159   2.747   6.078  14.348 -0.6674  0.1625 -0.5818
 9915TIP3    H151160   2.728   6.170  14.363  0.5314  0.3236  0.0299
 9915TIP3    H251161   2.718   6.062  14.258 -0.3832  1.2761 -0.8818
 9916TIP3   OH251162   3.745   5.079  16.402  0.5433  0.7384  0.2053
 9916TIP3    H151163   3.730   5.171  16.378  0.0066  0.6274  0.0968
 9916TIP3    H251164   3.658   5.045  16.423  1.0965  1.0662  3.2162
 9917TIP3   OH251165   3.463   1.713  14.712 -0.1750 -0.6785  0.1321
 9917TIP3    H151166   3.480   1.697  14.805 -1.9581 -0.2891  0.5416
 9917TIP3    H251167   3.467   1.626  14.672 -0.0312 -0.9284  0.6896
 9918TIP3   OH251168   4.206   4.936   3.717 -0.6588  0.0253 -0.0811
 9918TIP3    H151169   4.176   4.848   3.693 -0.8217 -0.0277  0.3039
 9918TIP3    H251170   4.176   4.947   3.807 -0.4870  0.4096 -0.0706
 9919TIP3   OH251171   1.782   1.249   5.275 -0.0173 -0.1749  0.8420
 9919TIP3    H151172   1.806   1.243   5.182 -1.9360  0.2770  0.2936
 9919TIP3    H251173   1.726   1.173   5.290 -2.4629  1.5682  0.7468
 9920TIP3   OH251174   1.773   0.416   5.590 -0.2004  0.0557 -0.6538
 9920TIP3    H151175   1.771   0.506   5.622 -0.4286 -0.1721 -0.0168
 9920TIP3    H251176   1.687   0.401   5.552 -0.5657 -0.2563  0.2725
 9921TIP3   OH251177   6.300   2.807  11.858  0.2407 -0.2314  1.3233
 9921TIP3    H151178   6.223   2.838  11.906  1.0961  0.8108  2.0535
 9921TIP3    H251179   6.364   2.878  11.867  1.6942 -1.5539  1.7261
 9922TIP3   OH251180   2.691   4.235  12.723 -0.0999 -0.4991  0.3616
 9922TIP3    H151181   2.726   4.274  12.643  2.9106 -0.9732  1.3996
 9922TIP3    H251182   2.600   4.266  12.726  0.7593  2.4354 -1.3865
 9923TIP3   OH251183   2.392   5.131   4.144  0.1500  0.5290  0.5162
 9923TIP3    H151184   2.438   5.096   4.068 -0.7804  2.1750 -0.8493
 9923TIP3    H251185   2.325   5.066   4.165 -0.2097  0.5048 -0.6888
 9924TIP3   OH251186   4.604   3.686   2.603 -0.9709  0.1453 -0.1388
 9924TIP3    H151187   4.536   3.681   2.536  0.6138  0.2385 -1.7967
 9924TIP3    H251188   4.646   3.600   2.601 -0.2467  0.4916 -0.0006
 9925TIP3   OH251189   6.036   3.500  16.937  0.3010  0.1620  0.3009
 9925TIP3    H151190   6.097   3.509  16.863 -1.0068  1.9071 -0.5990
 9925TIP3    H251191   6.020   3.590  16.966 -2.0557 -0.2396  0.3409
 9926TIP3   OH251192   1.984   6.659  13.112  0.3977 -0.3604 -0.2805
 9926TIP3    H151193   1.986   6.596  13.040 -2.5799 -0.4444 -0.3642
 9926TIP3    H251194   1.965   6.743  13.070  0.9204 -0.0117  0.1797
 9927TIP3   OH251195   5.195   5.438  11.406 -0.7647  0.3646 -0.0418
 9927TIP3    H151196   5.278   5.435  11.454  0.1273  0.9180 -1.5185
 9927TIP3    H251197   5.130   5.404  11.468  0.3054  1.3574  1.6601
 9928TIP3   OH251198   1.317   5.486   2.345 -0.5418 -0.3316  0.1454
 9928TIP3    H151199   1.373   5.453   2.275 -1.3480 -0.2770 -0.5288
 9928TIP3    H251200   1.246   5.422   2.352 -1.1556  0.3240  0.0382
 9929TIP3   OH251201   2.282   1.392  13.540 -0.7103 -0.6912  0.4170
 9929TIP3    H151202   2.240   1.387  13.454  0.5125 -1.6217 -0.1332
 9929TIP3    H251203   2.368   1.351  13.527 -0.3953 -0.5433  2.0030
 9930TIP3   OH251204   0.711   6.065  13.049  0.4532 -0.4512 -0.1836
 9930TIP3    H151205   0.695   6.108  13.133  1.1023  0.0912 -0.3322
 9930TIP3    H251206   0.731   6.137  12.989  1.0817 -0.9238 -0.5489
 9931TIP3   OH251207   4.059   4.916  16.973 -0.6073 -0.3266  0.1588
 9931TIP3    H151208   4.081   4.953  16.888  0.0294  1.7655  1.2146
 9931TIP3    H251209   4.074   4.987  17.036 -1.2457 -1.7648  2.0044
 9932TIP3   OH251210   4.154   2.129   2.485  0.6088  0.3864 -0.4736
 9932TIP3    H151211   4.126   2.135   2.393 -1.8736  0.9157  0.2985
 9932TIP3    H251212   4.175   2.037   2.498  1.2250  0.3476 -1.6292
 9933TIP3   OH251213   6.054   0.158   4.593 -0.0044  0.0336  0.4498
 9933TIP3    H151214   6.134   0.133   4.548  0.9201  1.5776  1.2163
 9933TIP3    H251215   5.984   0.136   4.532  0.9977 -1.1299 -0.3044
 9934TIP3   OH251216   4.064   4.930  12.685  0.4557  0.0869 -0.5577
 9934TIP3    H151217   4.098   4.841  12.695  0.0391 -0.0231 -0.1358
 9934TIP3    H251218   4.036   4.955  12.773  0.2294  0.4986 -0.7458
 9935TIP3   OH251219   6.477   1.404  14.392 -0.5541 -0.0420 -0.1526
 9935TIP3    H151220   6.388   1.414  14.359 -0.7830  2.0955  1.0709
 9935TIP3    H251221   6.520   1.488  14.374  0.5639 -0.3020  1.1669
 9936TIP3   OH251222   4.179   5.805   3.588  0.2024 -0.2305 -0.0297
 9936TIP3    H151223   4.203   5.888   3.627  1.2699  0.1455 -1.4462
 9936TIP3    H251224   4.160   5.748   3.662  1.1744  0.7575  0.9919
 9937TIP3   OH251225   6.356   5.357  16.527 -0.2335 -0.2809  0.3386
 9937TIP3    H151226   6.387   5.282  16.577  1.8769 -1.5213 -2.6554
 9937TIP3    H251227   6.282   5.323  16.477 -0.5746  0.1965  0.5185
 9938TIP3   OH251228   4.692   4.916   6.764  0.1098 -0.1044  0.1609
 9938TIP3    H151229   4.704   4.855   6.691 -1.3094  1.6756 -1.6081
 9938TIP3    H251230   4.658   4.996   6.724 -0.1255  1.1338  2.7051
 9939TIP3   OH251231   2.482   2.327  15.247  0.2266 -0.0470 -0.0405
 9939TIP3    H151232   2.460   2.278  15.326  0.5652 -0.6074 -0.2878
 9939TIP3    H251233   2.548   2.390  15.276 -0.3861  0.4275  0.3300
 9940TIP3   OH251234   0.468   1.887  17.218 -0.0234  0.1494 -0.0620
 9940TIP3    H151235   0.515   1.931  17.147 -0.7364 -0.5804 -1.0126
 9940TIP3    H251236   0.377   1.881  17.186 -0.3866 -0.0308  0.9859
 9941TIP3   OH251237   1.777   5.464   1.907  0.4434  0.3016  0.5154
 9941TIP3    H151238   1.839   5.520   1.953  0.4881 -0.0862  0.9245
 9941TIP3    H251239   1.832   5.409   1.851  0.3510  1.1775 -0.4444
 9942TIP3   OH251240   0.336   6.427  14.358 -0.1118  0.2873 -0.3740
 9942TIP3    H151241   0.380   6.420  14.443 -0.0107 -1.8597 -0.5813
 9942TIP3    H251242   0.319   6.521  14.347  2.8002  0.9561  0.5316
 9943TIP3   OH251243   3.948   5.677   2.165  0.0082  0.5073 -0.1242
 9943TIP3    H151244   3.981   5.609   2.107  3.1866 -0.5182  2.7031
 9943TIP3    H251245   3.929   5.751   2.108  1.0445 -1.1386 -2.6850
 9944TIP3   OH251246   4.112   6.008   0.356 -0.2815  0.2591  0.1800
 9944TIP3    H151247   4.064   5.929   0.381 -0.6036  0.5979  0.6527
 9944TIP3    H251248   4.054   6.080   0.383 -0.8946  0.6291 -2.0547
 9945TIP3   OH251249   5.925   5.330   4.256  0.1698 -0.6157 -0.5828
 9945TIP3    H151250   5.938   5.245   4.215 -0.9885 -1.1178  0.0743
 9945TIP3    H251251   5.989   5.387   4.213 -0.3266 -1.3560 -2.3738
 9946TIP3   OH251252   5.584   3.039   1.001 -0.5589 -0.0592  0.2758
 9946TIP3    H151253   5.517   3.096   0.964  0.1702  1.4864  1.2573
 9946TIP3    H251254   5.664   3.091   0.997  0.4175 -1.5720 -0.1304
 9947TIP3   OH251255   6.178   2.955  12.828  0.0522  0.4802  1.0736
 9947TIP3    H151256   6.202   3.022  12.893  1.6486 -1.9437  3.0963
 9947TIP3    H251257   6.146   2.882  12.880  0.9496 -1.3715 -0.8851
 9948TIP3   OH251258   6.403   0.128  12.217 -0.4608  0.4741 -0.6242
 9948TIP3    H151259   6.324   0.175  12.244 -0.9901 -0.7317 -0.0230
 9948TIP3    H251260   6.474   0.172  12.264 -1.0968 -0.1012  0.9139
 9949TIP3   OH251261   1.624   5.099  13.969  0.2849 -0.2799 -0.7148
 9949TIP3    H151262   1.529   5.095  13.981  0.4335 -0.5889  0.4625
 9949TIP3    H251263   1.636   5.111  13.875 -1.0376  3.7087 -0.4519
 9950TIP3   OH251264   5.751   6.534   5.200  0.0271  0.1603 -0.4018
 9950TIP3    H151265   5.804   6.601   5.242  0.6723 -0.2576 -0.5555
 9950TIP3    H251266   5.794   6.517   5.116  0.2112 -0.8833 -0.1029
 9951TIP3   OH251267   5.521   2.986   4.271 -0.3962  0.1248 -0.0978
 9951TIP3    H151268   5.543   2.992   4.179 -0.7336 -0.6294 -0.2315
 9951TIP3    H251269   5.604   2.972   4.315 -0.4304 -1.3315 -0.4669
 9952TIP3   OH251270   4.645   4.232   4.082  0.3841 -0.0521 -0.2140
 9952TIP3    H151271   4.700   4.162   4.046  3.0859  1.3877  0.8957
 9952TIP3    H251272   4.690   4.313   4.056 -0.2259  1.1293  2.2203
 9953TIP3   OH251273   1.466   0.515  15.004  0.1609  0.2722 -0.0569
 9953TIP3    H151274   1.488   0.423  15.021 -0.1279  0.7016  3.0439
 9953TIP3    H251275   1.545   0.563  15.029 -0.5280  1.0199  0.6993
 9954TIP3   OH251276   0.808   4.292  13.647  0.0870  0.8173  0.8950
 9954TIP3    H151277   0.893   4.281  13.688 -0.2225  0.3372  1.4062
 9954TIP3    H251278   0.760   4.212  13.668  0.8561 -0.6666 -2.6589
 9955TIP3   OH251279   3.392   0.718   7.057  0.0536  0.4225 -0.1360
 9955TIP3    H151280   3.342   0.673   7.125  0.5944  1.6555  1.1282
 9955TIP3    H251281   3.444   0.650   7.016  1.3764 -0.0424  2.1938
 9956TIP3   OH251282   6.718   4.260   5.032 -0.0831  0.1999 -1.2542
 9956TIP3    H151283   6.653   4.207   4.986 -1.2855  1.4683 -1.0253
 9956TIP3    H251284   6.724   4.222   5.119  0.4835 -0.7539 -1.7017
 9957TIP3   OH251285   5.719   5.299  13.525  0.2467 -0.2357 -0.0442
 9957TIP3    H151286   5.681   5.344  13.449 -1.0040 -0.7192  0.2713
 9957TIP3    H251287   5.806   5.271  13.495  0.7621  1.7606 -0.4636
 9958TIP3   OH251288   2.717   4.144  14.685  0.2622 -0.3876 -0.0016
 9958TIP3    H151289   2.803   4.178  14.657 -0.1409  0.3784 -0.3374
 9958TIP3    H251290   2.725   4.049  14.677  1.0839 -0.3245 -0.0206
 9959TIP3   OH251291   2.205   4.298   2.379 -0.1482  0.3068  0.1676
 9959TIP3    H151292   2.189   4.357   2.306  0.6082  0.5905  0.2347
 9959TIP3    H251293   2.300   4.290   2.384 -0.1956  0.2921  1.1196
 9960TIP3   OH251294   4.995   3.579  16.243 -0.4075  0.4428  0.3225
 9960TIP3    H151295   4.965   3.489  16.250  0.1465  0.1256 -1.1795
 9960TIP3    H251296   5.014   3.606  16.333 -0.0663 -1.0988  0.7089
 9961TIP3   OH251297   3.296   3.799  10.436 -0.5906  0.0698  0.0279
 9961TIP3    H151298   3.246   3.821  10.515 -0.4292  3.2728 -0.6665
 9961TIP3    H251299   3.229   3.774  10.372 -0.9371 -0.0965  0.4528
 9962TIP3   OH251300   0.402   3.721  12.496  0.0264 -0.3426 -0.5152
 9962TIP3    H151301   0.316   3.702  12.533 -0.3792  0.7270 -0.8973
 9962TIP3    H251302   0.462   3.713  12.570 -0.4887 -0.4172 -0.1030
 9963TIP3   OH251303   3.443   2.476  14.634 -0.1127  0.0606 -0.0221
 9963TIP3    H151304   3.386   2.400  14.629 -0.1132  0.0487  0.1570
 9963TIP3    H251305   3.527   2.441  14.664  0.2749 -0.0716 -1.2417
 9964TIP3   OH251306   6.548   4.854   3.651 -0.2475  0.4119 -0.5250
 9964TIP3    H151307   6.495   4.923   3.691  0.8960  1.8613 -1.4319
 9964TIP3    H251308   6.526   4.775   3.700 -1.3905  1.4735  0.7190
 9965TIP3   OH251309   6.749   0.226  11.932 -0.1356  0.1530 -0.8829
 9965TIP3    H151310   6.843   0.212  11.920 -0.2578 -1.4386 -0.1677
 9965TIP3    H251311   6.723   0.278  11.856  1.0681 -0.5943 -1.8350
 9966TIP3   OH251312   6.337   5.044   5.607  0.5103 -0.3797  0.1628
 9966TIP3    H151313   6.288   4.998   5.675 -2.2523  3.3672  0.8822
 9966TIP3    H251314   6.277   5.050   5.533  1.0787  1.3337 -0.1931
 9967TIP3   OH251315   2.980   0.626   1.472  0.1425  0.1599 -0.1031
 9967TIP3    H151316   3.026   0.669   1.545  1.5841 -1.2434 -0.1527
 9967TIP3    H251317   2.935   0.551   1.513 -0.5375  0.4172 -0.3692
 9968TIP3   OH251318   0.457   6.322   1.805  0.5386  0.4271  0.0333
 9968TIP3    H151319   0.539   6.348   1.763 -0.6018 -0.0109 -2.5575
 9968TIP3    H251320   0.474   6.233   1.837  0.8094  0.0023 -1.2702
 9969TIP3   OH251321   3.674   6.159  17.052  0.5189  0.1279 -0.0534
 9969TIP3    H151322   3.674   6.089  16.987  0.2953  0.7073 -0.6844
 9969TIP3    H251323   3.581   6.175  17.070  0.5455  0.9418 -0.6489
 9970TIP3   OH251324   5.789   6.748   1.108  0.7072  0.1710 -0.2848
 9970TIP3    H151325   5.805   6.730   1.016 -0.2629 -1.4896 -0.1600
 9970TIP3    H251326   5.710   6.698   1.129  0.8990  0.5409  1.4310
 9971TIP3   OH251327   2.949   2.633  13.132  0.1388  0.1497  0.3192
 9971TIP3    H151328   2.963   2.668  13.043  1.0690  1.9972  1.1586
 9971TIP3    H251329   2.860   2.599  13.130  0.5872 -1.0208 -1.7096
 9972TIP3   OH251330   2.965   0.706  13.794  0.0806  0.1744 -0.3642
 9972TIP3    H151331   2.872   0.707  13.819  0.1359  0.1470 -0.1503
 9972TIP3    H251332   3.009   0.672  13.872  0.2658  0.1500 -0.4812
 9973TIP3   OH251333   3.386   2.843  14.307  0.1514 -0.8682  0.2565
 9973TIP3    H151334   3.422   2.923  14.346  1.4822 -1.4064  0.1784
 9973TIP3    H251335   3.452   2.776  14.325 -0.7428 -1.8488 -0.0722
 9974TIP3   OH251336   2.757   5.262   0.573  0.3478  0.3229 -0.2666
 9974TIP3    H151337   2.703   5.340   0.580  1.8337  1.2830  0.6590
 9974TIP3    H251338   2.772   5.235   0.664  1.1343 -0.1353 -0.5298
 9975TIP3   OH251339   6.540   1.443  16.578  0.5547 -0.2634 -0.5622
 9975TIP3    H151340   6.563   1.380  16.646 -0.4640 -0.1812 -0.1228
 9975TIP3    H251341   6.503   1.389  16.508  3.0097 -0.5052 -1.7140
 9976TIP3   OH251342   3.496   4.953  13.468  0.1668 -0.5586 -0.6344
 9976TIP3    H151343   3.577   4.978  13.512  0.2774  0.0912 -1.2043
 9976TIP3    H251344   3.442   4.913  13.537  0.2196  0.7179  0.1577
 9977TIP3   OH251345   5.542   3.479   5.835 -0.4173 -0.1215  0.0804
 9977TIP3    H151346   5.464   3.535   5.842  0.4442  1.0684  0.3491
 9977TIP3    H251347   5.525   3.407   5.895 -0.7884  0.7705  1.0669
 9978TIP3   OH251348   2.025   0.489  14.290 -0.3527  0.2303  0.1830
 9978TIP3    H151349   2.060   0.415  14.340  1.4122  0.7451 -0.2458
 9978TIP3    H251350   2.032   0.564  14.349  1.4749  0.7858 -0.7045
 9979TIP3   OH251351   5.216   0.875  12.920  0.1173  0.1461  0.4663
 9979TIP3    H151352   5.230   0.970  12.929  1.0042  0.2224 -1.3896
 9979TIP3    H251353   5.305   0.838  12.920 -0.2673 -0.8952  2.9123
 9980TIP3   OH251354   0.301   1.079   2.153  0.5968  0.4973  0.1749
 9980TIP3    H151355   0.284   1.030   2.073  0.8646  1.1614 -0.3007
 9980TIP3    H251356   0.397   1.077   2.162  0.6704  1.4972 -0.2308
 9981TIP3   OH251357   1.116   0.744  16.889  0.2522  0.4119 -0.4049
 9981TIP3    H151358   1.120   0.722  16.796  0.9505 -0.7363 -0.1042
 9981TIP3    H251359   1.025   0.771  16.903 -0.4740 -1.6938 -0.9095
 9982TIP3   OH251360   6.759   2.940  13.642 -0.3011 -0.2129  0.4505
 9982TIP3    H151361   6.667   2.944  13.668 -0.0893 -0.4886  1.2870
 9982TIP3    H251362   6.757   2.921  13.549 -1.0897 -1.0227  0.6190
 9983TIP3   OH251363   2.374   0.364  11.905  0.0336  0.5978  0.5040
 9983TIP3    H151364   2.411   0.362  11.817  0.1413  1.5908  0.5264
 9983TIP3    H251365   2.426   0.300  11.954 -1.5532 -1.7473 -0.7325
 9984TIP3   OH251366   1.045   6.320  13.547 -0.0553  0.1114  0.1171
 9984TIP3    H151367   0.996   6.380  13.492  1.6663  0.5223 -1.0106
 9984TIP3    H251368   1.061   6.244  13.491  1.0919  0.2331  0.2720
 9985TIP3   OH251369   6.696   3.502  11.060  0.0356  0.2002 -0.1095
 9985TIP3    H151370   6.655   3.587  11.078 -0.7105  0.2651 -1.9848
 9985TIP3    H251371   6.723   3.508  10.968  1.7768 -0.8732  0.3137
 9986TIP3   OH251372   2.085   3.925  11.215 -0.1353  0.2842 -0.1849
 9986TIP3    H151373   2.112   4.001  11.164 -1.5082  1.2214  0.4513
 9986TIP3    H251374   1.992   3.915  11.195 -0.3023 -0.3359  0.8712
 9987TIP3   OH251375   2.793   3.171   2.301  0.5490  0.2440  0.1213
 9987TIP3    H151376   2.741   3.159   2.222  1.4616  0.8878 -0.5950
 9987TIP3    H251377   2.840   3.253   2.286  1.3496 -0.0518  0.9851
 9988TIP3   OH251378   4.367   6.193  13.750  0.2199  0.1430  0.3883
 9988TIP3    H151379   4.351   6.231  13.664  0.1272 -1.3845 -0.2855
 9988TIP3    H251380   4.460   6.208  13.766 -0.0352  1.5565  0.5943
 9989TIP3   OH251381   4.336   6.243   2.591  0.5374 -0.2916  0.0060
 9989TIP3    H151382   4.417   6.196   2.610 -1.0086 -1.8706  2.9466
 9989TIP3    H251383   4.280   6.178   2.548  0.2118  0.3397 -0.5374
 9990TIP3   OH251384   5.332   6.302   2.076  0.3565  0.2309 -0.1788
 9990TIP3    H151385   5.240   6.302   2.102  0.3269 -1.1170 -0.2595
 9990TIP3    H251386   5.366   6.386   2.109 -0.3955 -0.1492  1.6299
 9991TIP3   OH251387   5.884   2.928  13.611  0.1280  0.0102  0.4438
 9991TIP3    H151388   5.850   2.841  13.631  0.7177 -0.3395 -0.0584
 9991TIP3    H251389   5.822   2.988  13.653 -0.9577 -0.6212 -0.2189
 9992TIP3   OH251390   2.388   6.308   5.026 -0.4636 -0.3129 -0.0387
 9992TIP3    H151391   2.360   6.216   5.020 -0.6212 -0.3850  1.5012
 9992TIP3    H251392   2.417   6.318   5.117  3.0926  0.1731 -1.1447
 9993TIP3   OH251393   6.609   4.989  11.916 -0.0289 -0.5094 -0.3790
 9993TIP3    H151394   6.625   4.903  11.877  0.5527 -0.8204  0.5264
 9993TIP3    H251395   6.524   4.980  11.959 -0.2629 -0.4318 -0.8164
 9994TIP3   OH251396   3.023   4.942   3.105 -0.0300 -0.2970  0.1032
 9994TIP3    H151397   3.092   4.927   3.040  1.1616  0.3904  1.1936
 9994TIP3    H251398   3.003   4.854   3.139 -0.0123 -0.5532 -0.5368
 9995TIP3   OH251399   6.602   5.196  16.619 -0.1259  0.2615 -0.5162
 9995TIP3    H151400   6.605   5.106  16.588 -0.7986 -0.3393  1.1287
 9995TIP3    H251401   6.612   5.190  16.714  1.6615  2.0585 -0.5402
 9996TIP3   OH251402   5.405   1.582   0.812  0.0626 -0.0311  0.4863
 9996TIP3    H151403   5.352   1.539   0.745 -0.1355  1.0516 -0.0775
 9996TIP3    H251404   5.494   1.548   0.797  0.0456  0.2984 -0.4288
 9997TIP3   OH251405   6.392   1.504   5.475 -0.5992 -0.2162 -0.1894
 9997TIP3    H151406   6.457   1.551   5.527 -0.9397  0.3538 -0.2694
 9997TIP3    H251407   6.444   1.458   5.409 -0.4328  2.6088 -2.1375
 9998TIP3   OH251408   3.797   2.625   1.123  0.1141  0.1990  0.2727
 9998TIP3    H151409   3.774   2.697   1.064 -0.7259  0.2920  0.7119
 9998TIP3    H251410   3.713   2.590   1.153  0.5077  0.8545  2.2630
 9999TIP3   OH251411   4.719   3.454   4.656  0.1229  0.3404 -0.1886
 9999TIP3    H151412   4.686   3.369   4.625  0.2328  0.0153  0.5614
 9999TIP3    H251413   4.705   3.513   4.582 -1.0000 -0.0722 -0.3265
10000TIP3   OH251414   0.544   5.136   3.539 -0.4417 -0.3194  0.0096
10000TIP3    H151415   0.561   5.048   3.507 -1.5230 -0.4829 -0.1404
10000TIP3    H251416   0.482   5.123   3.612 -0.0376  0.2498  0.4569
10001TIP3   OH251417   0.372   3.243  12.997 -0.3053  0.0839 -0.7083
10001TIP3    H151418   0.411   3.174  13.050 -0.4300 -0.3603 -1.1986
10001TIP3    H251419   0.318   3.293  13.058  0.0809 -0.0209 -0.2768
10002TIP3   OH251420   4.935   0.506   1.034  0.1506  0.2123  0.2661
10002TIP3    H151421   4.880   0.429   1.018 -0.0858 -0.2373  3.0264
10002TIP3    H251422   5.023   0.478   1.010  0.0167 -0.8139  0.9576
10003TIP3   OH251423   0.302   3.332   3.151  0.2429  0.5209 -0.0240
10003TIP3    H151424   0.323   3.256   3.204  0.3121  1.4377  1.2992
10003TIP3    H251425   0.386   3.359   3.113  0.5195  0.9655  0.9028
10004TIP3   OH251426   1.726   0.186   6.597 -0.1245 -0.1563 -0.2788
10004TIP3    H151427   1.781   0.147   6.529 -0.2641  0.5757 -0.8130
10004TIP3    H251428   1.769   0.161   6.679  1.9040  1.6986 -0.7334
10005TIP3   OH251429   3.070   5.914   1.814 -0.2816 -0.0864 -0.0352
10005TIP3    H151430   3.121   5.905   1.894 -0.4448 -1.2959 -0.0699
10005TIP3    H251431   3.113   5.857   1.750  1.0955  2.4072 -1.4613
10006TIP3   OH251432   5.833   0.358   6.060  0.2083 -0.4892 -0.0892
10006TIP3    H151433   5.897   0.396   6.121  0.4991 -1.8861  0.4849
10006TIP3    H251434   5.885   0.323   5.988  0.0338 -0.9790  0.0226
10007TIP3   OH251435   6.125   4.355  15.564  0.5027  1.1052 -0.0041
10007TIP3    H151436   6.198   4.410  15.536 -1.3897  3.7829  0.1495
10007TIP3    H251437   6.129   4.356  15.659 -0.3140  2.0801  0.0245
10008TIP3   OH251438   0.963   1.646  15.845 -0.5777  0.3936  0.2898
10008TIP3    H151439   0.952   1.693  15.928 -0.7393  0.6900  0.1032
10008TIP3    H251440   0.951   1.714  15.778  2.0120  0.6657  0.0513
10009TIP3   OH251441   0.800   6.167   1.781 -0.2954  0.1957 -0.1011
10009TIP3    H151442   0.833   6.246   1.740 -1.7934  2.0835  2.1973
10009TIP3    H251443   0.742   6.127   1.716  0.4776  0.9679 -1.2640
10010TIP3   OH251444   4.477   2.564  12.551 -0.7677  0.1712  0.5465
10010TIP3    H151445   4.539   2.595  12.484 -0.8354  0.6817  0.7156
10010TIP3    H251446   4.438   2.485  12.513  0.3113 -0.4114  0.6173
10011TIP3   OH251447   2.533   5.621   4.837  0.5021  0.0630  0.2136
10011TIP3    H151448   2.626   5.614   4.857  0.2626 -1.2477  0.9745
10011TIP3    H251449   2.494   5.655   4.917  0.1074 -1.0086  0.4795
10012TIP3   OH251450   3.241   2.759   3.945  0.2279  0.5197 -0.3115
10012TIP3    H151451   3.318   2.702   3.951  0.6215  0.4785 -4.2613
10012TIP3    H251452   3.167   2.702   3.967  0.9785 -0.5088 -0.4301
10013TIP3   OH251453   2.185   3.184   4.177  0.1789 -0.2201 -0.2329
10013TIP3    H151454   2.144   3.098   4.188 -0.6581  0.2043  0.0664
10013TIP3    H251455   2.113   3.246   4.191  1.2239  0.5971  1.7646
10014TIP3   OH251456   1.248   4.715   5.307  0.1229  0.2203 -0.0737
10014TIP3    H151457   1.274   4.756   5.225  0.4722  0.8674  0.3562
10014TIP3    H251458   1.153   4.726   5.310 -0.0402 -0.9648 -1.0102
10015TIP3   OH251459   2.199   6.036  16.278 -0.4992 -0.1376  0.3260
10015TIP3    H151460   2.270   5.978  16.308 -0.5021  0.9876  2.6802
10015TIP3    H251461   2.207   6.114  16.334  0.1739  2.6551 -3.4436
10016TIP3   OH251462   2.732   5.986  16.049 -0.0748 -0.0830 -0.5182
10016TIP3    H151463   2.663   5.996  15.983 -0.0736  0.1403 -0.4872
10016TIP3    H251464   2.813   6.003  16.002  0.0238 -1.1355 -0.7428
10017TIP3   OH251465   5.207   3.196  14.628  0.5972  0.2301 -0.3227
10017TIP3    H151466   5.155   3.272  14.653 -2.9635 -2.4786  0.8304
10017TIP3    H251467   5.280   3.195  14.691 -1.5133  0.4636  2.2197
10018TIP3   OH251468   4.648   2.556   0.923 -0.5949 -0.0728  0.0643
10018TIP3    H151469   4.620   2.499   0.852  0.2958 -0.2757 -0.1317
10018TIP3    H251470   4.633   2.645   0.890 -1.3090 -0.1855  0.0910
10019TIP3   OH251471   5.253   3.886   2.908 -0.4386  0.0669 -0.1312
10019TIP3    H151472   5.326   3.945   2.930 -1.5450  1.1430  0.6917
10019TIP3    H251473   5.214   3.864   2.992  0.5735 -2.6925 -0.3271
10020TIP3   OH251474   3.638   4.439  10.646  0.1037 -0.2650 -0.3255
10020TIP3    H151475   3.649   4.416  10.738 -1.2667  0.7761  0.1101
10020TIP3    H251476   3.677   4.526  10.637 -0.0892 -0.2103 -0.6469
10021TIP3   OH251477   1.030   2.322  12.740 -0.4881 -0.3354  0.1603
10021TIP3    H151478   1.116   2.347  12.706 -0.4785  0.4742  0.7746
10021TIP3    H251479   0.969   2.384  12.698 -0.4007  1.0866  2.1010
10022TIP3   OH251480   5.869   2.085   0.382  0.1445  0.4429  0.1522
10022TIP3    H151481   5.778   2.110   0.362  1.2643  2.3821 -2.8129
10022TIP3    H251482   5.883   2.005   0.332  0.8866  1.6519 -1.6152
10023TIP3   OH251483   1.568   2.441  12.769  0.4463  0.4331 -0.1035
10023TIP3    H151484   1.568   2.533  12.744 -1.0606  0.7660  1.0378
10023TIP3    H251485   1.660   2.415  12.766  1.0404  2.3287  0.8729
10024TIP3   OH251486   6.611   2.110  13.359 -0.5742 -0.2659  0.1240
10024TIP3    H151487   6.658   2.147  13.284 -1.7679  0.2018 -0.4015
10024TIP3    H251488   6.609   2.016  13.341  0.4124 -0.3171  0.2919
10025TIP3   OH251489   4.806   1.822  15.294  0.0212  0.4087 -0.2367
10025TIP3    H151490   4.741   1.847  15.229 -0.2353  2.6463  0.8224
10025TIP3    H251491   4.879   1.882  15.280  1.6116 -1.6166 -0.9559
10026TIP3   OH251492   4.822   1.988   3.453 -0.2379  0.6010 -0.2994
10026TIP3    H151493   4.817   1.929   3.529 -1.1764  0.3265 -0.5616
10026TIP3    H251494   4.737   1.977   3.410 -0.2302  1.7922 -0.6200
10027TIP3   OH251495   4.387   3.706   2.133  0.8153  0.2799  0.7320
10027TIP3    H151496   4.466   3.709   2.187  1.7487  0.0350 -0.5832
10027TIP3    H251497   4.404   3.769   2.063  0.5255 -0.9300 -0.4514
10028TIP3   OH251498   2.239   1.411  15.333 -0.0260  0.6290 -0.0399
10028TIP3    H151499   2.151   1.404  15.298  0.1023 -0.3545 -0.1762
10028TIP3    H251500   2.294   1.364  15.270  0.5960  1.2761  0.0191
10029TIP3   OH251501   3.348   4.111   2.663  0.5205  0.4913 -0.1223
10029TIP3    H151502   3.336   4.053   2.738 -1.5663  1.3103  0.1846
10029TIP3    H251503   3.436   4.149   2.676  0.9107 -0.7480  0.9253
10030TIP3   OH251504   0.178   3.633   0.760 -0.1582 -0.2053 -1.1788
10030TIP3    H151505   0.241   3.578   0.807 -0.2057 -0.1515 -1.0495
10030TIP3    H251506   0.219   3.650   0.676  0.1644  0.1308 -0.9563
10031TIP3   OH251507   4.949   2.715  13.474  0.0952 -0.0771 -0.0632
10031TIP3    H151508   4.900   2.654  13.418 -0.9650 -0.3341  1.1199
10031TIP3    H251509   4.893   2.793  13.479 -0.2785 -0.4235  1.4062
10032TIP3   OH251510   3.657   3.553   5.733 -0.0249  0.1926  0.0468
10032TIP3    H151511   3.673   3.518   5.821 -1.2145  1.0358  0.5992
10032TIP3    H251512   3.621   3.640   5.747  0.0793  0.4646 -1.2904
10033TIP3   OH251513   2.866   5.457  17.216 -0.6239 -0.0807 -0.2954
10033TIP3    H151514   2.836   5.485  17.302 -3.3631 -1.1140 -0.8370
10033TIP3    H251515   2.882   5.538  17.168  1.1580  0.4918  1.2456
10034TIP3   OH251516   0.997   6.439  12.407  0.3437 -0.4898 -0.3252
10034TIP3    H151517   0.991   6.424  12.501 -2.5926  3.0840  0.1569
10034TIP3    H251518   1.091   6.443  12.390  0.9996 -4.1409  1.8665
10035TIP3   OH251519   4.943   0.033   0.943  0.4741  0.2098  0.1842
10035TIP3    H151520   4.887  -0.045   0.951 -0.4747  0.7751 -0.8289
10035TIP3    H251521   5.017   0.015   1.001  0.5093 -1.6556 -0.4047
10036TIP3   OH251522   0.722   5.755   4.695  0.4125 -0.1556 -0.2500
10036TIP3    H151523   0.683   5.695   4.632 -0.1294  0.4688 -0.5158
10036TIP3    H251524   0.673   5.741   4.776  1.9882 -1.9280  0.4381
10037TIP3   OH251525   1.334   0.909   5.354 -0.0231  0.2588  0.0034
10037TIP3    H151526   1.247   0.945   5.371  0.1131  0.3032  0.6369
10037TIP3    H251527   1.344   0.840   5.419  0.6108  0.5941  0.2719
10038TIP3   OH251528   4.855   4.230   3.238  0.3770  0.1257 -0.8207
10038TIP3    H151529   4.765   4.235   3.207  0.8154  1.5009 -1.9100
10038TIP3    H251530   4.897   4.165   3.180  0.0296 -0.7183 -0.1376
10039TIP3   OH251531   6.753   2.198   3.263 -0.1818 -0.1113 -0.0370
10039TIP3    H151532   6.762   2.141   3.339  0.7854 -0.3471 -0.3247
10039TIP3    H251533   6.713   2.277   3.297 -0.4025 -0.4929  0.5908
10040TIP3   OH251534   6.220   2.220   1.735  0.1134  0.3701  0.1962
10040TIP3    H151535   6.167   2.284   1.783 -0.6960 -0.6530  0.6856
10040TIP3    H251536   6.165   2.142   1.732  0.8489 -0.1052 -0.9376
10041TIP3   OH251537   5.879   2.293  14.031  0.0096 -0.2322  0.7660
10041TIP3    H151538   5.860   2.286  14.125 -0.4201  0.2826  0.7187
10041TIP3    H251539   5.813   2.354  13.998  2.0789  2.0165  0.6916
10042TIP3   OH251540   5.915   1.326  17.009 -0.0783 -0.3441  0.2443
10042TIP3    H151541   5.833   1.374  16.993  0.3103 -0.5703 -2.6994
10042TIP3    H251542   5.889   1.234  17.012 -0.2866 -0.2466  2.0925
10043TIP3   OH251543   5.119   4.733  14.034 -0.3138  0.0100  0.4088
10043TIP3    H151544   5.093   4.750  13.944 -1.9691 -0.0357  0.8595
10043TIP3    H251545   5.118   4.637  14.042 -1.0243  0.0383  0.7084
10044TIP3   OH251546   1.572   4.957   4.499 -0.3251  0.6066 -0.2296
10044TIP3    H151547   1.639   5.021   4.476 -0.3234  0.6534 -0.0946
10044TIP3    H251548   1.615   4.872   4.488 -0.0238  0.6499  0.5279
10045TIP3   OH251549   0.589   0.823  10.654 -0.7681 -0.4353  0.1845
10045TIP3    H151550   0.567   0.848  10.744  2.1965  1.1403  0.5136
10045TIP3    H251551   0.648   0.748  10.663 -1.2380 -0.8960 -0.4962
10046TIP3   OH251552   4.236   5.747  11.843 -0.5834  0.0467 -0.6347
10046TIP3    H151553   4.277   5.717  11.762  0.4310  0.3402 -0.2376
10046TIP3    H251554   4.153   5.787  11.815  1.0387  2.7162 -1.8223
10047TIP3   OH251555   1.835   4.999  11.695  0.6345  0.3705 -0.0958
10047TIP3    H151556   1.881   4.949  11.763  0.6139 -1.7256 -1.5855
10047TIP3    H251557   1.743   4.996  11.721  0.3812 -2.0542 -1.1954
10048TIP3   OH251558   2.622   4.139   5.008 -0.4019 -0.2252 -0.2015
10048TIP3    H151559   2.529   4.157   5.005 -0.2896  0.4070 -0.0277
10048TIP3    H251560   2.640   4.122   5.101 -0.1109  1.0007 -0.0123
10049TIP3   OH251561   4.987   3.242   4.753  0.4722 -0.0681 -0.3977
10049TIP3    H151562   4.950   3.206   4.672  1.4257  0.1366 -0.9305
10049TIP3    H251563   5.081   3.228   4.745  0.6631  0.8103  0.2514
10050TIP3   OH251564   4.308   1.327   5.938 -0.1801 -0.4830 -0.2884
10050TIP3    H151565   4.390   1.315   5.985  0.0675  0.7814 -0.3738
10050TIP3    H251566   4.298   1.249   5.885  0.5070 -1.0531  0.4167
10051TIP3   OH251567   5.813   6.432   0.213 -0.3275  0.2671  0.3908
10051TIP3    H151568   5.907   6.423   0.231  0.0249 -0.7867 -1.8440
10051TIP3    H251569   5.796   6.525   0.226  1.3584  0.7401 -0.5493
10052TIP3   OH251570   1.344   5.630  17.169  0.8946 -0.6752 -0.1260
10052TIP3    H151571   1.282   5.598  17.103  2.0779 -3.1032 -0.1024
10052TIP3    H251572   1.423   5.579  17.155  2.2594  1.0285  1.1185
10053TIP3   OH251573   2.021   3.022   0.296 -0.0544  0.0259 -0.8909
10053TIP3    H151574   2.106   3.029   0.253  1.4117  0.2060  1.8855
10053TIP3    H251575   1.988   3.112   0.299  0.1115  0.0943 -1.1039
10054TIP3   OH251576   4.818   0.197   3.385  0.7560 -0.5220 -0.1566
10054TIP3    H151577   4.736   0.184   3.337  0.1284  2.1635  0.1019
10054TIP3    H251578   4.849   0.108   3.403 -2.1104 -1.6096 -0.2157
10055TIP3   OH251579   3.906   5.111  10.756 -0.0404  0.2721  0.1541
10055TIP3    H151580   3.878   5.023  10.730  0.7808  0.3833 -1.1443
10055TIP3    H251581   3.831   5.167  10.736  0.1059  0.1486 -0.7926
10056TIP3   OH251582   3.378   2.450   0.590  0.3362 -0.7444  0.0131
10056TIP3    H151583   3.381   2.522   0.526 -0.1561 -0.0250  0.7866
10056TIP3    H251584   3.292   2.458   0.631  0.5434 -1.3692  0.5691
10057TIP3   OH251585   0.660   1.292   1.910 -0.0424 -0.1471 -0.0460
10057TIP3    H151586   0.750   1.279   1.942 -0.4236  2.1624  2.0826
10057TIP3    H251587   0.664   1.375   1.863 -1.2304  0.3430  0.7156
10058TIP3   OH251588   2.073   4.107   4.445 -0.3894 -0.4413 -0.0355
10058TIP3    H151589   2.111   4.171   4.505  0.6208 -1.3971  0.3689
10058TIP3    H251590   2.149   4.059   4.411 -0.9879 -0.2471 -1.6918
10059TIP3   OH251591   3.241   4.235  17.049 -0.4991 -0.0825 -0.2626
10059TIP3    H151592   3.280   4.257  16.964 -0.8595  0.2946 -0.3308
10059TIP3    H251593   3.201   4.149  17.036  0.4232 -0.5375 -0.1539
10060TIP3   OH251594   2.067   5.024  10.899 -0.8581  0.2577 -0.1274
10060TIP3    H151595   2.148   5.032  10.848 -1.1061  0.9443 -0.4258
10060TIP3    H251596   2.034   4.937  10.878 -0.7764  0.4029 -0.8800
10061TIP3   OH251597   6.081   0.569  13.474  0.0053  0.9541  0.0636
10061TIP3    H151598   6.112   0.479  13.487 -1.0464  0.8279  1.8868
10061TIP3    H251599   5.986   0.561  13.467  0.0401  1.7627 -1.4093
10062TIP3   OH251600   3.935   5.733   5.232  0.2244 -0.3336 -0.0122
10062TIP3    H151601   3.907   5.660   5.176 -0.2701  1.1260 -1.7340
10062TIP3    H251602   3.891   5.716   5.315 -1.7247 -0.8318 -1.0842
10063TIP3   OH251603   2.228   5.565  16.940 -0.1253 -0.2204  0.0322
10063TIP3    H151604   2.301   5.578  16.880 -1.2394  0.2345 -1.2568
10063TIP3    H251605   2.247   5.483  16.984  0.1773 -1.1327 -1.7540
10064TIP3   OH251606   1.273   6.146   4.035 -0.3060  0.4340  0.7202
10064TIP3    H151607   1.250   6.074   3.975 -2.1776  1.5323  0.0533
10064TIP3    H251608   1.198   6.206   4.029  1.0482  2.2447  1.5692
10065TIP3   OH251609   1.001   3.888   1.866  0.1831 -0.3764 -0.0594
10065TIP3    H151610   1.036   3.897   1.955  0.6999  1.8232 -0.4631
10065TIP3    H251611   0.913   3.852   1.878  1.1117 -2.3352  1.1885
10066TIP3   OH251612   0.620   6.211   6.452  0.4523  0.3061 -0.2474
10066TIP3    H151613   0.563   6.259   6.391  0.9750 -1.4282 -2.1505
10066TIP3    H251614   0.565   6.197   6.529 -0.6315  1.4555 -0.7803
10067TIP3   OH251615   2.942   6.435   0.810  0.1342 -0.2581 -0.6755
10067TIP3    H151616   2.854   6.470   0.794  1.1577  2.6568 -0.1876
10067TIP3    H251617   2.940   6.407   0.902 -0.6269 -1.3273 -1.0074
10068TIP3   OH251618   0.133   3.427   4.877  0.4366 -0.6191 -0.3719
10068TIP3    H151619   0.112   3.337   4.901 -0.0036 -0.6143 -0.7237
10068TIP3    H251620   0.082   3.443   4.797 -1.3934  0.7084  1.0047
10069TIP3   OH251621   2.132   2.816  11.329  0.1903 -0.3166 -0.1735
10069TIP3    H151622   2.153   2.724  11.311  0.2900 -0.2142 -0.5760
10069TIP3    H251623   2.042   2.813  11.363  0.0202 -0.5167 -0.6280
10070TIP3   OH251624   6.652   3.213   0.388  0.4736 -0.1780  0.3034
10070TIP3    H151625   6.663   3.124   0.352 -2.4429 -0.4109 -0.1367
10070TIP3    H251626   6.699   3.269   0.326  4.3015 -1.5743  1.8066
10071TIP3   OH251627   1.159   0.619  12.194 -0.4633 -0.5110 -0.6709
10071TIP3    H151628   1.103   0.543  12.209 -1.1227 -0.0442 -0.7154
10071TIP3    H251629   1.097   0.691  12.178  0.1151  0.2461  0.4193
10072TIP3   OH251630   5.022   0.571  16.990 -0.7465 -0.1256  0.5352
10072TIP3    H151631   5.061   0.658  16.987  0.3179 -0.6192 -4.2604
10072TIP3    H251632   4.934   0.582  16.955 -0.4051 -1.0295 -0.6505
10073TIP3   OH251633   1.016   5.170   6.073 -0.5981 -0.4772  0.3518
10073TIP3    H151634   1.093   5.216   6.106  0.6460 -1.6655 -0.7876
10073TIP3    H251635   0.951   5.176   6.143  1.1599 -0.9567  2.0414
10074TIP3   OH251636   2.032   3.681   5.657  0.5281 -0.2817 -0.4596
10074TIP3    H151637   1.981   3.601   5.641  2.0397 -1.3083 -0.3491
10074TIP3    H251638   2.072   3.701   5.573 -0.8703  1.1119 -0.7975
10075TIP3   OH251639   3.183   2.715   1.756  0.2890 -0.3642  0.5454
10075TIP3    H151640   3.183   2.801   1.714 -1.5247  0.0154  1.2636
10075TIP3    H251641   3.272   2.682   1.743  0.9096  1.4624 -0.0352
10076TIP3   OH251642   2.718   4.092  16.894 -0.0296  0.2785 -0.5613
10076TIP3    H151643   2.743   4.152  16.824 -2.0793  2.5051  0.5196
10076TIP3    H251644   2.660   4.029  16.851 -2.3403  2.4004 -0.7284
10077TIP3   OH251645   0.525   5.639   3.628  0.0483  0.1704 -0.3147
10077TIP3    H151646   0.484   5.553   3.638 -2.1895  1.1415 -0.9298
10077TIP3    H251647   0.539   5.647   3.533 -2.1486  1.5322 -0.5598
10078TIP3   OH251648   0.599   4.977   5.906 -0.1365 -0.6496 -0.2277
10078TIP3    H151649   0.674   4.976   5.966 -1.9303  2.9257  2.2366
10078TIP3    H251650   0.542   4.908   5.939  0.1489 -0.5486  0.4916
10079TIP3   OH251651   1.594   0.720  17.158  0.4287  0.3274  0.2210
10079TIP3    H151652   1.688   0.728  17.175  0.6634  2.7938 -1.8860
10079TIP3    H251653   1.583   0.755  17.070 -2.9368  3.2728  1.6919
10080TIP3   OH251654   1.460   3.782  16.874 -0.0745 -0.5700  0.3191
10080TIP3    H151655   1.458   3.818  16.963 -0.4245 -0.1089  0.1289
10080TIP3    H251656   1.434   3.691  16.884 -3.1270  0.2461  0.3254
10081TIP3   OH251657   5.164   6.563   3.357  0.0350 -0.0810 -0.2262
10081TIP3    H151658   5.152   6.552   3.263  1.6274 -1.3691 -0.3089
10081TIP3    H251659   5.081   6.536   3.396  0.2502 -2.1717 -1.1275
10082TIP3   OH251660   1.033   2.572   1.950  0.0637  0.8731  0.0700
10082TIP3    H151661   0.978   2.650   1.943 -0.9656  0.1380 -0.1095
10082TIP3    H251662   1.044   2.543   1.859  0.3899  0.7683  0.1427
10083TIP3   OH251663   1.380   5.869  15.901 -0.0623  0.5172 -0.0259
10083TIP3    H151664   1.360   5.784  15.861  1.2563  0.1688  0.0199
10083TIP3    H251665   1.300   5.894  15.946 -0.9777  0.0452 -1.3588
10084TIP3   OH251666   5.658   2.814   2.756  0.0537 -0.3895 -0.8670
10084TIP3    H151667   5.677   2.759   2.680  0.1625  0.8764 -1.7639
10084TIP3    H251668   5.565   2.833   2.749 -0.1590 -1.1292 -0.1031
10085TIP3   OH251669   2.266   1.859  12.071  0.2183 -0.3031  0.2805
10085TIP3    H151670   2.212   1.908  12.133 -0.0668 -1.3722  0.8990
10085TIP3    H251671   2.333   1.921  12.042 -0.4323  0.5863  0.6693
10086TIP3   OH251672   0.384   3.514  13.431  0.2622 -0.3075  0.1171
10086TIP3    H151673   0.389   3.425  13.397  0.2439 -0.4694  0.5276
10086TIP3    H251674   0.450   3.517  13.500  1.8093  0.6728 -1.3638
10087TIP3   OH251675   0.670   3.147  13.497  0.1899 -0.2120  0.6599
10087TIP3    H151676   0.756   3.186  13.487  0.4291 -0.2619  2.4105
10087TIP3    H251677   0.687   3.056  13.520 -0.3226 -0.2761  0.7959
10088TIP3   OH251678   1.664   0.602  10.925  0.0876  0.0180  0.3659
10088TIP3    H151679   1.682   0.668  10.858  1.2676 -0.4262  0.2342
10088TIP3    H251680   1.633   0.526  10.876  0.8469 -0.2699  0.3214
10089TIP3   OH251681   4.062   3.446   5.379  0.6298 -0.4547 -0.0459
10089TIP3    H151682   4.132   3.449   5.314  1.0622 -0.2507  0.4245
10089TIP3    H251683   4.076   3.524   5.433  1.3547 -1.5397  1.3917
10090TIP3   OH251684   6.583   3.255  11.067  0.0263  0.2258  0.2829
10090TIP3    H151685   6.501   3.279  11.025  0.3602  1.6579  0.4365
10090TIP3    H251686   6.633   3.337  11.073  1.4060 -0.5891  0.3246
10091TIP3   OH251687   5.876   4.427   2.598 -0.0465 -0.5086  0.4172
10091TIP3    H151688   5.815   4.497   2.622  0.8212  1.3199 -2.4236
10091TIP3    H251689   5.825   4.369   2.542  0.2767 -0.0359 -0.3728
10092TIP3   OH251690   2.452   4.697  10.528  0.2009  0.5682  0.5154
10092TIP3    H151691   2.458   4.733  10.440 -0.7235 -0.6023 -0.0468
10092TIP3    H251692   2.510   4.752  10.580  2.0651  0.2628 -1.1582
10093TIP3   OH251693   0.545   5.248   1.243  0.0597  0.1510 -0.3718
10093TIP3    H151694   0.551   5.189   1.168  0.4145 -0.1924 -0.0734
10093TIP3    H251695   0.515   5.331   1.206  0.9803  0.2058 -1.0024
10094TIP3   OH251696   2.458   3.114   0.311  1.1019  0.4913 -0.3114
10094TIP3    H151697   2.498   3.079   0.391 -0.7899 -1.0528 -0.0121
10094TIP3    H251698   2.411   3.192   0.340  1.4588  0.6515 -0.1541
10095TIP3   OH251699   3.650   0.344   0.041  0.4092  0.1696  0.2018
10095TIP3    H151700   3.733   0.305   0.069 -0.5131 -1.8767  0.1162
10095TIP3    H251701   3.586   0.316   0.106 -0.4566  0.8004 -0.3556
10096TIP3   OH251702   3.215   5.788   4.534  0.2899  0.6226 -0.4428
10096TIP3    H151703   3.202   5.839   4.615  0.1152  0.1444 -0.1685
10096TIP3    H251704   3.304   5.754   4.541  0.4350  0.9501 -0.6636
10097TIP3   OH251705   5.558   0.181   5.333 -0.1138  0.1891  0.3292
10097TIP3    H151706   5.525   0.134   5.409  3.5219 -0.8114  1.3757
10097TIP3    H251707   5.570   0.114   5.266 -0.9452  0.6758 -0.3262
10098TIP3   OH251708   0.304   3.241  17.013 -0.0731  0.3701  0.4184
10098TIP3    H151709   0.336   3.176  17.075  1.2980  1.7457  1.1763
10098TIP3    H251710   0.260   3.190  16.945  1.8428 -1.3994  0.4895
10099TIP3   OH251711   1.821   2.357   1.462 -1.0917  0.2258  0.3016
10099TIP3    H151712   1.823   2.268   1.497 -1.3306  0.3745  0.6949
10099TIP3    H251713   1.868   2.409   1.526 -0.6161  0.3168 -0.1227
10100TIP3   OH251714   2.324   3.882  12.184 -0.0126 -0.5768  0.3847
10100TIP3    H151715   2.393   3.848  12.126  1.2442 -0.8018  1.9725
10100TIP3    H251716   2.355   3.970  12.208 -0.9899 -0.1127 -0.0260
10101TIP3   OH251717   3.621   4.187  15.217 -0.0275  0.0728 -0.1281
10101TIP3    H151718   3.557   4.178  15.146  1.1160 -3.6181 -0.7769
10101TIP3    H251719   3.614   4.105  15.266  0.7611  1.6713  2.7599
10102TIP3   OH251720   6.681   0.895  14.389  0.1247  0.1415  0.1533
10102TIP3    H151721   6.766   0.913  14.429  0.4270  1.5675 -1.0709
10102TIP3    H251722   6.701   0.872  14.299 -0.8054  0.9224 -0.2674
10103TIP3   OH251723   0.333   2.893  11.059  0.8441 -0.0432  0.5745
10103TIP3    H151724   0.369   2.873  11.146  1.6270  0.4790  0.3681
10103TIP3    H251725   0.409   2.913  11.005  0.3573 -0.3607 -0.2377
10104TIP3   OH251726   6.420   0.488  16.648 -0.3084 -0.0230  0.5328
10104TIP3    H151727   6.418   0.568  16.595  2.8016  1.3251  2.2785
10104TIP3    H251728   6.345   0.497  16.708  0.1281  1.6924  0.8402
10105TIP3   OH251729   6.595   2.775  15.447  0.3907  0.5658 -0.2882
10105TIP3    H151730   6.604   2.773  15.351 -2.4938  0.0368 -0.5902
10105TIP3    H251731   6.570   2.686  15.470 -2.2985  1.4687  0.5322
10106TIP3   OH251732   2.078   6.620   4.731  0.0582 -0.2525 -0.1348
10106TIP3    H151733   2.148   6.599   4.793  0.5615  4.1075  0.9435
10106TIP3    H251734   2.123   6.630   4.647  0.3218 -0.0404  0.0313
10107TIP3   OH251735   2.778   0.393  16.120  0.1110  0.1610  0.0045
10107TIP3    H151736   2.727   0.437  16.188  0.5027 -1.3960  1.3550
10107TIP3    H251737   2.863   0.378  16.161  1.0214  0.9775 -1.5405
10108TIP3   OH251738   0.912   4.023   5.237  0.4304  0.0836  0.7010
10108TIP3    H151739   0.900   4.112   5.203 -1.7277 -0.6448 -0.5707
10108TIP3    H251740   1.001   3.999   5.212  0.6057  1.4441 -0.0232
10109TIP3   OH251741   4.821   1.206  15.683 -0.4707 -0.0267 -0.2873
10109TIP3    H151742   4.883   1.219  15.611 -0.8791 -0.8847 -0.8042
10109TIP3    H251743   4.848   1.122  15.721 -0.7557  0.0386  0.0507
10110TIP3   OH251744   4.027   1.038   3.154 -0.3603  0.4723  0.3971
10110TIP3    H151745   4.021   1.052   3.060 -0.0024  0.0955  0.3192
10110TIP3    H251746   3.979   0.957   3.170  0.1004  0.2130  0.4602
10111TIP3   OH251747   2.144   0.382   0.151  0.1864  0.0511  0.0749
10111TIP3    H151748   2.157   0.357   0.059 -1.6724  1.8814 -0.7290
10111TIP3    H251749   2.097   0.309   0.190  0.3076 -0.4085 -0.6348
10112TIP3   OH251750   4.027   3.474  10.403  0.0856 -0.1541  0.3985
10112TIP3    H151751   3.932   3.473  10.413  0.1595 -0.6153  1.1183
10112TIP3    H251752   4.043   3.524  10.323 -0.6822  1.2602  1.1188
10113TIP3   OH251753   5.831   6.573   5.587  1.3921 -0.2020  0.6427
10113TIP3    H151754   5.889   6.591   5.661  0.4114 -1.4804  1.7399
10113TIP3    H251755   5.857   6.487   5.556  1.5132  0.1489 -0.2459
10114TIP3   OH251756   0.658   1.327   3.810 -0.0848  0.7401 -1.2903
10114TIP3    H151757   0.633   1.235   3.806 -0.7338  0.8293  0.3296
10114TIP3    H251758   0.754   1.325   3.818 -0.2766  0.1129  1.1342
10115TIP3   OH251759   3.624   4.949   1.656  0.0303 -0.1728 -0.5670
10115TIP3    H151760   3.675   5.002   1.716 -0.2685  1.6020 -1.8453
10115TIP3    H251761   3.646   4.982   1.569 -1.3736 -1.0599 -1.2915
10116TIP3   OH251762   4.042   1.572  16.459  0.1204 -0.1804 -0.0259
10116TIP3    H151763   4.127   1.540  16.429 -0.0219  0.7813 -1.5120
10116TIP3    H251764   4.053   1.667  16.466 -0.8186 -0.0529 -0.1855
10117TIP3   OH251765   3.741   6.541  14.171 -0.2130 -0.0256  0.0335
10117TIP3    H151766   3.657   6.519  14.131 -0.1352  2.8964 -1.8889
10117TIP3    H251767   3.721   6.558  14.263 -1.0664 -2.9636  0.4399
10118TIP3   OH251768   2.655   0.005  14.582 -0.7096 -0.1622 -0.1426
10118TIP3    H151769   2.622   0.095  14.580 -1.3948 -0.4087 -0.1021
10118TIP3    H251770   2.644  -0.026  14.492 -1.3564 -0.5197  0.0597
10119TIP3   OH251771   0.675   2.245  16.494  0.4785 -0.3090  0.0907
10119TIP3    H151772   0.767   2.243  16.520 -0.0767  1.9119  2.4312
10119TIP3    H251773   0.634   2.176  16.545  0.6723 -0.6193 -0.1759
10120TIP3   OH251774   3.365   2.044   3.894  0.1533  0.3231 -0.8486
10120TIP3    H151775   3.431   2.067   3.828  1.8526 -0.5375  0.5029
10120TIP3    H251776   3.415   2.002   3.964 -1.8291 -0.2169  0.2829
10121TIP3   OH251777   5.928   1.816   4.480  0.2008 -0.1420 -0.1228
10121TIP3    H151778   5.837   1.834   4.504 -0.0209  0.4283 -1.3216
10121TIP3    H251779   5.977   1.890   4.516  0.1382 -0.2596  0.2045
10122TIP3   OH251780   0.886   6.253  13.326  0.1899  0.0731 -0.2478
10122TIP3    H151781   0.913   6.166  13.354  2.7680  0.9190  0.0246
10122TIP3    H251782   0.790   6.248  13.321  0.2356 -2.4761  0.6653
10123TIP3   OH251783   6.399   4.832  14.494 -0.4533 -0.6430 -1.0031
10123TIP3    H151784   6.386   4.741  14.521  0.6550 -0.2166  1.0815
10123TIP3    H251785   6.312   4.872  14.503 -0.6537 -1.1621 -0.5607
10124TIP3   OH251786   5.481   4.848   4.033 -0.7001  0.6574 -0.3315
10124TIP3    H151787   5.528   4.921   3.991 -0.1876 -0.1768 -1.2287
10124TIP3    H251788   5.409   4.828   3.973 -1.3368  0.9657  0.3224
10125TIP3   OH251789   0.508   0.094  11.786  0.5023  0.1373  0.2631
10125TIP3    H151790   0.452   0.017  11.775 -0.3461  0.5787  1.4915
10125TIP3    H251791   0.591   0.069  11.745  1.0704 -2.3399  2.8272
10126TIP3   OH251792   3.170   4.199  14.881 -0.1665  0.3515 -0.3704
10126TIP3    H151793   3.112   4.234  14.813 -1.5011 -1.1092 -0.0201
10126TIP3    H251794   3.146   4.107  14.887  1.2000  0.0584  0.8249
10127TIP3   OH251795   4.609   4.455  15.525 -0.3450 -0.3000 -0.1278
10127TIP3    H151796   4.691   4.495  15.495 -0.2177 -0.6387 -0.2436
10127TIP3    H251797   4.621   4.445  15.619 -0.2600 -0.3297 -0.1416
10128TIP3   OH251798   5.385   5.303   3.686 -0.1783  0.0483  0.2772
10128TIP3    H151799   5.380   5.378   3.628  0.0100 -0.4081 -0.3368
10128TIP3    H251800   5.295   5.270   3.691 -0.0664 -0.3633 -0.3640
10129TIP3   OH251801   0.820   2.058   1.254 -0.2367 -0.4642  0.0965
10129TIP3    H151802   0.869   1.975   1.257 -0.1717 -0.4218  0.2379
10129TIP3    H251803   0.804   2.078   1.347 -1.5809 -1.1101  0.0239
10130TIP3   OH251804   6.628   6.536  12.611 -0.2090  0.1923 -0.2342
10130TIP3    H151805   6.552   6.483  12.585  0.8825 -1.3365 -0.3433
10130TIP3    H251806   6.608   6.623  12.576 -2.0712 -0.0924  0.0237
10131TIP3   OH251807   1.719   2.503  16.595 -0.0603  0.0255 -0.1335
10131TIP3    H151808   1.759   2.483  16.511 -0.7413 -1.0943 -0.2011
10131TIP3    H251809   1.776   2.462  16.660  1.0475  1.7828  0.0468
10132TIP3   OH251810   2.448   0.497   4.333  0.0558  0.3140  0.3804
10132TIP3    H151811   2.378   0.456   4.282  0.5372  0.1394 -0.1400
10132TIP3    H251812   2.432   0.591   4.325  0.4390  0.3029 -0.5367
10133TIP3   OH251813   1.298   2.449  10.420  0.1542 -0.4570 -0.0353
10133TIP3    H151814   1.202   2.447  10.425 -0.0162  1.8872 -1.3968
10133TIP3    H251815   1.325   2.360  10.440 -2.3430 -1.3010 -0.2378
10134TIP3   OH251816   0.121   0.914  11.068  0.5865  0.3713 -0.3388
10134TIP3    H151817   0.181   0.974  11.024 -0.5082  2.0049  0.3541
10134TIP3    H251818   0.056   0.891  11.001 -0.5240  2.0919  0.1302
10135TIP3   OH251819   6.033   1.254   2.730 -0.5581 -0.4468  1.0669
10135TIP3    H151820   6.042   1.324   2.795 -0.8407  0.8466 -0.2584
10135TIP3    H251821   6.111   1.200   2.743  0.6112  1.1612  0.8892
10136TIP3   OH251822   3.752   0.505  13.651 -0.3301  0.0050 -0.0011
10136TIP3    H151823   3.786   0.439  13.711  2.5915  0.2405 -1.3013
10136TIP3    H251824   3.762   0.588  13.699  0.7927  0.0520 -0.3088
10137TIP3   OH251825   4.116   5.898  12.422  0.1599 -0.0233  0.0121
10137TIP3    H151826   4.023   5.879  12.437  0.1072  1.1155  1.2336
10137TIP3    H251827   4.158   5.879  12.506  0.6343  1.8122  0.2214
10138TIP3   OH251828   0.491   6.536  16.633  0.2971 -0.0204  0.4940
10138TIP3    H151829   0.442   6.543  16.716 -0.6833  0.4720 -0.1173
10138TIP3    H251830   0.532   6.621  16.622 -0.0262  0.0998  0.2014
10139TIP3   OH251831   0.678   4.230   2.744 -0.2519 -0.2016  0.8260
10139TIP3    H151832   0.742   4.293   2.777 -1.2767  2.7138 -2.4419
10139TIP3    H251833   0.604   4.237   2.805  0.4931  0.1835  1.6943
10140TIP3   OH251834   6.634   3.842   4.040 -0.3136  0.2053  0.0855
10140TIP3    H151835   6.593   3.918   4.080 -0.0599 -0.3478  1.4022
10140TIP3    H251836   6.724   3.871   4.020 -0.2476  0.2813  0.4921
10141TIP3   OH251837   4.602   5.119  14.519 -0.0145 -0.2399  0.0474
10141TIP3    H151838   4.675   5.178  14.499 -0.8826  0.4670 -1.1046
10141TIP3    H251839   4.564   5.154  14.599  0.7089 -0.4317  0.4852
10142TIP3   OH251840   6.242   1.645   2.112 -0.2785 -0.2567  0.3352
10142TIP3    H151841   6.294   1.612   2.185  1.0805  0.6422 -0.1902
10142TIP3    H251842   6.237   1.572   2.050  0.0304 -0.4805  0.5756
10143TIP3   OH251843   5.228   2.655  14.359 -0.0467  0.3869  0.1704
10143TIP3    H151844   5.204   2.588  14.294 -0.1073 -1.2838  1.8635
10143TIP3    H251845   5.146   2.681  14.399 -0.0959  1.9846 -0.9199
10144TIP3   OH251846   0.207   2.690   3.751 -0.2658 -0.1132 -0.2800
10144TIP3    H151847   0.284   2.646   3.786 -0.7438  0.3483  1.4039
10144TIP3    H251848   0.174   2.632   3.683 -1.2071 -2.6862  2.2468
10145TIP3   OH251849   3.153   0.957  14.252  0.0474 -0.0728 -0.0371
10145TIP3    H151850   3.129   0.916  14.169  1.7747 -0.4514 -0.3656
10145TIP3    H251851   3.244   0.983  14.241 -0.2630  1.5897  1.0759
10146TIP3   OH251852   0.026   4.752  12.111 -0.0307  0.5523 -0.2613
10146TIP3    H151853   0.039   4.829  12.167  1.2341  2.0709 -2.5762
10146TIP3    H251854   0.044   4.783  12.023  0.7241 -2.5002 -1.2354
10147TIP3   OH251855   0.933   1.454  16.257  0.0398 -0.2044  0.2313
10147TIP3    H151856   1.001   1.496  16.206 -0.3177 -0.2789 -0.3107
10147TIP3    H251857   0.931   1.363  16.226 -0.3010 -0.2045  0.2461
10148TIP3   OH251858   6.082   6.708   3.586  0.0277 -0.2749 -0.4172
10148TIP3    H151859   6.130   6.683   3.507 -1.1393  1.3699 -1.6566
10148TIP3    H251860   6.102   6.801   3.598  2.2520 -1.0440  2.6966
10149TIP3   OH251861   0.367   5.964   4.728  0.4223 -0.6648  0.0026
10149TIP3    H151862   0.289   6.012   4.754  0.4311 -0.9369  0.5333
10149TIP3    H251863   0.341   5.872   4.731  1.2350 -0.8444  1.7802
10150TIP3   OH251864   1.015   5.985  11.492  0.1619 -0.7065  0.1394
10150TIP3    H151865   1.007   5.970  11.398  0.3672  0.3540 -0.0559
10150TIP3    H251866   1.014   6.080  11.501  0.1762 -0.8005  1.2123
10151TIP3   OH251867   2.315   2.428   5.287 -0.1066 -0.5784  0.1752
10151TIP3    H151868   2.261   2.505   5.305  0.8555  0.3835 -0.9870
10151TIP3    H251869   2.396   2.444   5.336 -0.0413 -1.0172  0.2081
10152TIP3   OH251870   1.278   4.805   5.044  0.0551  0.1504 -0.2180
10152TIP3    H151871   1.217   4.825   4.972  1.3768  1.8189 -0.9071
10152TIP3    H251872   1.312   4.718   5.023 -2.0354 -0.7909  0.1550
10153TIP3   OH251873   2.897   0.808  16.695  0.7016  0.4685 -0.6377
10153TIP3    H151874   2.956   0.844  16.628  0.2683  1.5346 -0.4651
10153TIP3    H251875   2.869   0.885  16.745  0.7954 -0.2931  0.5862
10154TIP3   OH251876   4.257   5.144   1.772 -0.2296  0.2589  0.0942
10154TIP3    H151877   4.178   5.092   1.790  0.8136 -0.6109  2.2211
10154TIP3    H251878   4.313   5.085   1.721 -0.7472  0.7515 -1.0869
10155TIP3   OH251879   1.366   0.880   3.594  0.2332  0.0685 -0.5524
10155TIP3    H151880   1.385   0.787   3.582  0.6152 -0.3068  2.5427
10155TIP3    H251881   1.448   0.925   3.573  0.4076 -0.4026 -0.8682
10156TIP3   OH251882   6.165   0.494  15.428  0.7720 -0.2903  0.2832
10156TIP3    H151883   6.194   0.407  15.455  2.1141  0.0087 -0.1726
10156TIP3    H251884   6.197   0.503  15.339 -0.4079  0.2082 -0.1031
10157TIP3   OH251885   2.223   2.473  16.970 -0.1946 -0.5302  0.2565
10157TIP3    H151886   2.189   2.467  17.059  0.5092 -0.7778  0.5077
10157TIP3    H251887   2.218   2.566  16.949  0.5635 -0.3376  0.9174
10158TIP3   OH251888   2.726   2.765   5.932 -0.4604  0.0359 -0.0801
10158TIP3    H151889   2.717   2.859   5.946 -0.0212  0.1118 -0.2954
10158TIP3    H251890   2.768   2.733   6.013 -2.1186 -0.2362  0.6950
10159TIP3   OH251891   5.094   2.165  15.559  0.4501 -0.0788  0.4548
10159TIP3    H151892   5.123   2.092  15.613  0.7313 -1.3730 -1.4019
10159TIP3    H251893   5.011   2.193  15.598  1.4005  0.0136  2.4442
10160TIP3   OH251894   0.381   2.563  14.383 -0.3562  0.4814  0.3755
10160TIP3    H151895   0.447   2.516  14.434  0.8530  1.9540  0.2135
10160TIP3    H251896   0.301   2.558  14.435  0.2790 -0.0177  1.3106
10161TIP3   OH251897   3.214   0.862   3.837 -0.1162  0.3067 -0.3041
10161TIP3    H151898   3.185   0.782   3.793  1.2021 -0.5924  0.4013
10161TIP3    H251899   3.238   0.922   3.767 -2.8292  0.7778 -0.8879
10162TIP3   OH251900   3.046   5.331  15.241  0.2942  0.0951 -0.4000
10162TIP3    H151901   3.096   5.412  15.249  1.6076 -0.6091 -1.2840
10162TIP3    H251902   2.961   5.351  15.280  1.4811  1.1076  1.7611
10163TIP3   OH251903   2.863   0.118   6.583  0.2750 -0.3001 -0.1883
10163TIP3    H151904   2.787   0.155   6.627  1.7905  1.1029  1.3046
10163TIP3    H251905   2.896   0.189   6.528  1.0266 -0.6231 -0.1620
10164TIP3   OH251906   1.811   1.896  15.117 -0.5954 -0.2231  0.5845
10164TIP3    H151907   1.809   1.807  15.081  1.2647 -0.7855  1.7579
10164TIP3    H251908   1.737   1.899  15.177 -1.4074 -0.5731 -0.3904
10165TIP3   OH251909   1.615   4.860  11.777  0.0323  0.0011  0.4144
10165TIP3    H151910   1.593   4.816  11.859 -0.0698 -1.6654 -0.4762
10165TIP3    H251911   1.603   4.793  11.710  0.7328  1.1565 -0.9001
10166TIP3   OH251912   3.931   3.606   1.763  0.6122  0.2383  0.4871
10166TIP3    H151913   3.889   3.688   1.736 -0.6032 -0.3859  0.4510
10166TIP3    H251914   3.987   3.582   1.689  2.2080  1.8555  1.1421
10167TIP3   OH251915   0.528   0.492  15.534  0.1419  0.2236 -0.0071
10167TIP3    H151916   0.483   0.441  15.466 -0.1993 -0.7344  0.9109
10167TIP3    H251917   0.472   0.568  15.548 -0.9042 -0.6533  0.6948
10168TIP3   OH251918   1.640   0.195  13.540  0.0793 -0.3333 -0.0301
10168TIP3    H151919   1.647   0.173  13.633 -0.5135 -0.0228  0.0953
10168TIP3    H251920   1.546   0.190  13.522  0.1234  0.3026 -0.4450
10169TIP3   OH251921   0.772   4.944   5.628 -0.2833  0.3787  0.0450
10169TIP3    H151922   0.802   4.997   5.553  1.2781  0.0133  0.4056
10169TIP3    H251923   0.817   4.983   5.703 -0.7019 -0.2005  0.5892
10170TIP3   OH251924   6.322   1.278   0.997  0.6895 -0.0925 -0.6319
10170TIP3    H151925   6.242   1.228   1.012  1.6380 -1.1258  1.2995
10170TIP3    H251926   6.293   1.369   0.993 -0.9547 -0.6836 -3.2576
10171TIP3   OH251927   0.653   1.696   3.328 -1.1675 -0.2330 -0.1032
10171TIP3    H151928   0.722   1.648   3.374 -0.5035  0.5676 -0.2830
10171TIP3    H251929   0.698   1.758   3.273 -2.0253  0.0749 -0.4665
10172TIP3   OH251930   5.579   0.260  14.350  0.5552  0.9018  0.0454
10172TIP3    H151931   5.558   0.233  14.440 -0.7246  0.3226 -0.4047
10172TIP3    H251932   5.574   0.178  14.300  0.8244  1.2982 -0.6213
10173TIP3   OH251933   2.098   0.093  14.925 -0.3424 -0.2621  0.6852
10173TIP3    H151934   2.042   0.015  14.929 -0.2292 -0.3196  1.1114
10173TIP3    H251935   2.038   0.166  14.936 -0.5372 -0.2547 -0.3359
10174TIP3   OH251936   2.944   5.812  12.863 -0.6172 -0.1378 -0.3312
10174TIP3    H151937   2.869   5.782  12.914  0.0825 -0.8201  0.3060
10174TIP3    H251938   3.007   5.842  12.929 -0.8806  1.7756 -0.9039
10175TIP3   OH251939   0.237   5.911  14.674 -0.5430  0.1594  0.0542
10175TIP3    H151940   0.211   5.984  14.617 -0.6000 -1.4421 -2.0330
10175TIP3    H251941   0.165   5.849  14.668 -0.1045 -0.4622  1.1239
10176TIP3   OH251942   0.055   0.108   0.651 -0.5374  0.6769  0.4429
10176TIP3    H151943   0.132   0.077   0.699 -0.3400  0.5350  0.0331
10176TIP3    H251944   0.089   0.173   0.589 -0.6927  0.3322 -0.0065
10177TIP3   OH251945   5.981   1.010  12.036 -0.0645  0.5003  0.1137
10177TIP3    H151946   5.963   1.068  12.110 -0.6546  0.5951 -0.1022
10177TIP3    H251947   5.897   1.004  11.990 -0.4289 -1.6762  0.9630
10178TIP3   OH251948   1.979   0.922  14.765  0.1823  0.6728 -0.6719
10178TIP3    H151949   1.962   0.832  14.793 -0.6279  0.5826 -1.4353
10178TIP3    H251950   2.055   0.915  14.707  0.1582  0.4958 -0.6818
10179TIP3   OH251951   5.722   4.663  12.339 -0.0779  0.8339  0.2274
10179TIP3    H151952   5.720   4.706  12.425  0.0628 -0.6516  0.9851
10179TIP3    H251953   5.661   4.715  12.286 -0.4790  1.5266  1.3317
10180TIP3   OH251954   3.764   5.083   2.096  0.3472  0.3500  0.0055
10180TIP3    H151955   3.744   4.993   2.121 -0.1302  0.0607 -1.3714
10180TIP3    H251956   3.711   5.136   2.155 -1.4132 -0.3357 -0.9103
10181TIP3   OH251957   3.671   0.082   5.720 -0.8965  0.0828  0.0995
10181TIP3    H151958   3.637   0.148   5.660 -3.0551 -1.0052  0.0947
10181TIP3    H251959   3.766   0.097   5.721 -0.8922  0.4995 -3.1174
10182TIP3   OH251960   6.066   0.769   0.989 -0.3913  0.1733 -0.3116
10182TIP3    H151961   6.035   0.805   0.906 -0.4885 -0.4384 -0.5373
10182TIP3    H251962   6.051   0.675   0.982  0.5671 -0.0049 -0.0179
10183TIP3   OH251963   0.541   0.018   6.671 -0.5124 -0.2205 -0.4771
10183TIP3    H151964   0.565  -0.049   6.735  1.2161 -0.0368 -0.9167
10183TIP3    H251965   0.463  -0.017   6.629 -0.4413 -1.3167  0.2681
10184TIP3   OH251966   5.444   0.732  15.033  0.1507 -0.1124 -0.0262
10184TIP3    H151967   5.513   0.758  15.094 -0.2578 -0.9350  0.7999
10184TIP3    H251968   5.389   0.810  15.024  1.2903  0.6109 -0.8517
10185TIP3   OH251969   6.309   2.031   3.354  0.3195 -0.3240  0.1003
10185TIP3    H151970   6.295   2.105   3.414 -1.2123 -2.4092  2.3766
10185TIP3    H251971   6.365   1.971   3.402 -0.5794 -1.8450 -0.7344
10186TIP3   OH251972   3.989   6.437  15.779 -0.5217 -0.4046 -0.0327
10186TIP3    H151973   3.986   6.415  15.686 -0.4826  1.0227 -0.3831
10186TIP3    H251974   4.052   6.509  15.784  1.1175 -1.8902  1.3994
10187TIP3   OH251975   6.354   5.372   0.085  0.2639 -0.3288 -0.5784
10187TIP3    H151976   6.311   5.307   0.141 -0.1200  0.2476 -0.2038
10187TIP3    H251977   6.422   5.410   0.141  1.8525 -1.8320 -1.4207
10188TIP3   OH251978   2.195   6.475   1.344 -0.0594 -0.2069  0.4802
10188TIP3    H151979   2.123   6.504   1.400  0.9103 -0.3875  1.8382
10188TIP3    H251980   2.166   6.495   1.255 -1.3503  0.6686  1.0905
10189TIP3   OH251981   5.912   6.714   2.475 -0.0612 -0.1467  0.4186
10189TIP3    H151982   5.901   6.687   2.566  0.6311  0.5791  0.7164
10189TIP3    H251983   5.872   6.801   2.470 -0.2566 -0.2557 -0.0164
10190TIP3   OH251984   6.324   3.517   0.312  0.1435  0.2575 -0.0730
10190TIP3    H151985   6.378   3.438   0.316 -1.0693 -0.5751  0.1264
10190TIP3    H251986   6.319   3.548   0.402  0.5827  0.5487 -0.1449
10191TIP3   OH251987   6.555   5.429   3.246 -0.2258  0.1585  0.1059
10191TIP3    H151988   6.606   5.456   3.322  0.5583  0.5034 -0.5303
10191TIP3    H251989   6.465   5.422   3.278  0.4712 -2.2667  1.7092
10192TIP3   OH251990   6.758   1.113   1.767  0.1191 -0.1577 -0.5444
10192TIP3    H151991   6.696   1.185   1.775  2.1008  1.5938 -0.5696
10192TIP3    H251992   6.794   1.101   1.855 -1.2359 -2.0932 -0.2290
10193TIP3   OH251993   0.741   4.646   2.142  0.1121  0.0586 -0.1677
10193TIP3    H151994   0.649   4.621   2.132 -0.5754  1.6973  1.6889
10193TIP3    H251995   0.738   4.735   2.178  2.3515 -1.0605  3.0190
10194TIP3   OH251996   3.614   2.861   4.062 -0.0597 -0.2671  0.1100
10194TIP3    H151997   3.565   2.916   4.002  0.0322  1.1798  1.3195
10194TIP3    H251998   3.585   2.890   4.149  0.1862 -1.9585  0.7696
10195TIP3   OH251999   4.009   6.339  12.399 -0.0398  0.1890  0.2961
10195TIP3    H152000   3.984   6.429  12.418 -2.6331 -0.4849  0.3158
10195TIP3    H252001   3.955   6.286  12.458  1.5552 -1.3959  0.4056
10196TIP3   OH252002   4.906   1.831  10.929  0.0724  0.1860  0.0390
10196TIP3    H152003   5.001   1.815  10.925  0.3390  1.8917 -0.8633
10196TIP3    H252004   4.867   1.753  10.889  1.0308 -1.0432  1.4222
10197TIP3   OH252005   2.896   6.390   4.953 -0.6101 -0.1377  0.6420
10197TIP3    H152006   2.801   6.384   4.943 -0.5785  2.1234 -1.4540
10197TIP3    H252007   2.910   6.468   5.007 -0.0052 -1.9114  3.1152
10198TIP3   OH252008   4.635   3.303  10.889  1.1359  0.5743  0.1321
10198TIP3    H152009   4.551   3.318  10.931  0.5544  1.4334 -1.3187
10198TIP3    H252010   4.626   3.341  10.802  2.7471 -0.0611 -0.3338
10199TIP3   OH252011   3.053   1.312   4.436  0.4417  0.1103  0.2214
10199TIP3    H152012   3.031   1.362   4.515  1.8693  0.5420  0.3721
10199TIP3    H252013   2.969   1.297   4.393  0.0295  3.4085 -0.2768
10200TIP3   OH252014   3.557   5.083   4.032 -0.2327 -0.5043 -0.0333
10200TIP3    H152015   3.471   5.124   4.045 -0.5216 -0.5840 -1.5456
10200TIP3    H252016   3.602   5.096   4.115 -2.1514 -1.5728  1.2266
10201TIP3   OH252017   1.265   2.691  12.724  0.6168  0.1843 -0.2277
10201TIP3    H152018   1.319   2.738  12.660  1.4723  0.2911  0.5548
10201TIP3    H252019   1.306   2.711  12.808  0.2998 -1.0388  0.2250
10202TIP3   OH252020   3.934   0.380   4.779  0.2196  0.2470  0.0150
10202TIP3    H152021   3.892   0.426   4.706 -1.4445  0.9511  1.3865
10202TIP3    H252022   3.861   0.344   4.829  1.3879 -0.8662  0.9286
10203TIP3   OH252023   5.871   4.696   2.956 -0.1800 -0.0628  0.1410
10203TIP3    H152024   5.903   4.753   2.886  0.3322 -0.5489 -0.0194
10203TIP3    H252025   5.913   4.612   2.941 -1.4009 -0.6693  0.0249
10204TIP3   OH252026   0.364   3.039   3.778 -0.8826 -0.0995 -0.2249
10204TIP3    H152027   0.310   2.994   3.842 -1.6162  1.1614  0.0436
10204TIP3    H252028   0.441   3.069   3.827 -2.4931  2.8395  0.5980
10205TIP3   OH252029   4.350   0.942  15.761  0.6756  0.2803 -0.1379
10205TIP3    H152030   4.290   0.894  15.703  1.0492 -1.6943  1.0552
10205TIP3    H252031   4.344   1.033  15.731  0.5761 -0.6053 -3.0332
10206TIP3   OH252032   0.330   0.048  16.831 -0.6316  0.0043  0.3182
10206TIP3    H152033   0.367   0.101  16.901  0.5056  2.2758 -1.9121
10206TIP3    H252034   0.406   0.010  16.786 -1.2656 -0.2939 -0.5318
10207TIP3   OH252035   1.796   6.749  14.590  0.2605  0.0806  0.6783
10207TIP3    H152036   1.873   6.724  14.641  2.6217  0.6948 -2.4617
10207TIP3    H252037   1.780   6.840  14.615  1.6924  0.5287  0.0299
10208TIP3   OH252038   4.221   4.283   0.776  0.1821  0.5889  0.0022
10208TIP3    H152039   4.188   4.268   0.687 -0.0600 -0.2363  0.2260
10208TIP3    H252040   4.143   4.279   0.831  0.5679 -0.7436  0.4601
10209TIP3   OH252041   0.896   5.066   4.189 -0.1953 -0.5215 -0.1759
10209TIP3    H152042   0.859   5.136   4.244  0.7680 -0.0326 -0.1423
10209TIP3    H252043   0.982   5.049   4.227 -0.1182 -1.1953 -0.6549
10210TIP3   OH252044   5.193   2.156   1.350 -0.0171  0.4009 -0.5289
10210TIP3    H152045   5.130   2.144   1.279 -0.0041  1.1191 -0.6671
10210TIP3    H252046   5.277   2.131   1.312 -0.2659 -0.8982 -0.2386
10211TIP3   OH252047   0.381   4.284  10.722  0.1570 -0.1170  0.0104
10211TIP3    H152048   0.372   4.237  10.639  0.3761 -1.0409  0.5036
10211TIP3    H252049   0.353   4.374  10.702  1.6752  0.0512 -1.4341
10212TIP3   OH252050   3.505   6.126   3.678 -0.0687 -0.1838 -0.2146
10212TIP3    H152051   3.488   6.148   3.587 -1.0087 -0.3043 -0.0759
10212TIP3    H252052   3.580   6.067   3.676 -1.6621 -2.2212 -1.1113
10213TIP3   OH252053   3.840   2.217  10.690 -0.3044  0.0972 -0.4568
10213TIP3    H152054   3.865   2.307  10.714 -0.9927 -0.5755  3.1429
10213TIP3    H252055   3.746   2.221  10.677 -0.2679 -0.0169 -0.7644
10214TIP3   OH252056   3.827   4.462   1.206  0.2652 -0.4173  0.1829
10214TIP3    H152057   3.905   4.499   1.165 -0.2479 -0.0874 -0.4908
10214TIP3    H252058   3.848   4.369   1.218  0.4943 -0.4817 -0.6610
10215TIP3   OH252059   6.534   1.397   0.104  0.0220 -0.3663  0.3984
10215TIP3    H152060   6.440   1.400   0.117 -0.1540 -2.5165 -0.2242
10215TIP3    H252061   6.552   1.307   0.074  2.4152 -0.4033  1.8024
10216TIP3   OH252062   6.071   0.391  14.841  0.0570 -0.1629 -0.4617
10216TIP3    H152063   6.166   0.380  14.843  0.1162 -0.1772 -2.4243
10216TIP3    H252064   6.037   0.306  14.814 -0.4932 -0.0674 -0.0859
10217TIP3   OH252065   3.136   3.958  17.036 -0.5368  0.1309  0.1929
10217TIP3    H152066   3.052   3.914  17.039 -1.2907  1.5088  0.0088
10217TIP3    H252067   3.200   3.889  17.017 -1.3787 -1.2086  2.1522
10218TIP3   OH252068   1.107   2.805   0.109  0.5141 -0.0379 -0.0926
10218TIP3    H152069   1.152   2.766   0.034 -1.5571 -1.9032 -0.4114
10218TIP3    H252070   1.059   2.880   0.072  2.1409  1.0685 -0.0074
10219TIP3   OH252071   4.027   6.170   2.120  0.0157  0.6631  0.0107
10219TIP3    H152072   4.030   6.226   2.043 -0.9008  1.1935  0.3498
10219TIP3    H252073   4.036   6.231   2.194  2.7465 -0.0131  0.2917
10220TIP3   OH252074   2.035   0.261  13.590  0.8142 -0.3216  0.2804
10220TIP3    H152075   2.065   0.172  13.611  0.1855  0.4018  4.8986
10220TIP3    H252076   1.946   0.264  13.625  0.6478  1.9660 -0.2951
10221TIP3   OH252077   1.275   1.610  16.595  0.2350 -0.7804  0.1277
10221TIP3    H152078   1.211   1.656  16.541 -0.0866 -1.4824 -0.0942
10221TIP3    H252079   1.313   1.678  16.651  1.4077  0.1707 -1.7870
10222TIP3   OH252080   3.569   6.249  14.745 -0.3269  0.2927  0.2503
10222TIP3    H152081   3.504   6.287  14.687  0.5802 -0.6991 -1.4720
10222TIP3    H252082   3.531   6.166  14.773 -0.8706  0.8844  1.3062
10223TIP3   OH252083   3.442   2.549  12.061 -0.2798 -0.4506  0.0230
10223TIP3    H152084   3.455   2.586  11.973  0.5523  1.8766  1.0658
10223TIP3    H252085   3.509   2.481  12.068  0.1456 -0.1476 -0.9014
10224TIP3   OH252086   2.079   2.512   4.667 -0.6259  0.0693 -0.8268
10224TIP3    H152087   2.080   2.607   4.658 -1.1802  0.2332  0.6665
10224TIP3    H252088   2.053   2.497   4.758  0.4579 -1.4839 -0.7447
10225TIP3   OH252089   3.524   4.941  16.451 -0.2656 -0.0238 -0.1992
10225TIP3    H152090   3.490   4.902  16.371 -0.1618 -0.5976  0.0353
10225TIP3    H252091   3.495   4.883  16.521 -1.8961  1.4150  0.3816
10226TIP3   OH252092   3.373   3.789   0.533  0.0066  0.4701  0.4810
10226TIP3    H152093   3.409   3.834   0.610  0.7383 -0.6122  0.7756
10226TIP3    H252094   3.398   3.698   0.545 -1.4704 -0.0147 -0.1315
10227TIP3   OH252095   0.060   0.475  15.762 -0.1141  0.2335  0.2451
10227TIP3    H152096  -0.021   0.488  15.812 -0.6426 -0.9143 -0.2953
10227TIP3    H252097   0.107   0.408  15.811 -0.9921 -1.4773 -1.1792
10228TIP3   OH252098   0.496   3.156  14.600  0.3969  0.2174  0.3447
10228TIP3    H152099   0.470   3.135  14.690  0.5553 -2.2149 -0.1492
10228TIP3    H252100   0.577   3.107  14.587  0.5076  0.7639 -1.0554
10229TIP3   OH252101   0.255   0.491  11.219  0.3561 -0.1419 -0.0022
10229TIP3    H152102   0.182   0.453  11.169  0.6362 -1.0790  0.2799
10229TIP3    H252103   0.326   0.427  11.209  0.8463  0.3287  0.4724
10230TIP3   OH252104   5.010   3.424   1.822  0.4770 -0.1839  0.4793
10230TIP3    H152105   5.079   3.488   1.803  0.7818 -0.9682 -1.1778
10230TIP3    H252106   4.932   3.477   1.840  0.2770  0.6831 -2.5839
10231TIP3   OH252107   2.605   5.364   1.651  0.2433  0.5950 -0.5788
10231TIP3    H152108   2.683   5.312   1.636 -0.8232 -0.6990 -1.7973
10231TIP3    H252109   2.542   5.304   1.692 -0.5830  1.2263 -0.8871
10232TIP3   OH252110   5.314   6.119  11.978  0.4371  0.3744 -0.0180
10232TIP3    H152111   5.225   6.091  11.996  0.6597 -1.6437 -1.7816
10232TIP3    H252112   5.365   6.088  12.053 -0.3385  1.4947  0.9676
10233TIP3   OH252113   4.737   5.563   0.687  0.1526 -0.0354 -0.4864
10233TIP3    H152114   4.775   5.599   0.768 -2.4360 -1.7755  1.5884
10233TIP3    H252115   4.782   5.479   0.675 -1.6913 -1.2732  0.9894
10234TIP3   OH252116   1.001   1.473  12.498  0.2009  0.0340 -0.1497
10234TIP3    H152117   0.959   1.416  12.433 -1.3781  3.1693 -1.9910
10234TIP3    H252118   1.088   1.492  12.461  1.2692 -2.1937  1.1222
10235TIP3   OH252119   3.434   3.757   3.965  0.7730 -0.4256 -0.5366
10235TIP3    H152120   3.357   3.733   4.015  0.0760  0.6907 -1.0425
10235TIP3    H252121   3.436   3.853   3.969  1.9162 -0.4253 -0.8486
10236TIP3   OH252122   4.929   5.898   3.165 -0.2816  0.1470  0.3829
10236TIP3    H152123   4.862   5.966   3.170 -0.9054 -0.2734 -1.8141
10236TIP3    H252124   4.890   5.822   3.209 -0.7629  0.2891  0.1999
10237TIP3   OH252125   1.600   2.829   5.448  0.3092 -0.1555 -0.2377
10237TIP3    H152126   1.628   2.738   5.450 -0.0614 -0.2772 -0.6069
10237TIP3    H252127   1.506   2.825   5.431  0.2684  0.2875 -0.1106
10238TIP3   OH252128   5.836   5.036  11.018 -0.6025  0.1553  0.3471
10238TIP3    H152129   5.882   4.962  10.978 -0.4260  0.9458 -0.9425
10238TIP3    H252130   5.905   5.086  11.062 -0.7206 -0.4338  1.2118
10239TIP3   OH252131   5.183   2.871  15.259 -0.1931 -0.2863  0.2652
10239TIP3    H152132   5.150   2.796  15.210  0.3330 -1.3834  1.5755
10239TIP3    H252133   5.268   2.890  15.219 -0.1062 -0.7086  0.2423
10240TIP3   OH252134   5.056   3.826  13.949  0.1502 -0.2951 -0.3261
10240TIP3    H152135   5.079   3.882  13.875 -0.1306 -1.5388 -1.3740
10240TIP3    H252136   5.104   3.863  14.023 -0.4761  1.6679 -0.8615
10241TIP3   OH252137   3.030   2.203   2.177  0.1019  0.9355 -0.5040
10241TIP3    H152138   2.982   2.273   2.220 -3.0919 -0.4735 -1.6377
10241TIP3    H252139   3.055   2.239   2.092  0.1172  1.3346 -0.3296
10242TIP3   OH252140   6.638   3.450  11.989  0.4387 -0.2457 -0.1891
10242TIP3    H152141   6.730   3.473  12.005 -0.0327 -0.0677  2.5379
10242TIP3    H252142   6.617   3.491  11.905  2.9698 -0.6825 -1.0851
10243TIP3   OH252143   0.178   2.289  14.974  0.2630  0.5034  0.5006
10243TIP3    H152144   0.219   2.255  15.054  0.6391  1.4112  0.6971
10243TIP3    H252145   0.215   2.235  14.904 -1.6063 -1.6622  1.1147
10244TIP3   OH252146   0.820   4.570  14.014 -0.5530 -0.0484 -0.7943
10244TIP3    H152147   0.769   4.492  14.037  1.1195 -0.9475 -0.0170
10244TIP3    H252148   0.767   4.643  14.044 -0.9691 -1.0050  0.8814
10245TIP3   OH252149   4.302   0.248   5.311 -0.0226  0.1065 -0.0433
10245TIP3    H152150   4.258   0.187   5.371 -0.9805  0.4174 -0.4146
10245TIP3    H252151   4.395   0.241   5.334 -0.4357  0.7446  1.9649
10246TIP3   OH252152   5.645   3.799  15.692  0.2894  0.1565  0.2542
10246TIP3    H152153   5.664   3.761  15.606  0.4472 -0.7688  0.6949
10246TIP3    H252154   5.577   3.863  15.675  0.5105  0.1670 -0.6107
10247TIP3   OH252155   5.842   2.390   3.986  0.6204 -0.4629  0.4567
10247TIP3    H152156   5.821   2.405   4.078  0.5177  0.0685  0.3485
10247TIP3    H252157   5.760   2.411   3.939  1.5994  2.4293 -0.0488
10248TIP3   OH252158   4.545   4.893  13.987  0.4281  0.5754 -0.5404
10248TIP3    H152159   4.528   4.951  13.913  2.1014  0.5936 -0.9230
10248TIP3    H252160   4.532   4.948  14.064 -1.0088  0.6376 -0.8019
10249TIP3   OH252161   5.815   0.830   6.290  0.0923 -0.2387 -0.5903
10249TIP3    H152162   5.735   0.837   6.237 -0.3363 -0.8866 -0.0496
10249TIP3    H252163   5.785   0.791   6.373  1.2333 -2.1740 -1.0470
10250TIP3   OH252164   2.246   2.696  15.507  0.3553 -0.0470 -0.0068
10250TIP3    H152165   2.316   2.634  15.530 -1.6607 -2.2628  0.3926
10250TIP3    H252166   2.206   2.719  15.591  0.3096  0.8424 -0.2732
10251TIP3   OH252167   1.902   4.539  10.073  0.2946  0.3424  0.5991
10251TIP3    H152168   1.884   4.476  10.143 -2.2528  0.5980  0.2285
10251TIP3    H252169   1.892   4.624  10.115  2.1156  0.5152  0.7071
10252TIP3   OH252170   0.872   0.263   6.051 -0.0391 -0.2325  0.2946
10252TIP3    H152171   0.863   0.323   5.976  1.9072  0.6179  0.7222
10252TIP3    H252172   0.949   0.294   6.098 -0.9355 -1.0788  2.3884
10253TIP3   OH252173   2.644   1.325  16.731 -0.0773  0.4292 -0.0304
10253TIP3    H152174   2.624   1.326  16.824 -1.3889 -2.3571 -0.2358
10253TIP3    H252175   2.738   1.311  16.726  0.4596  3.4172  0.8571
10254TIP3   OH252176   5.820   4.763   1.511 -0.1991  0.2092 -0.1367
10254TIP3    H152177   5.755   4.832   1.526 -0.7077 -0.1489 -0.7278
10254TIP3    H252178   5.792   4.691   1.567  0.5435  0.6148  0.7682
10255TIP3   OH252179   6.701   2.128  15.232 -0.2071 -0.0458 -0.2556
10255TIP3    H152180   6.682   2.213  15.193 -1.3717 -0.4465 -0.5842
10255TIP3    H252181   6.727   2.073  15.158 -0.5158 -0.2653 -0.2036
10256TIP3   OH252182   0.791   1.652  14.611 -0.3063  0.5726 -0.0505
10256TIP3    H152183   0.812   1.566  14.648  1.6141  1.4736  1.0316
10256TIP3    H252184   0.769   1.706  14.686  1.3360  1.7855 -0.4111
10257TIP3   OH252185   5.807   2.687  15.548 -0.1588  0.3209 -0.1966
10257TIP3    H152186   5.728   2.708  15.497 -0.5693  0.3025  0.4318
10257TIP3    H252187   5.838   2.771  15.580 -1.1022  0.1156  1.2886
10258TIP3   OH252188   2.632   4.966  11.481 -0.2639  0.0356  0.0241
10258TIP3    H152189   2.614   4.888  11.428 -2.7613  0.7155 -0.1903
10258TIP3    H252190   2.702   5.012  11.434 -0.6267 -0.7249 -1.2690
10259TIP3   OH252191   6.019   2.274   4.422 -0.2380  0.0603  0.1744
10259TIP3    H152192   5.972   2.209   4.369  1.1043 -2.0875  1.5434
10259TIP3    H252193   5.974   2.273   4.506  0.8191 -0.3207  0.7371
10260TIP3   OH252194   4.417   6.515   2.379  0.1160 -0.3515  0.0271
10260TIP3    H152195   4.493   6.477   2.334 -0.6280  0.8047 -2.2922
10260TIP3    H252196   4.454   6.588   2.430  0.6755 -0.3437 -0.3904
10261TIP3   OH252197   5.940   2.110   0.647 -0.1371  0.1223 -0.5542
10261TIP3    H152198   5.943   2.067   0.561  0.9766  0.7017 -0.8248
10261TIP3    H252199   5.895   2.193   0.631 -0.3465  0.0221 -0.4830
10262TIP3   OH252200   0.661   3.611   0.744  0.2989  0.0664  0.1586
10262TIP3    H152201   0.665   3.533   0.687 -1.1403  0.5371 -0.5902
10262TIP3    H252202   0.682   3.577   0.831  1.6226 -0.8227 -0.4761
10263TIP3   OH252203   4.291   3.871   6.182  0.0728  0.1580  0.1758
10263TIP3    H152204   4.281   3.961   6.214 -0.0074 -0.1208  0.9447
10263TIP3    H252205   4.256   3.874   6.092  0.4495  0.9822  0.0493
10264TIP3   OH252206   5.493   5.014  12.276  0.2322 -0.1933  0.2574
10264TIP3    H152207   5.428   5.065  12.228 -0.0136 -2.7907 -2.3628
10264TIP3    H252208   5.447   4.983  12.354 -0.7553  0.4856 -0.0498
10265TIP3   OH252209   4.700   3.807  10.632  0.3344  0.6793  0.2081
10265TIP3    H152210   4.656   3.789  10.549 -1.2222  0.5538  1.0337
10265TIP3    H252211   4.738   3.894  10.621  0.5532  0.4643 -0.7940
10266TIP3   OH252212   1.994   4.227   1.438  0.3760 -0.1896 -1.2789
10266TIP3    H152213   2.084   4.206   1.461  0.1419 -0.7900 -0.9163
10266TIP3    H252214   1.940   4.167   1.489 -0.2181 -0.1457 -1.8348
10267TIP3   OH252215   6.746   3.160  14.467 -0.7086  0.1685 -0.3381
10267TIP3    H152216   6.772   3.204  14.548 -2.1063 -0.6250  0.5432
10267TIP3    H252217   6.807   3.086  14.460 -0.1069  0.6627 -0.4131
10268TIP3   OH252218   0.800   3.827  12.835  0.4034 -0.0285  0.3402
10268TIP3    H152219   0.785   3.921  12.828  1.2949  0.4087  3.6147
10268TIP3    H252220   0.768   3.803  12.922  1.4285 -2.5002  0.0971
10269TIP3   OH252221   1.551   0.043  15.327  0.0364  0.0741 -0.4339
10269TIP3    H152222   1.611  -0.032  15.325  0.0269  0.0705 -0.6421
10269TIP3    H252223   1.570   0.087  15.409  0.9536  0.5815 -0.9044
10270TIP3   OH252224   4.764   0.618  11.785 -0.2378 -0.0072 -0.3374
10270TIP3    H152225   4.800   0.650  11.868  0.0787  0.8465 -0.8052
10270TIP3    H252226   4.822   0.545  11.761  0.2509  0.3654 -0.2995
10271TIP3   OH252227   5.180   0.217   5.192 -0.1263 -0.4072 -0.0512
10271TIP3    H152228   5.180   0.139   5.248  0.0452  0.2247  0.8390
10271TIP3    H252229   5.124   0.280   5.239 -1.6566 -0.5882 -1.5909
10272TIP3   OH252230   0.802   4.328  12.038  0.6925  0.4809  0.2677
10272TIP3    H152231   0.834   4.301  11.951  0.4515 -0.2497  0.3981
10272TIP3    H252232   0.798   4.423  12.033  1.9499  0.5344 -0.0777
10273TIP3   OH252233   1.820   0.557  12.692 -0.3501  0.4396  0.1570
10273TIP3    H152234   1.880   0.482  12.697  0.1233  0.7914 -0.1570
10273TIP3    H252235   1.776   0.558  12.777 -1.1413 -0.8268 -0.2265
10274TIP3   OH252236   6.058   0.543  15.660 -0.5025 -0.2167  0.7696
10274TIP3    H152237   6.080   0.535  15.567  0.2467  2.8946  0.6422
10274TIP3    H252238   6.142   0.545  15.705 -0.8158  0.3548  1.3353
10275TIP3   OH252239   5.098   0.562   0.743  0.5921  0.3308 -0.0746
10275TIP3    H152240   5.110   0.596   0.655  0.6910 -0.1173 -0.2362
10275TIP3    H252241   5.025   0.499   0.735  0.3062  0.6164  0.2504
10276TIP3   OH252242   3.682   1.068   2.524 -0.3632  0.2824 -0.2918
10276TIP3    H152243   3.770   1.048   2.492  0.0973  1.4553  0.2327
10276TIP3    H252244   3.656   1.147   2.476 -1.1379 -0.0473 -0.4376
10277TIP3   OH252245   1.769   3.187  15.516  0.2496 -0.0978  0.2292
10277TIP3    H152246   1.771   3.221  15.427 -1.3377 -1.5407 -0.3856
10277TIP3    H252247   1.691   3.131  15.519 -0.7009  1.2414  2.9861
10278TIP3   OH252248   5.789   4.978  13.855  0.0401  0.2058  0.5724
10278TIP3    H152249   5.779   4.883  13.851  0.5482  0.2054 -1.4349
10278TIP3    H252250   5.752   5.009  13.772  0.0107  1.7471  1.1533
10279TIP3   OH252251   0.343   3.435   4.253 -0.6892  0.1297  0.9773
10279TIP3    H152252   0.265   3.476   4.292  0.3438  0.8632  2.3327
10279TIP3    H252253   0.336   3.343   4.277 -1.0598  0.2236  1.2392
10280TIP3   OH252254   6.680   2.522  14.444  0.2596  0.4652  0.5786
10280TIP3    H152255   6.733   2.442  14.445  0.6623  0.7321  0.5304
10280TIP3    H252256   6.593   2.493  14.418  0.8380  0.3165 -1.2233
10281TIP3   OH252257   4.188   1.572  14.620  0.6871 -0.1530 -0.5376
10281TIP3    H152258   4.213   1.656  14.583  1.6311  0.0253  0.4709
10281TIP3    H252259   4.093   1.578  14.633  1.0331  1.5150  1.3967
10282TIP3   OH252260   6.496   0.969  13.310 -0.0131 -0.1972 -0.5641
10282TIP3    H152261   6.449   0.934  13.386 -0.6280  0.2176 -0.7496
10282TIP3    H252262   6.435   0.960  13.237  1.4128 -2.6893 -1.4927
10283TIP3   OH252263   1.252   5.545   2.804  0.1009  0.1259 -0.3232
10283TIP3    H152264   1.179   5.549   2.742 -0.2117 -1.4155 -0.0828
10283TIP3    H252265   1.214   5.575   2.887 -0.0232  0.2228 -0.4148
10284TIP3   OH252266   4.734   5.259  13.142  0.1226  0.0670  0.5048
10284TIP3    H152267   4.673   5.186  13.149 -1.5458  1.5361  2.1072
10284TIP3    H252268   4.749   5.286  13.232  3.3458 -0.3794  0.1349
10285TIP3   OH252269   2.485   1.932   0.878  0.0619 -0.2916 -0.0338
10285TIP3    H152270   2.441   1.902   0.957  1.6360  0.4059  1.1280
10285TIP3    H252271   2.546   1.999   0.909 -0.6148  1.3249 -2.0619
10286TIP3   OH252272   1.488   0.842   3.914  0.7123  0.5654 -0.1962
10286TIP3    H152273   1.489   0.792   3.832  1.1666 -0.8783  0.6755
10286TIP3    H252274   1.403   0.823   3.953  1.1639 -0.1022  0.4784
10287TIP3   OH252275   1.188   6.043   5.887 -0.3299 -0.0506 -0.0222
10287TIP3    H152276   1.259   6.099   5.920 -0.8572 -0.4232  1.8347
10287TIP3    H252277   1.232   5.974   5.839  0.4792  0.5183 -0.1138
10288TIP3   OH252278   4.197   1.654   2.240 -0.1612 -1.0011 -0.0614
10288TIP3    H152279   4.111   1.696   2.241  0.5390  0.4362  0.4670
10288TIP3    H252280   4.247   1.698   2.309  1.1713 -1.4444 -0.7204
10289TIP3   OH252281   1.951   0.997   6.455 -0.4873 -0.8136 -0.4038
10289TIP3    H152282   1.892   0.977   6.382  0.2672 -0.9717 -0.9796
10289TIP3    H252283   1.893   1.025   6.526 -1.1841  0.3320 -1.3911
10290TIP3   OH252284   0.554   0.910   2.476  0.2692  0.1248  0.8661
10290TIP3    H152285   0.588   0.844   2.416  1.3526 -2.3111  4.0724
10290TIP3    H252286   0.469   0.875   2.504 -0.6168  1.6580  0.2034
10291TIP3   OH252287   0.954   5.188   2.836 -0.0685 -0.4130 -0.4044
10291TIP3    H152288   0.931   5.217   2.748  1.2392  1.1941 -0.2600
10291TIP3    H252289   0.970   5.270   2.884 -1.9673 -1.2223  1.6668
10292TIP3   OH252290   5.118   0.647   1.401  0.6270  0.2670  0.6867
10292TIP3    H152291   5.197   0.635   1.453  0.1527  1.1913  1.6440
10292TIP3    H252292   5.148   0.688   1.319  1.4477 -1.7419 -0.0440
10293TIP3   OH252293   4.054   0.448  16.364 -0.3333 -0.0941  0.0603
10293TIP3    H152294   4.122   0.452  16.297 -1.2744  0.1140 -0.9015
10293TIP3    H252295   4.097   0.478  16.444  0.4910  0.8040 -0.7074
10294TIP3   OH252296   1.486   6.465  15.316 -0.0584  0.2820 -0.7909
10294TIP3    H152297   1.558   6.481  15.376 -0.8154  2.0720 -0.3320
10294TIP3    H252298   1.417   6.426  15.369  0.4871 -1.2839 -1.2007
10295TIP3   OH252299   6.417   4.624  14.829 -0.5498 -0.2020 -0.0111
10295TIP3    H152300   6.360   4.699  14.846 -2.2239 -1.1195 -1.4494
10295TIP3    H252301   6.372   4.574  14.761  0.8697 -2.1637  0.4359
10296TIP3   OH252302   5.596   2.519   3.267 -0.6619 -0.2187 -0.1287
10296TIP3    H152303   5.578   2.506   3.360 -0.9859  0.7491 -0.0422
10296TIP3    H252304   5.652   2.596   3.264  0.0534 -0.7543 -0.6849
10297TIP3   OH252305   3.241   1.702   0.845  0.0175  0.1302  0.0907
10297TIP3    H152306   3.212   1.698   0.753  0.4528  0.9514 -0.0853
10297TIP3    H252307   3.306   1.632   0.852  1.0490  0.9796 -0.6244
10298TIP3   OH252308   1.723   2.756   3.222 -0.1944  0.4005 -0.0841
10298TIP3    H152309   1.802   2.710   3.249 -0.0186  0.7644  0.0363
10298TIP3    H252310   1.756   2.833   3.175 -0.4644  1.0689  0.8201
10299TIP3   OH252311   4.809   1.341   0.085  0.0750  0.7170 -0.0602
10299TIP3    H152312   4.837   1.344   0.177  0.3899 -2.2192  0.0008
10299TIP3    H252313   4.855   1.265   0.049 -2.9644 -0.4839 -1.6176
10300TIP3   OH252314   3.224   3.940  12.068  0.4045  0.3343  0.5110
10300TIP3    H152315   3.208   3.898  11.984  0.6306  1.3813 -0.0751
10300TIP3    H252316   3.317   3.964  12.065  0.1777  1.2476  0.6498
10301TIP3   OH252317   1.641   3.114  13.061  1.1696 -0.1689  0.2624
10301TIP3    H152318   1.628   3.071  12.977 -0.1550 -1.5692  1.1579
10301TIP3    H252319   1.676   3.045  13.118  0.2593  0.2629  1.3632
10302TIP3   OH252320   5.204   5.473  11.744 -0.2076  0.5137  0.3893
10302TIP3    H152321   5.252   5.470  11.826  1.2626  0.9334 -0.4337
10302TIP3    H252322   5.258   5.528  11.687 -1.8313  1.2417 -0.4559
10303TIP3   OH252323   2.681   5.662  14.533  0.5764 -0.1003  0.0051
10303TIP3    H152324   2.650   5.611  14.458 -0.7308 -1.4428  1.4191
10303TIP3    H252325   2.605   5.669  14.591  1.4000  1.4191  0.9461
10304TIP3   OH252326   0.303   2.868  10.642 -0.5248  0.3177  0.2489
10304TIP3    H152327   0.218   2.826  10.651 -1.0695  1.0473 -1.4584
10304TIP3    H252328   0.322   2.902  10.730 -1.4169 -0.9109  0.9279
10305TIP3   OH252329   1.784   0.947   0.156  0.4099  0.1910 -0.5033
10305TIP3    H152330   1.697   0.987   0.163 -0.6728 -2.1254 -0.1756
10305TIP3    H252331   1.778   0.891   0.078  2.1875  1.3285 -1.4986
10306TIP3   OH252332   5.102   5.495   3.906  0.2044 -0.2768 -0.1480
10306TIP3    H152333   5.021   5.454   3.875  0.1515 -0.9789  0.8849
10306TIP3    H252334   5.128   5.553   3.835  0.1402 -1.9160 -1.5321
10307TIP3   OH252335   6.253   6.630   1.985  0.1992 -0.7848  0.2876
10307TIP3    H152336   6.216   6.718   1.979 -0.8090 -1.3614 -2.5864
10307TIP3    H252337   6.347   6.644   1.993 -0.0201  0.5681  0.7015
10308TIP3   OH252338   3.664   3.166   3.633 -0.1077 -0.4742 -0.0570
10308TIP3    H152339   3.644   3.258   3.615 -1.0387  0.0482  3.3122
10308TIP3    H252340   3.760   3.162   3.632 -0.0729  0.3679 -0.9564
10309TIP3   OH252341   0.858   2.731   2.211  0.2882  0.2360 -0.3123
10309TIP3    H152342   0.890   2.641   2.220 -1.6256 -0.6776 -2.1873
10309TIP3    H252343   0.844   2.742   2.117 -0.0981  2.2957 -0.0430
10310TIP3   OH252344   5.578   1.906   2.743 -0.2150 -0.2642  0.3353
10310TIP3    H152345   5.495   1.913   2.791 -0.1770  0.7217  0.2714
10310TIP3    H252346   5.607   1.997   2.732  0.8593 -0.5993  0.3264
10311TIP3   OH252347   2.454   5.341  11.150  0.3963 -0.6110  0.0836
10311TIP3    H152348   2.513   5.405  11.190 -1.1491  1.2917 -0.5845
10311TIP3    H252349   2.507   5.263  11.140  2.4949  0.7143  0.4898
10312TIP3   OH252350   4.247   0.495  15.369  0.5998  0.0237 -0.0723
10312TIP3    H152351   4.332   0.475  15.407  0.3385 -0.2047  0.3990
10312TIP3    H252352   4.236   0.589  15.381 -0.0982 -0.2692  1.7026
10313TIP3   OH252353   3.612   0.688   6.611 -0.1162  0.6073  0.1382
10313TIP3    H152354   3.545   0.657   6.549  0.6616  0.9047 -0.8622
10313TIP3    H252355   3.634   0.610   6.662  1.8309 -0.5419 -2.3750
10314TIP3   OH252356   0.322   5.384   0.015 -0.3956 -0.0639  0.1578
10314TIP3    H152357   0.363   5.367  -0.070 -1.7858  0.0761 -0.5558
10314TIP3    H252358   0.347   5.475   0.036 -0.4116  0.0486 -0.3094
10315TIP3   OH252359   3.296   1.844  12.182  0.0218 -0.3933 -0.8771
10315TIP3    H152360   3.361   1.912  12.197  0.2657 -0.4551 -1.6843
10315TIP3    H252361   3.341   1.762  12.203 -0.6395 -0.2288  1.3154
10316TIP3   OH252362   2.544   6.660   3.197  0.2290 -0.0547  0.0457
10316TIP3    H152363   2.451   6.678   3.206  0.8030  2.3147  1.7118
10316TIP3    H252364   2.585   6.747   3.194  2.5094 -1.0635  1.0255
10317TIP3   OH252365   5.327   4.839  11.772 -0.6505 -0.3010 -0.4767
10317TIP3    H152366   5.234   4.819  11.784 -0.9809  0.3687 -1.8019
10317TIP3    H252367   5.346   4.903  11.841 -1.9539  1.8506 -2.0390
10318TIP3   OH252368   0.013   1.288  15.252  0.2708 -0.3412 -0.0161
10318TIP3    H152369  -0.053   1.236  15.206 -1.9235  0.7427  1.7788
10318TIP3    H252370  -0.038   1.340  15.314  2.8680  0.4312  1.5082
10319TIP3   OH252371   5.560   0.353   3.008  0.4098 -0.7387 -0.1932
10319TIP3    H152372   5.618   0.383   2.938 -0.5250 -0.3720 -0.8272
10319TIP3    H252373   5.528   0.433   3.048  0.4604 -0.9427  0.2609
10320TIP3   OH252374   0.028   2.882   2.785  0.1487  0.1463 -0.7810
10320TIP3    H152375   0.019   2.815   2.717  1.6444  1.4215 -2.2750
10320TIP3    H252376  -0.059   2.921   2.792 -0.7987 -2.0323  0.2417
10321TIP3   OH252377   4.600   2.279   1.039  0.3280 -0.5509  0.1555
10321TIP3    H152378   4.667   2.269   0.971 -0.0612  1.1324 -0.4945
10321TIP3    H252379   4.644   2.251   1.119  0.5770 -3.2368 -0.8524
10322TIP3   OH252380   3.387   5.186  11.095  0.3051 -0.3060  0.2901
10322TIP3    H152381   3.383   5.158  11.004 -0.2384  3.4670 -0.9406
10322TIP3    H252382   3.298   5.216  11.116  0.8525  0.5744  1.4613
10323TIP3   OH252383   3.825   6.286   1.675  0.2713  0.3681 -0.0772
10323TIP3    H152384   3.831   6.381   1.679  1.3262  0.4271 -2.5437
10323TIP3    H252385   3.762   6.268   1.605  1.3941 -0.7669 -0.8160
10324TIP3   OH252386   4.764   1.714   5.001  0.6896  0.7672  0.2747
10324TIP3    H152387   4.793   1.759   5.081  2.6730  1.8124 -0.9903
10324TIP3    H252388   4.770   1.781   4.933  0.4656 -0.5340 -1.0367
10325TIP3   OH252389   5.564   2.044   0.590 -0.7068  0.2952  0.9312
10325TIP3    H152390   5.529   2.129   0.562  2.4343  1.2018 -0.4656
10325TIP3    H252391   5.559   2.047   0.686 -3.5581  0.7398  0.7916
10326TIP3   OH252392   4.145   5.664   1.241 -0.3946  0.3987  0.4392
10326TIP3    H152393   4.070   5.710   1.278 -0.1475  1.3450 -0.2058
10326TIP3    H252394   4.176   5.721   1.171 -0.8306 -1.3384 -1.2001
10327TIP3   OH252395   3.329   1.788   3.818 -0.0898 -0.0467 -0.7812
10327TIP3    H152396   3.300   1.880   3.822 -0.2150 -0.1712  1.2365
10327TIP3    H252397   3.369   1.771   3.903  0.5654 -1.6796 -1.3935
10328TIP3   OH252398   4.201   4.148  10.842 -0.5252  0.1921  0.2125
10328TIP3    H152399   4.142   4.073  10.830 -0.2942  0.0924 -0.3028
10328TIP3    H252400   4.264   4.140  10.771 -0.5537  0.9372  0.1065
10329TIP3   OH252401   3.540   1.151  11.533  0.2233 -0.0657 -0.2066
10329TIP3    H152402   3.633   1.140  11.553 -0.0059 -0.2874  0.7868
10329TIP3    H252403   3.502   1.064  11.546 -0.7070  0.6968  2.7382
10330TIP3   OH252404   2.274   2.344  15.719  0.5537  0.6881  0.0302
10330TIP3    H152405   2.199   2.378  15.768 -1.1711  0.3498 -2.2621
10330TIP3    H252406   2.307   2.271  15.772 -1.5145  0.0646  0.5178
10331TIP3   OH252407   3.419   0.141   0.860  0.5937  0.2908 -0.0045
10331TIP3    H152408   3.467   0.220   0.886  0.3969 -0.3510  2.3437
10331TIP3    H252409   3.342   0.139   0.916  0.6983 -1.6859  0.1154
10332TIP3   OH252410   2.768   3.003   6.092  0.5660 -0.1953  0.2914
10332TIP3    H152411   2.681   3.042   6.104 -0.4495 -1.6088 -2.1824
10332TIP3    H252412   2.820   3.072   6.052 -0.3878 -0.4134 -1.3407
10333TIP3   OH252413   5.606   4.163  13.867  0.2354 -0.0994  0.8234
10333TIP3    H152414   5.548   4.090  13.843  0.7684 -0.3646  0.3229
10333TIP3    H252415   5.694   4.130  13.848  0.3982  1.1461 -0.6346
10334TIP3   OH252416   4.673   4.178  12.960  0.3596  0.0592 -0.3714
10334TIP3    H152417   4.673   4.092  12.917 -0.6202 -0.4729  0.6672
10334TIP3    H252418   4.649   4.159  13.051 -1.6670  1.6328 -0.5440
10335TIP3   OH252419   5.506   4.881  16.577  0.5162  0.4159  0.7365
10335TIP3    H152420   5.546   4.797  16.555  1.3803  0.8250  0.7258
10335TIP3    H252421   5.428   4.858  16.627  0.2611 -0.4138 -0.0430
10336TIP3   OH252422   6.025   1.744   3.338 -0.4351  0.4314 -0.5595
10336TIP3    H152423   6.033   1.725   3.432 -2.3827 -0.1448 -0.4823
10336TIP3    H252424   6.088   1.685   3.296 -0.9289 -0.7112  0.2646
10337TIP3   OH252425   1.963   0.180   4.477  0.0032 -0.2891 -0.7223
10337TIP3    H152426   1.910   0.192   4.556  0.4828 -1.1982 -0.2634
10337TIP3    H252427   1.902   0.148   4.411 -0.7869  2.2309 -1.2565
10338TIP3   OH252428   0.804   1.547   5.110  0.0700  0.2849  0.0879
10338TIP3    H152429   0.891   1.510   5.093 -0.2202 -0.8454  0.9644
10338TIP3    H252430   0.810   1.580   5.200  0.0817  1.6736 -0.4157
10339TIP3   OH252431   0.549   4.248  12.410 -0.3985 -0.3606  0.2714
10339TIP3    H152432   0.546   4.341  12.389 -1.7155 -0.2426  0.9341
10339TIP3    H252433   0.546   4.204  12.325  0.6123  0.1921 -0.0631
10340TIP3   OH252434   3.004   1.595  12.361  0.4095 -0.0950  0.9499
10340TIP3    H152435   3.020   1.689  12.350 -1.3911  0.2369  1.0125
10340TIP3    H252436   3.080   1.553  12.320 -0.3050  1.3163 -1.9821
10341TIP3   OH252437   0.956   4.814   6.069  0.1513 -0.0259  0.1682
10341TIP3    H152438   1.033   4.825   6.126  1.6035  1.7786 -2.0369
10341TIP3    H252439   0.888   4.867   6.111  0.6274 -0.1976  1.1880
10342TIP3   OH252440   6.761   3.071   1.523  0.2493 -0.7377 -0.0628
10342TIP3    H152441   6.714   3.012   1.464  0.7564 -0.8383 -0.3666
10342TIP3    H252442   6.848   3.080   1.484  0.9341 -1.6564  1.2257
10343TIP3   OH252443   6.586   4.422  11.505  0.1129 -0.4169 -0.1140
10343TIP3    H152444   6.576   4.415  11.600 -2.2098  1.4038 -0.1939
10343TIP3    H252445   6.681   4.427  11.492  0.5104 -1.3847  2.0229
10344TIP3   OH252446   2.407   5.184  14.243 -0.6452 -0.2425  0.5419
10344TIP3    H152447   2.317   5.152  14.240 -0.1372 -1.6260 -0.2309
10344TIP3    H252448   2.442   5.151  14.326 -0.4205 -0.8649  0.1984
10345TIP3   OH252449   0.175   2.582   4.122  0.1882 -0.8258 -0.0918
10345TIP3    H152450   0.178   2.603   4.216 -0.9383 -0.7484 -0.0673
10345TIP3    H252451   0.214   2.495   4.116 -1.2860 -1.5691  0.6838
10346TIP3   OH252452   6.344   1.459   6.155  0.6266 -0.4288  0.1198
10346TIP3    H152453   6.286   1.480   6.229 -0.5226 -3.0503  0.0189
10346TIP3    H252454   6.416   1.410   6.195  0.8351 -0.4477 -0.2777
10347TIP3   OH252455   5.211   5.730   1.115  0.8633 -0.4814  0.1619
10347TIP3    H152456   5.214   5.639   1.087 -0.1323 -0.1077 -1.1962
10347TIP3    H252457   5.168   5.728   1.200 -0.8336 -1.0855 -0.7041
10348TIP3   OH252458   4.572   3.253   0.641 -0.1966 -0.5459 -0.1043
10348TIP3    H152459   4.627   3.300   0.579 -0.4778 -1.3064 -0.9417
10348TIP3    H252460   4.629   3.240   0.718 -0.3903  1.8675  0.4766
10349TIP3   OH252461   6.731   4.646   5.981 -0.1375  0.0440 -1.1852
10349TIP3    H152462   6.668   4.576   5.966  0.0667 -0.0166 -1.7964
10349TIP3    H252463   6.685   4.709   6.036 -0.0621 -0.9453  0.0484
10350TIP3   OH252464   2.861   3.689   5.651 -0.0970 -0.4048 -0.5529
10350TIP3    H152465   2.920   3.759   5.681 -0.1777 -1.3269  1.9296
10350TIP3    H252466   2.774   3.728   5.656  0.0792  0.1901 -1.8911
10351TIP3   OH252467   3.427   6.703   4.302  0.1304  0.9186  0.0055
10351TIP3    H152468   3.388   6.698   4.389 -1.6170 -0.2065 -0.8314
10351TIP3    H252469   3.514   6.740   4.318 -0.4606  1.4865  2.1297
10352TIP3   OH252470   5.157   3.479   4.843 -0.7327 -0.2315  0.2650
10352TIP3    H152471   5.197   3.466   4.757  0.5087  0.7397  0.6873
10352TIP3    H252472   5.064   3.486   4.825 -0.4798 -0.0355 -1.0009
10353TIP3   OH252473   0.871   1.505   0.298  0.1572 -0.2530 -0.1023
10353TIP3    H152474   0.829   1.489   0.382  1.2719 -0.7996  0.3599
10353TIP3    H252475   0.958   1.467   0.307  0.0157 -1.0155 -1.7693
10354TIP3   OH252476   5.077   5.677   0.206  0.4286 -0.0725  0.2730
10354TIP3    H152477   5.045   5.679   0.116 -1.2109 -0.6405  0.8192
10354TIP3    H252478   5.151   5.737   0.207 -1.2846  2.1182 -0.8059
10355TIP3   OH252479   3.276   2.927  11.643 -0.0802 -0.0654  0.2506
10355TIP3    H152480   3.210   2.936  11.712  0.1536 -1.5538  0.6921
10355TIP3    H252481   3.268   2.836  11.614  1.3857 -0.1011 -0.0818
10356TIP3   OH252482   3.661   1.254  14.430 -0.7699 -0.0753  0.0911
10356TIP3    H152483   3.587   1.202  14.460  0.5879 -2.2185 -0.1781
10356TIP3    H252484   3.717   1.192  14.382  2.7457  0.7597  2.8709
10357TIP3   OH252485   4.350   0.005   0.944  0.4316  0.2726  0.0857
10357TIP3    H152486   4.284  -0.011   1.013  1.4731 -0.0007  1.0318
10357TIP3    H252487   4.379   0.094   0.960  0.2813  0.3974 -0.3431
10358TIP3   OH252488   2.410   0.057   2.508 -0.2311  0.0162  0.5320
10358TIP3    H152489   2.409   0.006   2.427 -0.8412  1.3516 -0.3125
10358TIP3    H252490   2.425   0.147   2.480  0.5788  0.3549  1.9896
10359TIP3   OH252491   6.378   0.150   0.720  0.4294 -0.0417  0.4417
10359TIP3    H152492   6.462   0.140   0.764  0.8769  1.1357 -0.1147
10359TIP3    H252493   6.395   0.123   0.630  0.3767  0.7772  0.1788
10360TIP3   OH252494   4.492   1.899   0.766 -0.1148  0.1418  0.3731
10360TIP3    H152495   4.437   1.976   0.781 -1.1386 -0.3463 -0.7400
10360TIP3    H252496   4.572   1.916   0.814 -0.5930  1.6190  0.6578
10361TIP3   OH252497   5.441   2.388  17.006 -0.6111 -0.0844  0.3128
10361TIP3    H152498   5.365   2.365  16.953  0.5668  1.1818 -2.0268
10361TIP3    H252499   5.495   2.442  16.948  1.9180 -0.6777  2.0248
10362TIP3   OH252500   3.768   4.844  10.838  0.7452  0.4231  0.0854
10362TIP3    H152501   3.782   4.771  10.778  0.3474  1.3629 -1.1901
10362TIP3    H252502   3.676   4.868  10.825 -0.2438 -1.3352  3.3648
10363TIP3   OH252503   3.406   1.597   3.353 -0.4235  0.5112 -0.2112
10363TIP3    H152504   3.403   1.554   3.438  0.7026  0.3060 -0.2749
10363TIP3    H252505   3.401   1.690   3.373 -0.3704  0.4541  0.0683
10364TIP3   OH252506   4.134   0.487   2.461  0.1028  0.3986  0.1539
10364TIP3    H152507   4.073   0.435   2.513  0.5853 -0.8821 -0.5473
10364TIP3    H252508   4.216   0.483   2.509 -0.2810  1.9555  0.9905
10365TIP3   OH252509   3.695   2.916  11.748  0.3347 -0.2132 -0.0477
10365TIP3    H152510   3.723   2.826  11.768 -0.3676 -0.4249  0.0061
10365TIP3    H252511   3.763   2.971  11.788 -0.4758 -0.6543  2.0467
10366TIP3   OH252512   3.252   6.302  14.125  0.4442 -0.4421  0.1889
10366TIP3    H152513   3.223   6.393  14.125  0.7284 -0.3469  0.7367
10366TIP3    H252514   3.171   6.251  14.128  0.3299 -0.1777  1.8293
10367TIP3   OH252515   5.888   4.952   1.037  0.1923 -0.0134 -0.0156
10367TIP3    H152516   5.950   4.903   0.982  1.1214  0.8014  0.3051
10367TIP3    H252517   5.885   5.039   0.997 -1.7604 -0.4198 -0.8195
10368TIP3   OH252518   6.709   0.232  16.478  0.2236  0.6248 -0.0106
10368TIP3    H152519   6.763   0.308  16.456 -0.5686  1.2638  0.2161
10368TIP3    H252520   6.669   0.255  16.562 -1.7080  0.8946 -0.9641
10369TIP3   OH252521   3.746   3.498  10.431 -0.8030  0.1435 -0.1190
10369TIP3    H152522   3.675   3.551  10.466 -0.6723 -0.4733  1.0959
10369TIP3    H252523   3.715   3.408  10.437 -0.2218 -0.0745 -0.2941
10370TIP3   OH252524   1.406   6.039   4.489 -0.2623  0.0987 -0.0375
10370TIP3    H152525   1.370   5.953   4.470 -0.8988  0.0457  1.3520
10370TIP3    H252526   1.403   6.085   4.405 -0.2462 -1.1015 -0.7068
10371TIP3   OH252527   1.574   0.943  14.870 -0.0802 -0.0463 -0.8230
10371TIP3    H152528   1.488   0.902  14.858 -0.5048  0.8175 -0.8165
10371TIP3    H252529   1.618   0.931  14.786  0.2075 -1.4330 -0.4751
10372TIP3   OH252530   2.356   6.295  17.005 -0.2848  0.2451  0.4288
10372TIP3    H152531   2.329   6.387  16.998 -2.0070 -0.1793  1.2898
10372TIP3    H252532   2.402   6.290  17.090 -0.8085  0.1558  0.7056
10373TIP3   OH252533   3.035   1.705   3.137 -0.8808  0.0635  0.2515
10373TIP3    H152534   3.122   1.740   3.121 -1.1241  1.5601  2.0584
10373TIP3    H252535   3.047   1.611   3.144  0.4076  0.1598 -0.6244
10374TIP3   OH252536   1.112   1.952  16.648 -0.3113  0.1162  0.0476
10374TIP3    H152537   1.074   1.892  16.712 -0.4560  1.2340  1.0277
10374TIP3    H252538   1.206   1.945  16.662 -0.3751  1.0401  1.0376
10375TIP3   OH252539   6.675   5.377   1.859  0.0336  0.3547  0.0149
10375TIP3    H152540   6.591   5.416   1.886  0.1242  1.8170 -1.6693
10375TIP3    H252541   6.734   5.452   1.852  2.2428 -0.9486  3.7204
10376TIP3   OH252542   5.387   5.339   6.004  0.2325  0.7892  0.2175
10376TIP3    H152543   5.316   5.387   5.961 -1.3974 -0.6935  1.1860
10376TIP3    H252544   5.417   5.397   6.074 -1.9931  0.2635  1.6466
10377TIP3   OH252545   5.439   1.784   3.091 -0.2757  0.0002 -0.0987
10377TIP3    H152546   5.397   1.726   3.027 -2.9688  0.7050  0.9626
10377TIP3    H252547   5.425   1.872   3.056  1.3907  0.2038 -0.3103
10378TIP3   OH252548   1.567   3.247  14.610 -0.1866 -0.1337  0.6100
10378TIP3    H152549   1.625   3.213  14.541  1.0316 -0.4206  1.7528
10378TIP3    H252550   1.514   3.313  14.566  1.5711  0.7230 -0.2951
10379TIP3   OH252551   6.033   0.023  12.960 -0.3435  0.3014  0.1162
10379TIP3    H152552   6.036   0.117  12.942 -0.9785  0.3713  0.3615
10379TIP3    H252553   6.077  -0.018  12.885 -0.7451  0.7440 -0.3605
10380TIP3   OH252554   5.785   2.997   3.780  0.5014 -0.0811  0.0907
10380TIP3    H152555   5.845   2.941   3.733  1.5387 -1.2463  2.7219
10380TIP3    H252556   5.825   3.009   3.866 -1.6194  1.4886  0.9097
10381TIP3   OH252557   0.162   0.596   1.248 -0.1552 -0.2541 -0.0976
10381TIP3    H152558   0.131   0.527   1.189  0.3168 -1.3988  0.9499
10381TIP3    H252559   0.082   0.641   1.276 -0.2251  1.7351 -3.2534
10382TIP3   OH252560   6.070   4.464   3.831  0.2423 -0.0535  0.0599
10382TIP3    H152561   6.151   4.442   3.784 -0.3950  0.2750 -1.1998
10382TIP3    H252562   6.074   4.410   3.910  0.2961 -2.2669 -1.4118
10383TIP3   OH252563   6.354   4.942  15.583  0.2759  0.3289  0.4952
10383TIP3    H152564   6.300   4.865  15.602 -0.4689  0.2525 -1.8067
10383TIP3    H252565   6.443   4.914  15.605 -0.2479 -0.4491  1.7170
10384TIP3   OH252566   0.883   2.491  13.056 -0.6671  0.0740  0.1892
10384TIP3    H152567   0.923   2.571  13.021  1.4959 -0.0997  2.1549
10384TIP3    H252568   0.957   2.437  13.083 -2.1740 -1.0070  2.2911
10385TIP3   OH252569   1.867   3.819  11.052  0.3500 -0.0884 -0.1159
10385TIP3    H152570   1.952   3.797  11.014  0.3686  2.4370 -1.6796
10385TIP3    H252571   1.804   3.807  10.981 -0.0159  1.9235 -0.1613
10386TIP3   OH252572   1.154   0.960  12.607 -0.0000 -0.2980  0.3175
10386TIP3    H152573   1.170   0.953  12.513  0.6576 -0.4121  0.4368
10386TIP3    H252574   1.080   1.021  12.615  1.3732  1.4915 -0.1694
10387TIP3   OH252575   2.967   2.742   0.021 -0.0168  0.3784 -0.0554
10387TIP3    H152576   2.890   2.760  -0.033 -1.1086 -0.8395  1.0523
10387TIP3    H252577   3.030   2.703  -0.040 -1.0997 -0.6551 -0.5483
10388TIP3   OH252578   6.443   3.333   0.505  0.3638 -0.0860 -0.4705
10388TIP3    H152579   6.503   3.293   0.441 -0.1906 -2.3118  0.3429
10388TIP3    H252580   6.376   3.265   0.520  0.4428  0.4385  2.4073
10389TIP3   OH252581   5.359   2.078   3.273  0.4185  0.2092  0.3539
10389TIP3    H152582   5.310   2.154   3.304 -1.7757 -0.4587 -1.3457
10389TIP3    H252583   5.358   2.085   3.178  0.1159 -1.9521  0.1639
10390TIP3   OH252584   3.902   4.121   1.162  0.2857  0.4477 -0.1736
10390TIP3    H152585   3.950   4.038   1.167  0.6700  0.6191 -0.9384
10390TIP3    H252586   3.815   4.101   1.198  0.6011 -0.1169  0.2731
10391TIP3   OH252587   5.003   5.542   2.805 -0.0547 -0.0631  0.3521
10391TIP3    H152588   5.021   5.500   2.721  1.2303  0.1347  0.5194
10391TIP3    H252589   4.945   5.481   2.850  0.9118 -1.1635  0.1500
10392TIP3   OH252590   5.495   6.596  13.974 -0.3075 -0.2556 -0.1424
10392TIP3    H152591   5.442   6.618  14.050 -1.7850 -0.8052 -0.9760
10392TIP3    H252592   5.496   6.676  13.921 -2.3205 -0.8953 -1.2435
10393TIP3   OH252593   3.805   3.700  15.424 -0.2882  0.2700  0.6948
10393TIP3    H152594   3.733   3.721  15.484  0.0737  0.1553  1.1689
10393TIP3    H252595   3.775   3.621  15.378 -1.1732  1.1630 -0.2976
10394TIP3   OH252596   2.631   5.858   3.196 -0.0086  0.1596  0.1764
10394TIP3    H152597   2.651   5.890   3.108  1.9787 -1.0400  0.1566
10394TIP3    H252598   2.585   5.931   3.238  0.9086  1.5526 -1.1662
10395TIP3   OH252599   6.022   3.639  15.466 -0.0621  0.1329 -0.2564
10395TIP3    H152600   6.040   3.629  15.559 -0.5074  0.5499 -0.1254
10395TIP3    H252601   6.045   3.730  15.447 -0.9273  0.3411 -0.3340
10396TIP3   OH252602   1.225   0.645  11.390  0.0083 -0.1034 -0.0517
10396TIP3    H152603   1.290   0.597  11.339  0.3035 -0.6214  0.7918
10396TIP3    H252604   1.145   0.594  11.381  0.6946 -1.6415  2.0949
10397TIP3   OH252605   5.826   2.208  14.568  0.4524 -0.2009  0.0719
10397TIP3    H152606   5.752   2.206  14.508  0.0194 -1.8779  0.6090
10397TIP3    H252607   5.830   2.119  14.604  0.7904  0.7032  2.4011
10398TIP3   OH252608   3.872   3.001  12.580  0.2523  0.4275 -0.2064
10398TIP3    H152609   3.817   3.049  12.642  0.4135 -0.1881  0.4222
10398TIP3    H252610   3.956   3.047  12.581  1.3513 -1.4958  2.5445
10399TIP3   OH252611   1.371   5.125  13.232  0.3483  0.1680  0.1285
10399TIP3    H152612   1.460   5.158  13.244 -0.4423  1.7625  1.9193
10399TIP3    H252613   1.315   5.194  13.268 -1.6191 -0.7450 -1.1097
10400TIP3   OH252614   5.955   3.982   1.450 -0.2562  0.4912 -0.1377
10400TIP3    H152615   6.002   4.065   1.450 -1.3947  1.1555  0.7757
10400TIP3    H252616   6.023   3.916   1.439  0.4964  1.6026 -2.4208
10401TIP3   OH252617   4.019   3.683   3.445  0.5114 -0.0808 -0.2786
10401TIP3    H152618   4.091   3.623   3.460 -0.7601 -1.1099  1.9178
10401TIP3    H252619   3.960   3.636   3.387 -0.6670 -1.1616  1.7412
10402TIP3   OH252620   5.112   5.453  10.994  0.0883  0.1193  0.5063
10402TIP3    H152621   5.087   5.367  11.028 -0.6608  0.1452  0.0506
10402TIP3    H252622   5.143   5.501  11.070 -0.8127 -0.0915  1.0162
10403TIP3   OH252623   5.673   1.155   5.737  0.0099 -0.0437  0.2166
10403TIP3    H152624   5.652   1.184   5.826  1.8773  2.3448 -0.0669
10403TIP3    H252625   5.709   1.067   5.749 -0.6777 -0.1512  1.6989
10404TIP3   OH252626   5.925   0.148  15.678 -0.3683  0.2673 -0.0631
10404TIP3    H152627   5.925   0.110  15.766  1.0142 -0.8700 -0.5274
10404TIP3    H252628   6.017   0.171  15.662 -0.6436  0.6600 -1.1360
10405TIP3   OH252629   6.233   0.375  14.201  0.4869  0.3210 -0.3388
10405TIP3    H152630   6.214   0.361  14.294 -1.1449  1.6251 -0.4441
10405TIP3    H252631   6.148   0.364  14.159  1.2400 -0.3403 -1.6935
10406TIP3   OH252632   3.286   5.720  17.166  0.0706 -0.1622  0.7426
10406TIP3    H152633   3.374   5.721  17.203  0.8139 -1.1556 -0.9088
10406TIP3    H252634   3.299   5.738  17.073 -1.4610 -0.4346  0.4564
10407TIP3   OH252635   5.721   4.427   4.309 -0.0280  0.2202 -0.3836
10407TIP3    H152636   5.809   4.464   4.314  0.0449  0.0417 -0.3685
10407TIP3    H252637   5.724   4.369   4.233 -0.1074  0.1412 -0.3260
10408TIP3   OH252638   3.013   1.634  14.037 -0.1524 -0.9764  0.2216
10408TIP3    H152639   2.962   1.583  14.101  0.1349 -0.1058  1.1513
10408TIP3    H252640   2.961   1.712  14.022 -0.1673 -1.1306 -0.5464
10409TIP3   OH252641   2.521   2.843   6.216  0.0398  0.2533  0.1970
10409TIP3    H152642   2.550   2.789   6.290  2.0089  2.4476  1.1216
10409TIP3    H252643   2.453   2.899   6.253 -1.3823 -0.9632 -0.5389
10410TIP3   OH252644   5.991   5.330  15.564  0.4130  0.5085  0.4009
10410TIP3    H152645   6.047   5.272  15.616 -0.7566 -1.3319 -0.3190
10410TIP3    H252646   5.903   5.313  15.597 -0.2774 -0.2044 -1.7062
10411TIP3   OH252647   5.360   6.413  16.427 -0.8880  0.3689  0.4315
10411TIP3    H152648   5.402   6.485  16.475 -1.9947  0.9482  0.5412
10411TIP3    H252649   5.352   6.445  16.338 -1.8966  0.6069  0.6032
10412TIP3   OH252650   3.759   3.960  15.336  0.0987  0.5468 -0.0673
10412TIP3    H152651   3.786   3.868  15.336 -0.8190  0.2584 -1.6969
10412TIP3    H252652   3.838   4.008  15.360  1.4801 -0.4480 -2.4493
10413TIP3   OH252653   6.317   2.081  13.584  0.3924 -0.4809  0.0924
10413TIP3    H152654   6.257   2.054  13.514 -0.1766  0.5481  0.1764
10413TIP3    H252655   6.261   2.084  13.662  0.8426 -0.7930  0.4289
10414TIP3   OH252656   6.551   1.290  12.172 -0.2239  0.1099  0.3991
10414TIP3    H152657   6.543   1.354  12.101  0.5431  1.7462  1.7461
10414TIP3    H252658   6.614   1.226  12.141 -0.0763  0.6842 -0.4875
10415TIP3   OH252659   1.154   5.999   0.620 -0.3145 -0.0586 -0.1001
10415TIP3    H152660   1.074   5.946   0.613  1.0884 -2.0895 -1.2850
10415TIP3    H252661   1.215   5.959   0.558  1.9053  0.9658  1.3550
10416TIP3   OH252662   2.286   1.549   0.606  0.0073  0.3484 -0.0440
10416TIP3    H152663   2.271   1.496   0.684 -0.1413 -0.6631 -0.7436
10416TIP3    H252664   2.199   1.583   0.582 -0.0361  0.2025 -0.0915
10417TIP3   OH252665   3.944   6.545   1.345  1.0114  0.1718 -0.2491
10417TIP3    H152666   4.032   6.572   1.372  0.4585  1.7548 -0.0091
10417TIP3    H252667   3.885   6.605   1.390 -0.1487 -0.0843 -1.3869
10418TIP3   OH252668   6.405   2.254   1.961 -0.4772  0.8261  0.3088
10418TIP3    H152669   6.389   2.324   1.898 -1.6238  0.1270 -0.2151
10418TIP3    H252670   6.465   2.194   1.916 -0.9075  0.5758  0.0630
10419TIP3   OH252671   2.751   3.048   4.029  0.5032  0.1286  0.1117
10419TIP3    H152672   2.769   3.041   3.935 -2.2472  0.4242 -0.4573
10419TIP3    H252673   2.813   2.986   4.069  1.8411  0.1372 -1.8486
10420TIP3   OH252674   4.392   6.173  16.265 -0.5185  0.1940  0.2162
10420TIP3    H152675   4.411   6.222  16.185  1.0883 -0.9675 -0.1329
10420TIP3    H252676   4.298   6.185  16.278 -0.8630  0.2049 -2.0052
10421TIP3   OH252677   6.027   5.251   1.509 -0.2885  0.3056 -0.2714
10421TIP3    H152678   5.944   5.215   1.476  0.6693 -0.1713 -2.2229
10421TIP3    H252679   6.014   5.345   1.507 -0.5178  0.2624 -1.3614
10422TIP3   OH252680   5.074   3.264  13.973 -0.2674  0.0508  0.0290
10422TIP3    H152681   5.043   3.265  14.064  0.2729  0.2662  0.2144
10422TIP3    H252682   4.996   3.247  13.921 -0.7399  0.8140  0.4769
10423TIP3   OH252683   0.855   2.888  15.495  0.8207  0.0734  0.4692
10423TIP3    H152684   0.930   2.852  15.447  0.6890 -1.2806  1.2517
10423TIP3    H252685   0.893   2.922  15.576  0.7099  0.1511  0.4888
10424TIP3   OH252686   3.406   2.151   4.690  0.3423  0.6507  0.6034
10424TIP3    H152687   3.378   2.116   4.774 -1.0843  0.2659 -0.0259
10424TIP3    H252688   3.469   2.220   4.712  0.0569  0.4806  1.9702
10425TIP3   OH252689   2.491   1.778   6.160  0.1879 -0.1430 -0.3636
10425TIP3    H152690   2.405   1.817   6.176  1.5723  2.6927  0.4765
10425TIP3    H252691   2.540   1.794   6.241  1.1951 -2.6373 -0.4448
10426TIP3   OH252692   5.965   3.288  10.899 -0.4573 -0.0295  0.2575
10426TIP3    H152693   6.034   3.270  10.836  0.5212  1.4717  0.8535
10426TIP3    H252694   5.885   3.294  10.847  0.2522  0.6431 -0.7706
10427TIP3   OH252695   2.679   2.242   3.829 -0.8460 -0.8414  0.5405
10427TIP3    H152696   2.644   2.227   3.917 -2.4304 -1.3153 -0.1421
10427TIP3    H252697   2.653   2.164   3.780  1.3198 -1.2591  0.0077
10428TIP3   OH252698   1.533   5.423   4.768  0.2075 -0.1213 -0.2011
10428TIP3    H152699   1.469   5.418   4.697 -2.2943  0.1516  1.9419
10428TIP3    H252700   1.567   5.334   4.776 -3.7447 -1.5299  1.9757
10429TIP3   OH252701   2.441   4.582  16.399  0.0823  0.0567 -0.3016
10429TIP3    H152702   2.391   4.550  16.323  3.0110 -2.4155 -1.2945
10429TIP3    H252703   2.514   4.630  16.361  0.9408 -0.2110  0.9964
10430TIP3   OH252704   6.358   3.263   0.883  0.1924  0.1341 -0.0737
10430TIP3    H152705   6.290   3.311   0.930 -0.0914 -0.7096  0.3994
10430TIP3    H252706   6.440   3.304   0.911 -0.0786  0.7195 -0.1261
10431TIP3   OH252707   1.069   5.773  11.957 -0.4482 -0.4714 -0.5924
10431TIP3    H152708   0.975   5.764  11.971 -0.6370  0.6120 -1.1106
10431TIP3    H252709   1.098   5.685  11.934 -1.0438 -1.1627  1.1933
10432TIP3   OH252710   1.414   5.045   5.389 -0.3220 -0.3070  0.0078
10432TIP3    H152711   1.327   5.043   5.351  0.0459  0.2609 -0.8618
10432TIP3    H252712   1.449   4.957   5.373  0.1272  0.1621 -1.6769
10433TIP3   OH252713   2.930   5.344   3.463  0.5507  0.3477 -0.3783
10433TIP3    H152714   3.012   5.304   3.492  0.3551 -1.0045 -1.6456
10433TIP3    H252715   2.864   5.308   3.521  1.3058  4.4853  3.3024
10434TIP3   OH252716   4.141   5.118   6.385  0.4031 -0.0737 -0.0610
10434TIP3    H152717   4.121   5.171   6.308  1.5133  2.4099  1.3160
10434TIP3    H252718   4.063   5.064   6.398 -1.1464  1.9199 -0.9177
10435TIP3   OH252719   2.297   3.392  11.521  0.2362 -0.4615  0.0809
10435TIP3    H152720   2.218   3.432  11.558 -0.0289  0.1998 -1.1846
10435TIP3    H252721   2.265   3.330  11.457  0.7340 -0.6729  0.0359
10436TIP3   OH252722   5.699   4.214   5.782 -0.0901 -0.8497 -0.6212
10436TIP3    H152723   5.666   4.193   5.694 -1.7797 -1.6168  0.1749
10436TIP3    H252724   5.748   4.296   5.770  1.2160 -1.8836 -2.5995
10437TIP3   OH252725   0.202   4.495   5.692  0.3751 -0.6064 -0.4401
10437TIP3    H152726   0.136   4.564   5.689  0.8920 -0.0902 -0.1941
10437TIP3    H252727   0.153   4.415   5.709 -0.1478 -0.1657  0.1689
10438TIP3   OH252728   1.861   3.510  10.994 -0.4632  0.2566 -0.4230
10438TIP3    H152729   1.822   3.525  10.908 -1.1806 -1.1109 -0.3421
10438TIP3    H252730   1.950   3.483  10.976 -0.5409  0.2027 -0.7227
10439TIP3   OH252731   2.260   2.433  14.217  0.1223 -0.0480  0.0143
10439TIP3    H152732   2.334   2.376  14.194 -1.2406 -1.4206 -1.0773
10439TIP3    H252733   2.242   2.481  14.136 -1.2377 -0.9356 -0.2161
10440TIP3   OH252734   6.160   2.239   1.343  0.4905  0.0337  0.1312
10440TIP3    H152735   6.210   2.224   1.423  0.6450 -0.6447 -0.0909
10440TIP3    H252736   6.160   2.155   1.298 -2.4311 -0.4779  1.0172
10441TIP3   OH252737   6.203   2.456  10.603  0.3555  0.3436  0.3035
10441TIP3    H152738   6.151   2.379  10.627  0.0394  0.3599 -0.3173
10441TIP3    H252739   6.252   2.428  10.526 -0.7530  1.1740 -0.7145
10442TIP3   OH252740   6.197   3.559   3.232 -0.2052  0.1445 -0.2386
10442TIP3    H152741   6.253   3.635   3.216  0.2021  0.1997  1.3897
10442TIP3    H252742   6.215   3.500   3.159 -0.4982  1.5942 -1.5020
10443TIP3   OH252743   3.676   6.146   0.658 -0.1433 -0.2072 -0.0829
10443TIP3    H152744   3.666   6.241   0.658  2.1721  0.0586  0.0048
10443TIP3    H252745   3.589   6.113   0.681 -0.9891  1.8690 -0.1694
10444TIP3   OH252746   0.801   3.247  10.654  0.2158 -0.2080  0.5918
10444TIP3    H152747   0.839   3.335  10.656  0.2358 -0.2225  1.0157
10444TIP3    H252748   0.802   3.223  10.562 -2.7581  1.5244  0.0487
10445TIP3   OH252749   2.553   4.141  17.214 -0.4578  0.4950 -0.5194
10445TIP3    H152750   2.541   4.085  17.291  0.7023  0.4187 -0.3839
10445TIP3    H252751   2.473   4.193  17.210  0.8612  2.9587  2.7464
10446TIP3   OH252752   3.704   4.514  16.948 -0.2080 -0.1999 -0.0216
10446TIP3    H152753   3.751   4.577  17.003 -0.2173 -0.0981 -0.1311
10446TIP3    H252754   3.701   4.434  17.000 -1.1183  0.2029  0.5380
10447TIP3   OH252755   0.681   5.022  15.722 -0.0435  0.4416 -0.7448
10447TIP3    H152756   0.755   5.031  15.781 -0.3261 -0.6851 -0.1957
10447TIP3    H252757   0.606   5.053  15.772 -0.4919 -1.7182 -0.0135
10448TIP3   OH252758   5.195   2.567   6.045  0.4908 -0.0565  0.5423
10448TIP3    H152759   5.153   2.642   6.088 -0.7839  0.4712 -1.5337
10448TIP3    H252760   5.226   2.602   5.961  2.7449 -1.1053  0.9144
10449TIP3   OH252761   0.696   2.404  15.071 -0.1201  0.3806  0.4338
10449TIP3    H152762   0.757   2.365  15.008 -1.0180  0.6926 -0.6506
10449TIP3    H252763   0.621   2.431  15.018 -2.4376 -2.5106  2.0677
10450TIP3   OH252764   1.157   1.222   4.302 -0.6589  0.0332 -0.0290
10450TIP3    H152765   1.208   1.258   4.374 -1.1714  0.9167 -0.0992
10450TIP3    H252766   1.174   1.280   4.228  0.3404 -1.2129 -0.8036
10451TIP3   OH252767   4.906   2.598  14.763  0.0994  0.5233  0.0147
10451TIP3    H152768   4.927   2.688  14.739  0.4327 -0.1603 -2.3217
10451TIP3    H252769   4.836   2.573  14.703  1.4483 -1.4629 -0.7515
10452TIP3   OH252770   3.530   0.101  16.635 -0.0217  0.2549  0.0059
10452TIP3    H152771   3.597   0.167  16.653  0.4210  0.2320 -1.5147
10452TIP3    H252772   3.484   0.135  16.558  1.3171 -2.0056 -1.8472
10453TIP3   OH252773   6.066   0.933   5.001  0.4151  0.3716 -0.3544
10453TIP3    H152774   5.977   0.924   5.034  0.5802 -2.1056 -0.5323
10453TIP3    H252775   6.056   0.982   4.919 -0.6572  0.9851  0.1257
10454TIP3   OH252776   1.667   2.537   5.482  0.0378  0.1341 -0.2563
10454TIP3    H152777   1.683   2.472   5.414 -0.4266  1.7046 -1.9097
10454TIP3    H252778   1.611   2.493   5.545  0.5086 -1.3638 -0.8759
10455TIP3   OH252779   2.993   3.002   4.159  0.7494  0.3375 -0.2907
10455TIP3    H152780   3.084   3.016   4.185  0.7596  2.0726 -1.2220
10455TIP3    H252781   2.959   3.090   4.142 -0.9022 -0.3513 -0.6306
10456TIP3   OH252782   3.495   2.633  13.494 -0.1848  0.0628 -0.1050
10456TIP3    H152783   3.572   2.671  13.453  0.2103  0.5401  1.0563
10456TIP3    H252784   3.422   2.657  13.436  0.2886  1.1888 -0.2396
10457TIP3   OH252785   4.119   3.663   5.542 -0.6918  0.6595  0.4658
10457TIP3    H152786   4.099   3.752   5.513  2.5558  1.8781  1.7794
10457TIP3    H252787   4.120   3.670   5.638  0.7974 -0.5069  0.5339
10458TIP3   OH252788   3.298   5.530  16.583  0.1931 -0.4251 -0.0568
10458TIP3    H152789   3.364   5.472  16.620  0.2112  0.4859  1.3778
10458TIP3    H252790   3.286   5.598  16.650 -1.6743 -0.2002 -0.5984
10459TIP3   OH252791   4.074   4.543  10.643 -0.4509  0.3338  0.1161
10459TIP3    H152792   4.155   4.521  10.689 -1.2193 -1.5520  0.5962
10459TIP3    H252793   4.103   4.595  10.568  1.1823 -0.1319  0.3893
10460TIP3   OH252794   4.578   4.163  15.122  0.1881  0.1585  0.4010
10460TIP3    H152795   4.494   4.119  15.115  1.0191 -1.3410 -0.3065
10460TIP3    H252796   4.581   4.195  15.212 -0.5046 -1.0580  0.8617
10461TIP3   OH252797   2.111   4.284   5.597 -0.2230  0.7825  0.1217
10461TIP3    H152798   2.199   4.264   5.628  0.8029  3.2087 -1.1065
10461TIP3    H252799   2.098   4.224   5.523  0.9279  1.2921 -0.5130
10462TIP3   OH252800   3.481   0.638  16.832 -0.1215  0.1404 -0.1718
10462TIP3    H152801   3.529   0.650  16.750 -1.3458  1.5329 -0.7106
10462TIP3    H252802   3.430   0.718  16.842 -1.1330 -0.6509  1.1811
10463TIP3   OH252803   2.594   3.152   3.754  0.5410 -0.0721  0.0342
10463TIP3    H152804   2.688   3.166   3.769  0.3749 -1.5546  2.7695
10463TIP3    H252805   2.553   3.230   3.792  0.5534 -0.2705  0.4519
10464TIP3   OH252806   5.441   6.360   1.819  0.8590 -0.8485 -0.1800
10464TIP3    H152807   5.487   6.277   1.803 -0.8086 -2.2710  2.0947
10464TIP3    H252808   5.414   6.355   1.911 -0.4707  1.6413 -0.3944
10465TIP3   OH252809   1.212   0.581   2.410  0.3184  0.2057 -0.4485
10465TIP3    H152810   1.290   0.601   2.359  0.8065 -0.3789  0.0432
10465TIP3    H252811   1.242   0.515   2.473  0.0724  1.9052  1.4854
10466TIP3   OH252812   5.412   3.559  14.338  0.3518  0.3156 -0.1158
10466TIP3    H152813   5.319   3.564  14.361  0.3436  1.6528 -0.3879
10466TIP3    H252814   5.427   3.467  14.317 -0.2449 -0.4532  2.6710
10467TIP3   OH252815   5.007   5.126   1.704 -0.4689 -0.6305 -0.6061
10467TIP3    H152816   5.019   5.037   1.737  0.6268 -0.8717 -1.6244
10467TIP3    H252817   5.084   5.142   1.649 -0.0116  1.4094  0.5732
10468TIP3   OH252818   1.565   6.383  14.505  0.3147 -0.1481 -0.3669
10468TIP3    H152819   1.640   6.399  14.448  1.8479 -2.1392  1.0042
10468TIP3    H252820   1.554   6.464  14.555  0.0619  0.9753 -2.2133
10469TIP3   OH252821   6.377   4.382   5.701  0.2683 -0.2116 -0.3220
10469TIP3    H152822   6.413   4.419   5.620  1.6885  0.9281  0.8012
10469TIP3    H252823   6.284   4.404   5.698  0.9911  3.1855  0.1002
10470TIP3   OH252824   5.285   6.393   1.598 -0.3937 -0.0517 -0.3567
10470TIP3    H152825   5.349   6.386   1.669 -1.8789 -1.4342  0.8975
10470TIP3    H252826   5.221   6.457   1.630 -1.3628 -1.0861 -0.1716
10471TIP3   OH252827   6.428   0.566  14.307 -0.2539 -0.5381 -0.8222
10471TIP3    H152828   6.368   0.511  14.256 -0.6598 -0.1451 -0.7710
10471TIP3    H252829   6.437   0.646  14.256 -1.8915  0.4978  0.4523
10472TIP3   OH252830   3.348   1.310  13.955 -0.5365 -0.6556  0.5606
10472TIP3    H152831   3.301   1.343  13.878  0.8917 -1.2442 -0.5996
10472TIP3    H252832   3.280   1.296  14.020 -1.5677  1.5776  0.0325
10473TIP3   OH252833   4.166   0.384  16.086  0.3692 -0.4375  0.0680
10473TIP3    H152834   4.137   0.297  16.058  0.6259 -0.1740 -1.0328
10473TIP3    H252835   4.238   0.406  16.027 -2.0822  2.0969 -2.1064
10474TIP3   OH252836   3.423   0.740  12.602  0.2767  0.1446 -0.4828
10474TIP3    H152837   3.328   0.747  12.613  0.2990 -0.3981  0.0812
10474TIP3    H252838   3.446   0.817  12.549 -0.1836  1.4435  1.1541
10475TIP3   OH252839   5.263   3.942   1.799  0.0142  0.1585  0.0971
10475TIP3    H152840   5.234   4.007   1.863  1.0716  0.7571 -0.0232
10475TIP3    H252841   5.354   3.925   1.821  0.7251  1.1886 -1.9226
10476TIP3   OH252842   3.346   6.586   1.766 -0.1965  0.2292 -0.7676
10476TIP3    H152843   3.384   6.503   1.738 -0.5605 -0.3198  0.3404
10476TIP3    H252844   3.253   6.578   1.744 -0.5916 -0.4350  1.0950
10477TIP3   OH252845   1.064   3.225   2.487 -0.4638 -0.1252 -0.3699
10477TIP3    H152846   1.000   3.155   2.481  1.0225 -1.4237 -1.6165
10477TIP3    H252847   1.013   3.305   2.492 -2.2455 -1.3499  2.6322
10478TIP3   OH252848   4.652   3.877  11.958  0.1870 -0.1449 -0.1883
10478TIP3    H152849   4.657   3.816  12.031 -4.7712 -0.1791  0.2942
10478TIP3    H252850   4.667   3.963  11.997  0.9436 -0.4908  0.2770
10479TIP3   OH252851   0.874   4.585   0.416  0.5096  0.0368 -0.5712
10479TIP3    H152852   0.880   4.625   0.330  0.4065  2.5801  0.5504
10479TIP3    H252853   0.839   4.654   0.472 -0.9305 -2.0538  1.2006
10480TIP3   OH252854   3.702   1.129  12.137 -0.5122  0.0424  0.2129
10480TIP3    H152855   3.765   1.112  12.067  0.8959  0.7400  1.2877
10480TIP3    H252856   3.749   1.186  12.198 -2.1430  0.4572  1.1021
10481TIP3   OH252857   2.432   2.811  11.076 -0.2230 -0.6011 -0.3327
10481TIP3    H152858   2.483   2.780  11.001 -0.1292  0.5495 -0.7593
10481TIP3    H252859   2.351   2.761  11.073 -1.7274  1.8538 -3.2599
10482TIP3   OH252860   5.013   4.302  12.740  0.2955  0.1038  1.2294
10482TIP3    H152861   4.982   4.353  12.815  0.2030  1.4611  0.2818
10482TIP3    H252862   5.108   4.317  12.739 -0.2721  4.2897 -1.9253
10483TIP3   OH252863   5.042   5.296  12.420  0.3615  0.3746  0.2261
10483TIP3    H152864   5.052   5.258  12.333  0.1097  1.6821 -0.3834
10483TIP3    H252865   4.981   5.238  12.465 -0.3359  0.2863 -0.8269
10484TIP3   OH252866   1.370   3.965  15.477  0.1848 -0.1571 -0.1794
10484TIP3    H152867   1.446   3.955  15.421 -0.8479 -0.9741 -1.4690
10484TIP3    H252868   1.316   3.888  15.459 -1.6285  1.1099 -0.3842
10485TIP3   OH252869   0.518   0.780   3.204  0.1417  0.5575 -0.3300
10485TIP3    H152870   0.482   0.817   3.123 -1.3510 -0.4066 -0.1206
10485TIP3    H252871   0.523   0.854   3.265 -0.5434  0.8918 -0.6814
10486TIP3   OH252872   1.502   6.616  11.042 -0.1619 -0.0904 -0.4253
10486TIP3    H152873   1.440   6.552  11.008  1.7126 -1.7597 -0.7930
10486TIP3    H252874   1.463   6.701  11.019 -0.7474 -1.1133 -3.5601
10487TIP3   OH252875   1.899   2.007  13.460  0.0240  0.8765 -0.1604
10487TIP3    H152876   1.937   2.010  13.372  1.0462  1.7452  0.2948
10487TIP3    H252877   1.843   2.085  13.465 -0.1739  0.7315 -0.1014
10488TIP3   OH252878   3.058   0.267  14.940  0.4751  0.7558 -0.0656
10488TIP3    H152879   3.012   0.195  14.982 -0.3946  2.4500  1.9998
10488TIP3    H252880   2.994   0.303  14.878  0.2784  0.8614  0.1961
10489TIP3   OH252881   1.415   2.700   5.721  0.2898 -0.4215  0.0261
10489TIP3    H152882   1.498   2.654   5.737 -0.8449 -2.5234  0.0033
10489TIP3    H252883   1.367   2.643   5.661 -1.0958  0.9049 -0.1557
10490TIP3   OH252884   0.072   2.290  12.855  0.7176 -0.3384 -0.1947
10490TIP3    H152885   0.131   2.225  12.894  0.0982  0.8563  2.8995
10490TIP3    H252886   0.113   2.374  12.875  0.6546  0.3079 -2.6931
10491TIP3   OH252887   2.961   6.620  16.526  0.2431 -0.4766  0.2882
10491TIP3    H152888   2.903   6.617  16.602 -0.8266 -1.1845 -0.5520
10491TIP3    H252889   2.942   6.705  16.485 -0.1781 -0.6910  0.0352
10492TIP3   OH252890   3.219   3.692   3.583  0.5326 -0.6300 -0.6538
10492TIP3    H152891   3.254   3.614   3.626 -0.1963 -0.2566  0.6556
10492TIP3    H252892   3.183   3.744   3.654  1.0694  0.9390 -1.5117
10493TIP3   OH252893   2.182   1.351   2.791 -0.4797 -0.4062  0.2409
10493TIP3    H152894   2.203   1.353   2.885  3.7460  3.6339 -0.6075
10493TIP3    H252895   2.127   1.428   2.778  0.0672 -0.1836 -0.7960
10494TIP3   OH252896   2.501   3.698  12.089 -0.6774 -0.0361  0.0211
10494TIP3    H152897   2.471   3.632  12.152 -0.0059 -1.0395 -0.6804
10494TIP3    H252898   2.439   3.691  12.016 -0.2493 -0.3253 -0.3198
10495TIP3   OH252899   5.774   3.602  16.288 -0.0753  0.0211 -0.2551
10495TIP3    H152900   5.690   3.559  16.305  0.2817 -0.4378  0.3667
10495TIP3    H252901   5.751   3.693  16.270 -0.5637  0.3349  1.8111
10496TIP3   OH252902   5.398   6.163   0.585  0.4355 -1.2242 -0.0695
10496TIP3    H152903   5.454   6.177   0.661  0.2780 -0.7701 -0.0354
10496TIP3    H252904   5.313   6.199   0.611  0.9829  1.0337 -1.2758
10497TIP3   OH252905   1.440   1.739  10.907  0.4499  0.4743 -0.2497
10497TIP3    H152906   1.389   1.678  10.960 -1.4438  3.0594  1.0108
10497TIP3    H252907   1.530   1.729  10.937  0.0994 -1.4137  0.1958
10498TIP3   OH252908   6.340   4.560  16.922  0.0765  0.6039  0.0167
10498TIP3    H152909   6.271   4.624  16.902  0.1895  0.8486  0.4013
10498TIP3    H252910   6.413   4.613  16.953  0.7926  0.4204 -1.3602
10499TIP3   OH252911   1.314   1.488  14.791 -0.2628 -0.1382 -0.2351
10499TIP3    H152912   1.265   1.503  14.872 -1.2118  0.1489 -0.8417
10499TIP3    H252913   1.279   1.554  14.731  1.0821  0.2446 -0.6018
10500TIP3   OH252914   2.269   5.102   4.670  0.1469  0.5464  0.2264
10500TIP3    H152915   2.215   5.051   4.730 -1.1330 -0.7006 -1.9472
10500TIP3    H252916   2.217   5.180   4.652 -0.0089  0.3452 -0.2031
10501TIP3   OH252917   6.216   2.692   2.387  0.1222  0.5324 -0.1076
10501TIP3    H152918   6.233   2.768   2.331 -1.2915  1.1333  0.2569
10501TIP3    H252919   6.204   2.729   2.475 -2.2901  0.0858 -0.2259
10502TIP3   OH252920   6.104   3.610  13.607 -0.6066 -0.5931  0.0922
10502TIP3    H152921   6.024   3.661  13.597  1.4995  2.7084 -0.4551
10502TIP3    H252922   6.111   3.596  13.702 -1.7506 -0.8121  0.1535
10503TIP3   OH252923   5.255   5.946   1.917  0.3800  0.1459 -0.0754
10503TIP3    H152924   5.245   5.954   2.012  0.4255 -1.2157  0.0573
10503TIP3    H252925   5.326   6.006   1.895  2.0787 -1.3831  1.1131
10504TIP3   OH252926   0.575   4.603   4.822  0.5470  0.2037 -0.8455
10504TIP3    H152927   0.483   4.629   4.815  0.4218  0.4302  1.2536
10504TIP3    H252928   0.614   4.668   4.880  2.0162  0.0366 -1.6232
10505TIP3   OH252929   2.050   6.231  15.075 -0.1732 -0.1958 -0.3572
10505TIP3    H152930   1.961   6.226  15.038 -0.6467 -2.0040  0.9815
10505TIP3    H252931   2.100   6.165  15.028 -0.1127 -0.7145  0.4270
10506TIP3   OH252932   3.039   1.368   0.750  0.3932  0.2587  0.6831
10506TIP3    H152933   3.044   1.331   0.661  0.4592  2.6881 -0.3630
10506TIP3    H252934   3.122   1.343   0.791  1.3783  1.1028 -0.7577
10507TIP3   OH252935   6.226   2.229  14.760  0.2479  0.1249  0.0839
10507TIP3    H152936   6.150   2.202  14.812 -0.4626  1.5190 -0.2064
10507TIP3    H252937   6.287   2.156  14.767 -1.7165 -1.6702 -0.8846
10508TIP3   OH252938   2.635   1.879   0.444 -0.2202 -0.0734  0.5524
10508TIP3    H152939   2.629   1.829   0.525 -0.1574 -0.6068  0.2323
10508TIP3    H252940   2.712   1.842   0.399  1.9586  2.6353  1.8942
10509TIP3   OH252941   6.641   3.772   2.881 -0.3143 -0.2113 -0.2209
10509TIP3    H152942   6.594   3.823   2.947  0.1014  0.5115 -0.4790
10509TIP3    H252943   6.703   3.719   2.932  0.6543  1.0279 -0.0721
10510TIP3   OH252944   2.065   4.592   4.201 -0.2065 -0.2031  0.0938
10510TIP3    H152945   2.097   4.588   4.292 -0.5205  3.3760  0.4301
10510TIP3    H252946   1.970   4.582   4.209 -0.3707  1.3867  0.3266
10511TIP3   OH252947   4.435   1.961  14.206 -0.1851 -0.0818 -0.2711
10511TIP3    H152948   4.422   2.029  14.140 -0.8368  1.8253  1.7926
10511TIP3    H252949   4.521   1.924  14.186  0.8331  2.3620 -0.4972
10512TIP3   OH252950   1.023   4.999  14.911 -0.6570 -0.1848 -0.2209
10512TIP3    H152951   1.074   5.007  14.830 -1.4741 -0.7215 -0.7985
10512TIP3    H252952   1.019   5.088  14.946  0.8159 -0.1690 -0.0843
10513TIP3   OH252953   6.277   3.392   5.684  0.0937  0.6704  0.3020
10513TIP3    H152954   6.267   3.414   5.592 -0.0042  1.7210  0.5653
10513TIP3    H252955   6.270   3.296   5.687  0.0613  0.6432 -0.7688
10514TIP3   OH252956   6.243   2.556  12.417  0.3321 -0.0016 -0.0511
10514TIP3    H152957   6.214   2.473  12.379  1.4713  0.0842 -1.1646
10514TIP3    H252958   6.293   2.531  12.494  0.9099 -0.3747 -0.5407
10515TIP3   OH252959   4.065   3.444   1.139  0.2326  0.3819 -0.7061
10515TIP3    H152960   4.009   3.516   1.165  0.3397  0.4980 -0.7973
10515TIP3    H252961   4.009   3.388   1.085  0.1803  0.4529 -0.7253
10516TIP3   OH252962   4.179   3.969  12.857 -0.1076 -0.2087 -0.7533
10516TIP3    H152963   4.103   3.949  12.802  0.0585  2.0726 -1.8781
10516TIP3    H252964   4.154   4.049  12.903 -0.4864 -2.3690  3.0430
10517TIP3   OH252965   1.729   6.463  15.593  0.0552 -0.6549 -0.1277
10517TIP3    H152966   1.662   6.471  15.662  0.8347 -1.4819  0.7403
10517TIP3    H252967   1.716   6.375  15.557  0.3414 -0.6193 -0.3168
10518TIP3   OH252968   2.421   4.464   4.802 -0.7513  0.0896  0.1018
10518TIP3    H152969   2.440   4.508   4.885 -0.1470 -0.4784  0.2599
10518TIP3    H252970   2.337   4.420   4.817  0.3542 -1.6938  1.0642
10519TIP3   OH252971   0.770   3.260   4.827 -1.0437 -0.5371  0.5370
10519TIP3    H152972   0.844   3.305   4.867 -1.3628  3.0445 -2.5394
10519TIP3    H252973   0.808   3.181   4.789  0.7396  0.0441  1.0460
10520TIP3   OH252974   5.917   3.832  10.721 -0.1976 -0.3837  0.1004
10520TIP3    H152975   5.837   3.779  10.722 -0.2351 -0.4660 -3.1545
10520TIP3    H252976   5.892   3.913  10.678  1.1864  0.0642  0.0977
10521TIP3   OH252977   2.233   0.990   6.383  0.2213  0.5186 -0.3047
10521TIP3    H152978   2.289   0.952   6.451 -1.5775 -1.9364 -0.1241
10521TIP3    H252979   2.144   0.983   6.418 -0.5338  1.1021 -2.0425
10522TIP3   OH252980   6.396   1.438  11.671  0.8322 -0.4192 -0.3677
10522TIP3    H152981   6.323   1.386  11.704  0.9668 -1.2488 -1.3825
10522TIP3    H252982   6.471   1.378  11.673  1.1709 -0.0080 -0.7391
10523TIP3   OH252983   1.592   1.182  17.012 -0.1302  0.2899 -0.0061
10523TIP3    H152984   1.578   1.204  16.920 -0.5524  1.2575  0.2804
10523TIP3    H252985   1.682   1.209  17.029 -0.3117  0.8671  0.0700
10524TIP3   OH252986   1.677   4.458  10.324  0.6343 -0.2617 -0.3179
10524TIP3    H152987   1.620   4.401  10.272  0.2058  0.1974 -0.3606
10524TIP3    H252988   1.760   4.411  10.330  0.4920 -0.5901 -0.8994
10525TIP3   OH252989   5.869   4.922   0.263 -0.1924 -0.7462  0.0889
10525TIP3    H152990   5.787   4.893   0.223 -0.5702 -1.1018  1.0916
10525TIP3    H252991   5.849   5.006   0.303 -0.0828 -0.8440  0.3556
10526TIP3   OH252992   2.178   0.977  16.088  0.3454  0.4561 -0.3718
10526TIP3    H152993   2.195   1.029  16.167 -0.7408  0.5516 -0.2038
10526TIP3    H252994   2.258   0.986  16.037  1.3696 -0.2088  1.0607
10527TIP3   OH252995   0.594   2.963  16.100 -0.1132  0.1539 -0.3782
10527TIP3    H152996   0.615   3.046  16.143 -0.9716 -0.2407  0.8194
10527TIP3    H252997   0.676   2.937  16.057  0.0864  1.7478 -0.9900
10528TIP3   OH252998   2.676   4.368   3.166  0.1613  0.3579 -0.3815
10528TIP3    H152999   2.670   4.447   3.112  1.3162  0.3879 -0.4712
10528TIP3    H253000   2.599   4.371   3.222  0.0860  1.4350 -0.5417
10529TIP3   OH253001   0.479   0.470  13.141 -0.1763  0.2467  0.5118
10529TIP3    H153002   0.470   0.476  13.236  0.4809 -0.2674  0.6122
10529TIP3    H253003   0.445   0.553  13.108 -0.0866  0.5653  1.2201
10530TIP3   OH253004   6.342   1.978  17.062  0.9360  0.2742  0.5326
10530TIP3    H153005   6.265   2.013  17.015  0.9069 -0.0086  0.3694
10530TIP3    H253006   6.399   1.946  16.992  0.7264 -0.4899  0.7092
10531TIP3   OH253007   5.960   4.126  15.564  0.5077  0.2085  0.0273
10531TIP3    H153008   6.033   4.186  15.546 -0.6353  1.5596 -0.2023
10531TIP3    H253009   5.912   4.168  15.636 -1.6368  0.7695 -1.6677
10532TIP3   OH253010   6.376   1.748  15.658 -0.3261  0.1406  0.5495
10532TIP3    H153011   6.458   1.797  15.656 -1.2385  1.6998  0.2964
10532TIP3    H253012   6.356   1.738  15.751 -1.0060  1.7797  0.5975
10533TIP3   OH253013   2.041   4.444  14.672 -0.2984 -0.4913 -0.0113
10533TIP3    H153014   2.094   4.510  14.716 -0.0376 -0.3990 -0.4610
10533TIP3    H253015   2.063   4.362  14.716 -0.2611 -0.3563  0.2253
10534TIP3   OH253016   0.779   5.107  13.442  0.1289  0.0957 -0.4132
10534TIP3    H153017   0.719   5.041  13.407  0.4325 -0.1750 -0.4340
10534TIP3    H253018   0.838   5.126  13.369  1.0997 -0.8674  0.0946
10535TIP3   OH253019   3.836   4.506   6.389 -0.1147  0.5929 -0.0895
10535TIP3    H153020   3.749   4.511   6.349  0.7035  0.6461 -1.8865
10535TIP3    H253021   3.839   4.420   6.430 -1.2267  0.8271  0.5078
10536TIP3   OH253022   6.705   5.866  13.133 -0.5345 -0.1047 -0.0715
10536TIP3    H153023   6.739   5.892  13.048 -1.0873  0.1443 -0.2205
10536TIP3    H253024   6.740   5.778  13.147 -1.2732 -0.5575 -1.0176
10537TIP3   OH253025   4.186   2.398   3.266 -0.4821 -0.0095  0.2084
10537TIP3    H153026   4.218   2.321   3.311 -0.6899  0.3699  1.0103
10537TIP3    H253027   4.096   2.410   3.298 -0.2987  0.8154  0.4311
10538TIP3   OH253028   0.980   3.598  11.060  0.0250  0.1694  0.0675
10538TIP3    H153029   0.952   3.544  10.986  1.2158 -0.6461  0.2045
10538TIP3    H253030   1.026   3.672  11.021  0.4255 -0.1260 -0.0208
10539TIP3   OH253031   5.383   0.530  11.260  0.0979  0.1437  0.6179
10539TIP3    H153032   5.373   0.548  11.166  2.1597 -3.3010 -0.3722
10539TIP3    H253033   5.395   0.616  11.300  0.0392  1.6243 -2.4044
10540TIP3   OH253034   5.751   0.404   2.810  0.1549 -0.3663  0.4640
10540TIP3    H153035   5.845   0.384   2.802 -0.3050 -2.4121 -0.2681
10540TIP3    H253036   5.741   0.489   2.767  1.4597 -0.7841 -0.7219
10541TIP3   OH253037   0.536   5.337  14.903  0.0613 -0.2257  0.2784
10541TIP3    H153038   0.549   5.243  14.920  2.1883  0.2175  1.3195
10541TIP3    H253039   0.563   5.348  14.812 -0.9007 -0.7339 -0.0799
10542TIP3   OH253040   4.395   3.998  11.075  0.5411  0.1257 -0.0424
10542TIP3    H153041   4.440   4.031  10.998  0.8263 -0.3875 -0.0989
10542TIP3    H253042   4.399   3.903  11.067  0.8326  0.0615  0.7521
10543TIP3   OH253043   4.418   4.468  13.842  0.0526  0.2446 -0.1524
10543TIP3    H153044   4.340   4.522  13.842 -0.0876  0.0666  1.3615
10543TIP3    H253045   4.442   4.460  13.935  2.3975  1.0840 -0.6388
10544TIP3   OH253046   2.981   6.125   6.362 -0.1715 -0.4401 -0.1259
10544TIP3    H153047   2.894   6.158   6.387  0.2155 -0.0351  0.7116
10544TIP3    H253048   3.021   6.099   6.445  2.0179  3.0300  0.0241
10545TIP3   OH253049   3.284   5.744   3.529 -0.5399 -0.1097 -0.2639
10545TIP3    H153050   3.254   5.665   3.484 -1.8815 -0.9459  1.9547
10545TIP3    H253051   3.379   5.739   3.526 -0.6192 -0.9386 -1.6391
10546TIP3   OH253052   5.591   4.486  13.443 -0.2375 -0.1894 -0.0527
10546TIP3    H153053   5.525   4.419  13.425 -0.5528  0.1316 -0.0979
10546TIP3    H253054   5.586   4.500  13.538 -0.8780  0.4972 -0.1827
10547TIP3   OH253055   4.093   1.798   4.321  0.1935  0.6516  0.3278
10547TIP3    H153056   4.120   1.753   4.241  1.1244  0.9953  0.4404
10547TIP3    H253057   4.174   1.834   4.357 -0.3337  1.2021  0.9912
10548TIP3   OH253058   5.414   2.604   1.298 -0.2325  0.6275  0.3200
10548TIP3    H153059   5.485   2.551   1.334  0.6419  0.2529 -1.8197
10548TIP3    H253060   5.457   2.685   1.269 -1.0373  1.2435  0.8134
10549TIP3   OH253061   1.993   4.046  14.024  0.3922  0.1996  0.4109
10549TIP3    H153062   1.916   4.097  13.997  0.3220  0.4016  0.9747
10549TIP3    H253063   2.046   4.038  13.945 -0.6803 -0.7890 -0.2377
10550TIP3   OH253064   0.475   2.805   5.237 -0.1372  0.2247  0.7828
10550TIP3    H153065   0.411   2.747   5.196  2.1246 -1.5283 -0.4176
10550TIP3    H253066   0.520   2.846   5.163  1.8533 -0.5430  1.5268
10551TIP3   OH253067   6.635   5.378   3.657  0.3340  0.1980  0.0663
10551TIP3    H153068   6.696   5.331   3.714  1.9179 -0.8167 -2.3890
10551TIP3    H253069   6.690   5.439   3.608 -0.8100  0.2886 -1.1395
10552TIP3   OH253070   1.829   0.469   2.488  0.1509 -0.1419 -0.0775
10552TIP3    H153071   1.782   0.536   2.538  0.0347 -1.0355  1.0317
10552TIP3    H253072   1.897   0.518   2.442 -0.4355  0.8555  0.0863
10553TIP3   OH253073   2.795   3.719   1.398 -0.7674 -0.1525  0.0751
10553TIP3    H153074   2.723   3.697   1.338 -1.8217  0.2121  1.2041
10553TIP3    H253075   2.842   3.636   1.408 -2.7652 -1.1443  1.6502
10554TIP3   OH253076   5.227   5.083   0.159  0.0269 -0.0223  0.0935
10554TIP3    H153077   5.206   5.173   0.133 -1.9000 -1.0315 -1.9927
10554TIP3    H253078   5.271   5.047   0.082  2.4621 -0.3342  1.5964
10555TIP3   OH253079   6.232   0.284  10.487 -0.4003  0.3526  0.0818
10555TIP3    H153080   6.281   0.354  10.531 -2.3335  0.3976  2.2353
10555TIP3    H253081   6.237   0.210  10.547 -1.6788 -0.1136 -0.3765
10556TIP3   OH253082   0.311   4.853   3.838  0.6656  0.4744 -0.4997
10556TIP3    H153083   0.289   4.761   3.851 -0.0954  0.3214 -2.6304
10556TIP3    H253084   0.406   4.854   3.827  0.8301  0.1249  0.7952
10557TIP3   OH253085   3.113   6.356  16.141 -0.2136  0.0379  0.8473
10557TIP3    H153086   3.170   6.398  16.205  0.5017  1.2636 -0.5475
10557TIP3    H253087   3.030   6.342  16.188  0.8633 -0.7148  2.5490
10558TIP3   OH253088   2.359   6.283   3.552  0.6722 -0.4726  0.0906
10558TIP3    H153089   2.411   6.236   3.617  0.5708  0.8952  1.1805
10558TIP3    H253090   2.368   6.375   3.576  0.0235 -0.0109 -1.3945
10559TIP3   OH253091   4.207   5.397   3.273 -0.4139  0.0386  0.1953
10559TIP3    H153092   4.279   5.399   3.336 -0.0410 -0.2935 -0.2136
10559TIP3    H253093   4.194   5.304   3.255  0.3892  0.1797 -1.2350
10560TIP3   OH253094   0.094   3.950  12.531  0.1432  0.3668 -0.0147
10560TIP3    H153095   0.115   3.970  12.440 -0.7852 -0.3011 -0.3764
10560TIP3    H253096   0.115   3.857  12.540  0.5263  0.5054  0.5429
10561TIP3   OH253097   0.802   6.402  16.545  0.0955  0.3170  0.0387
10561TIP3    H153098   0.730   6.444  16.498 -0.9324  1.0284  2.1947
10561TIP3    H253099   0.785   6.308  16.537 -2.4059  0.5015  2.4916
10562TIP3   OH253100   4.992   0.169   2.137  0.2511 -0.6587  0.4932
10562TIP3    H153101   4.955   0.238   2.082 -1.8481  0.0087  2.6216
10562TIP3    H253102   5.068   0.209   2.178  1.6340 -1.0573 -1.6067
10563TIP3   OH253103   4.227   3.513   5.867 -0.1971  0.4003 -0.1266
10563TIP3    H153104   4.316   3.549   5.867  0.2953 -0.7492  1.3972
10563TIP3    H253105   4.218   3.471   5.953 -1.3442 -1.5626 -1.1543
10564TIP3   OH253106   6.192   4.404  11.036  0.2839  0.2369  0.0972
10564TIP3    H153107   6.195   4.416  10.941  0.1393  0.8636  0.1685
10564TIP3    H253108   6.143   4.480  11.068 -0.6358 -0.5388  0.5670
10565TIP3   OH253109   3.555   2.231   1.026  0.2879 -0.3607  0.2568
10565TIP3    H153110   3.460   2.220   1.020  0.2442  0.1388  0.0799
10565TIP3    H253111   3.588   2.141   1.035 -0.1879 -0.5468  0.1897
10566TIP3   OH253112   6.299   4.469  13.089 -0.1164 -0.2508 -0.1394
10566TIP3    H153113   6.387   4.508  13.081 -0.3058  0.2338  0.0885
10566TIP3    H253114   6.240   4.538  13.059 -0.4246 -0.5436 -0.2017
10567TIP3   OH253115   5.245   0.149  11.728  0.2169 -0.2814  0.1609
10567TIP3    H153116   5.292   0.084  11.676  0.3019  0.0265 -0.1542
10567TIP3    H253117   5.171   0.174  11.672  0.3615  0.1197  0.1489
10568TIP3   OH253118   3.195   4.300   4.292  0.3433  0.1025 -0.0109
10568TIP3    H153119   3.253   4.226   4.277 -0.6987 -0.7314  0.0433
10568TIP3    H253120   3.123   4.287   4.231  1.0113  2.0218 -1.2534
10569TIP3   OH253121   3.743   0.261  15.728 -0.1203 -0.6342 -0.2557
10569TIP3    H153122   3.724   0.170  15.706  0.7004 -1.3555  1.8412
10569TIP3    H253123   3.801   0.255  15.804  1.5561  1.6167 -1.3170
10570TIP3   OH253124   1.806   0.815  14.979 -0.2590  0.2201 -0.0612
10570TIP3    H153125   1.870   0.773  15.035 -1.3414 -0.1164  0.9269
10570TIP3    H253126   1.781   0.748  14.915 -2.4475 -0.8932  1.8890
10571TIP3   OH253127   3.789   4.335   3.934 -0.3440  0.0229  0.3028
10571TIP3    H153128   3.745   4.354   4.017 -0.3967  1.5949 -0.0718
10571TIP3    H253129   3.725   4.359   3.867  0.7883  1.5722 -0.2342
10572TIP3   OH253130   3.043   1.417   2.977  0.2597  0.1416  0.5806
10572TIP3    H153131   3.007   1.330   2.994  0.3117 -0.3694 -1.7648
10572TIP3    H253132   3.135   1.411   3.004  1.0491 -1.4581 -2.2942
10573TIP3   OH253133   5.755   5.618   4.460  0.5245  0.1149 -0.2037
10573TIP3    H153134   5.756   5.714   4.463 -0.2010  0.0844  2.3888
10573TIP3    H253135   5.662   5.596   4.457  0.6495 -0.5153  0.5045
10574TIP3   OH253136   6.599   6.780  15.259  0.3423  0.2103  0.0383
10574TIP3    H153137   6.577   6.748  15.171 -0.4977  0.9647 -0.0404
10574TIP3    H253138   6.594   6.876  15.251 -3.5788  0.2445  1.8189
10575TIP3   OH253139   0.989   5.381   2.142  0.1330  0.3834  0.0440
10575TIP3    H153140   0.961   5.461   2.097  0.2252  0.8905  0.8803
10575TIP3    H253141   0.913   5.323   2.138 -0.7106  1.3614  1.3943
10576TIP3   OH253142   3.629   2.111   3.408 -0.4138  0.0444  0.2214
10576TIP3    H153143   3.614   2.174   3.337 -0.0025 -1.1336 -0.9304
10576TIP3    H253144   3.713   2.070   3.387 -2.0055 -2.9551 -0.6614
10577TIP3   OH253145   1.936   0.956  16.647 -0.4575  0.0606  0.3046
10577TIP3    H153146   1.997   0.977  16.576 -1.9409 -0.0365 -1.0428
10577TIP3    H253147   1.990   0.921  16.717  1.2087  1.4620 -0.2538
10578TIP3   OH253148   0.143   2.349  12.433 -0.3276 -0.1912  0.2798
10578TIP3    H153149   0.128   2.254  12.426  0.3048 -0.3005  0.3760
10578TIP3    H253150   0.073   2.380  12.490 -0.5733 -0.5936  0.2030
10579TIP3   OH253151   0.922   1.392   2.322  0.4493  0.7787 -0.0832
10579TIP3    H153152   0.830   1.369   2.325  0.6289  0.1409  0.5903
10579TIP3    H253153   0.924   1.484   2.348 -0.0325  0.9131 -0.5095
10580TIP3   OH253154   0.159   6.563   2.239 -0.0515  0.0939  0.1718
10580TIP3    H153155   0.188   6.546   2.150 -0.4201 -0.4357  0.1481
10580TIP3    H253156   0.144   6.476   2.276  0.8260  0.2792  0.9950
10581TIP3   OH253157   2.396   1.563   5.434  0.8592 -0.9078  0.5702
10581TIP3    H153158   2.489   1.543   5.446  1.1638  0.9420  1.4520
10581TIP3    H253159   2.357   1.548   5.519  0.8944  1.0719  0.9594
10582TIP3   OH253160   6.378   6.021   2.196  0.9808  0.4465 -0.0664
10582TIP3    H153161   6.359   5.998   2.287  1.1548  1.5216  0.2504
10582TIP3    H253162   6.353   5.943   2.146  1.4745 -0.3928  0.9593
10583TIP3   OH253163   1.431   2.247   0.557  0.2734  0.2727 -0.0838
10583TIP3    H153164   1.378   2.193   0.497  0.9513 -1.9847  1.2918
10583TIP3    H253165   1.369   2.309   0.594 -0.6639  0.0584 -1.2381
10584TIP3   OH253166   5.589   5.639   5.030  0.0067 -0.7706  0.0031
10584TIP3    H153167   5.671   5.682   5.007 -0.2520  1.3552  2.8039
10584TIP3    H253168   5.615   5.552   5.060  0.8377 -1.4781 -2.5962
10585TIP3   OH253169   4.592   3.814  15.104  0.3375 -0.4553  0.0900
10585TIP3    H153170   4.658   3.831  15.036 -0.5906 -0.3929 -0.8030
10585TIP3    H253171   4.589   3.895  15.155  0.0653 -0.0074 -0.6299
10586TIP3   OH253172   3.510   5.176  12.017  0.2690  0.1852 -0.1041
10586TIP3    H153173   3.516   5.202  11.925 -1.9872  0.1220 -0.3003
10586TIP3    H253174   3.561   5.241  12.064  1.4457  0.2218 -1.3942
10587TIP3   OH253175   2.977   0.490  11.143 -0.3429  0.6980  0.6499
10587TIP3    H153176   3.047   0.482  11.079  0.4437  1.7305  1.3633
10587TIP3    H253177   2.898   0.461  11.097  0.6039 -0.8211 -0.0420
10588TIP3   OH253178   4.203   2.215  11.868  0.0989 -0.0269  0.1957
10588TIP3    H153179   4.186   2.155  11.796  0.1188 -0.6484  0.6995
10588TIP3    H253180   4.234   2.159  11.939 -1.4386  0.3620  1.2007
10589TIP3   OH253181   1.624   5.004   1.738 -0.2268 -0.0525  0.6230
10589TIP3    H153182   1.531   4.983   1.736 -0.1726 -0.4507  1.8046
10589TIP3    H253183   1.635   5.054   1.819  0.4357  0.7267  0.0634
10590TIP3   OH253184   6.241   1.369   0.132 -0.2908 -0.6131  0.0792
10590TIP3    H153185   6.226   1.403   0.220  0.0037 -1.8492  0.6170
10590TIP3    H253186   6.182   1.420   0.077 -2.8164 -1.9392  1.4508
10591TIP3   OH253187   5.141   3.021  13.592  0.1337  0.1939 -0.0672
10591TIP3    H153188   5.058   3.060  13.621  1.0095  1.2045  1.1435
10591TIP3    H253189   5.119   2.930  13.573 -1.3400  0.5434 -0.1254
10592TIP3   OH253190   1.544   5.996   0.200 -0.4820 -0.3002  0.1685
10592TIP3    H153191   1.469   6.037   0.157 -0.6781 -0.6077  0.2227
10592TIP3    H253192   1.612   6.064   0.197 -0.3415 -0.4895 -1.0569
10593TIP3   OH253193   5.536   4.374   0.923  0.7025  0.0454 -0.4303
10593TIP3    H153194   5.561   4.300   0.867  0.6374 -0.7232  0.5305
10593TIP3    H253195   5.461   4.413   0.879  1.6492  0.4457 -1.7106
10594TIP3   OH253196   6.610   4.569   1.426 -0.9570  0.4967  0.1347
10594TIP3    H153197   6.646   4.482   1.409  0.2280  1.0409 -0.1726
10594TIP3    H253198   6.546   4.556   1.496 -0.1865 -0.4750  0.6563
10595TIP3   OH253199   0.310   6.360   6.139 -0.4155 -0.2421  0.1290
10595TIP3    H153200   0.367   6.369   6.215 -1.8980  3.4002  0.8919
10595TIP3    H253201   0.369   6.365   6.064  0.6618 -0.1231  0.9704
10596TIP3   OH253202   5.991   0.863   1.800 -0.4734  0.0506 -0.0393
10596TIP3    H153203   6.023   0.825   1.718 -0.5273  0.4262 -0.2348
10596TIP3    H253204   6.056   0.836   1.865  0.0889  0.5466 -0.3802
10597TIP3   OH253205   4.456   0.806   4.541 -0.3834  0.1523  0.1348
10597TIP3    H153206   4.414   0.747   4.479 -0.6048  1.9242 -1.4609
10597TIP3    H253207   4.547   0.812   4.511 -1.2482  3.6235 -2.1792
10598TIP3   OH253208   2.621   0.737  13.828  0.2067 -0.3245  0.1293
10598TIP3    H153209   2.605   0.642  13.823  0.3450 -0.3297 -0.2636
10598TIP3    H253210   2.641   0.753  13.920 -1.6015 -0.3929  0.5624
10599TIP3   OH253211   4.046   4.783   0.116 -0.3209  0.2001 -0.8353
10599TIP3    H153212   3.977   4.815   0.058 -0.7109  1.1866  0.1632
10599TIP3    H253213   4.054   4.690   0.095 -1.6520  0.1796 -1.2708
10600TIP3   OH253214   2.189   2.648   5.347  0.0891 -0.0403 -0.4758
10600TIP3    H153215   2.099   2.666   5.375  1.2214  2.1637  2.0123
10600TIP3    H253216   2.214   2.725   5.296  1.6047  0.8702  1.5787
10601TIP3   OH253217   4.941   3.970  14.829 -0.3807  0.5646 -0.0990
10601TIP3    H153218   4.916   3.976  14.921  1.5988  0.0605  0.5137
10601TIP3    H253219   4.898   4.044  14.787 -1.2411  0.8459  1.2561
10602TIP3   OH253220   5.933   2.288   1.607  0.1095 -0.5329 -0.0627
10602TIP3    H153221   6.006   2.331   1.563  0.3481 -0.3751  0.4851
10602TIP3    H253222   5.875   2.359   1.635 -0.3877 -0.6731 -0.7304
10603TIP3   OH253223   6.277   3.094  11.164 -0.3054 -0.1715 -0.0183
10603TIP3    H153224   6.248   3.180  11.193 -0.4275 -0.1277 -0.2669
10603TIP3    H253225   6.290   3.103  11.070 -0.9897 -0.6114 -0.1642
10604TIP3   OH253226   6.671   1.578  15.659  0.6573 -0.3467 -0.3535
10604TIP3    H153227   6.753   1.565  15.708  0.5034 -0.1207 -0.0314
10604TIP3    H253228   6.664   1.673  15.650  1.4436 -0.4347 -2.1227
10605TIP3   OH253229   5.604   4.835   2.992  0.1395 -0.7296  0.3297
10605TIP3    H153230   5.678   4.858   2.936  0.6303 -2.1695  0.3702
10605TIP3    H253231   5.577   4.918   3.032  0.2129  0.2020 -1.5115
10606TIP3   OH253232   2.488   2.920   3.418 -0.7858  0.0713 -0.2166
10606TIP3    H153233   2.433   2.853   3.378  0.9509 -1.1449 -0.6168
10606TIP3    H253234   2.507   2.886   3.506 -0.6211  0.4389 -0.1092
10607TIP3   OH253235   6.598   5.249  12.421  0.2687  0.5447  0.1275
10607TIP3    H153236   6.548   5.218  12.497  1.1265 -0.9043  0.1129
10607TIP3    H253237   6.689   5.250  12.451  0.4069  1.7165 -0.3182
10608TIP3   OH253238   0.452   4.067  16.307  0.0116  0.1855  0.2454
10608TIP3    H153239   0.437   4.057  16.213 -1.1320  0.3706  0.3943
10608TIP3    H253240   0.381   4.016  16.347 -0.0802  0.8998  1.0008
10609TIP3   OH253241   0.790   5.659  15.271 -0.0174  0.4289 -0.5745
10609TIP3    H153242   0.828   5.611  15.198 -1.3705  1.4075 -1.9449
10609TIP3    H253243   0.769   5.745  15.236 -0.5503  0.9693  1.0068
10610TIP3   OH253244   6.097   2.268   5.976 -0.3339 -0.3413  0.1095
10610TIP3    H153245   6.024   2.228   6.023  1.6687 -2.9580  1.1178
10610TIP3    H253246   6.175   2.231   6.017  1.6076  2.8933 -0.4908
10611TIP3   OH253247   6.541   0.890  11.310 -0.2046 -0.1920  0.3316
10611TIP3    H153248   6.527   0.829  11.237  0.6952 -0.0561  0.0449
10611TIP3    H253249   6.473   0.867  11.373 -0.2790 -1.0583 -0.0557
10612TIP3   OH253250   0.530   1.512   2.428 -0.4951  0.0030 -0.3238
10612TIP3    H153251   0.483   1.596   2.425 -1.9426 -0.8034 -0.9121
10612TIP3    H253252   0.463   1.448   2.454  0.5450 -1.0111 -0.0642
10613TIP3   OH253253   1.458   4.623  12.804 -0.1384  0.4163  0.4726
10613TIP3    H153254   1.484   4.539  12.841  2.2382 -0.4657 -2.9302
10613TIP3    H253255   1.531   4.682  12.824  0.3673  0.3831 -1.2011
10614TIP3   OH253256   6.181   6.395  15.550 -0.0744  0.4193  0.1707
10614TIP3    H153257   6.251   6.374  15.488 -0.5812 -0.6072 -0.0606
10614TIP3    H253258   6.188   6.490  15.562  1.9007  0.2304  0.8096
10615TIP3   OH253259   1.230   3.406  11.698  0.0928 -0.0186 -0.9785
10615TIP3    H153260   1.222   3.313  11.719  0.1456  0.4544  1.2299
10615TIP3    H253261   1.146   3.430  11.660 -0.8548 -0.4116  0.8014
10616TIP3   OH253262   4.652   3.778   3.111  0.4074 -0.0821  0.6740
10616TIP3    H153263   4.622   3.811   3.026  0.6688  0.6191  0.8520
10616TIP3    H253264   4.647   3.682   3.102  1.8685 -0.0520 -0.6380
10617TIP3   OH253265   5.252   1.454   4.255  0.6968  0.2170  0.7576
10617TIP3    H153266   5.202   1.460   4.336  0.7334  0.0609  0.7910
10617TIP3    H253267   5.309   1.378   4.267 -0.2374 -0.5963  0.0684
10618TIP3   OH253268   4.034   2.283   2.670  0.2396  0.2287 -0.7798
10618TIP3    H153269   4.054   2.258   2.760 -2.0790  0.4203 -0.1799
10618TIP3    H253270   4.077   2.217   2.616 -0.8563 -1.6384  0.5922
10619TIP3   OH253271   2.015   1.396   5.702 -0.2748 -0.1369  0.0486
10619TIP3    H153272   1.928   1.382   5.739 -0.0527  0.3823  0.7894
10619TIP3    H253273   1.999   1.426   5.612 -0.8488 -0.4564  0.0450
10620TIP3   OH253274   4.868   2.575  12.819  0.3397  0.1409  0.2759
10620TIP3    H153275   4.836   2.568  12.729 -0.5039  0.6192  0.5299
10620TIP3    H253276   4.957   2.539  12.816 -0.2196 -1.1851 -0.4428
10621TIP3   OH253277   1.846   0.515   0.054  0.6196 -0.1067 -0.1261
10621TIP3    H153278   1.861   0.422   0.072 -0.9412 -0.4890 -0.7593
10621TIP3    H253279   1.768   0.517  -0.002  0.6908  1.5734 -0.1909
10622TIP3   OH253280   5.579   3.511  16.595  0.6834 -0.5194  0.1999
10622TIP3    H153281   5.555   3.604  16.590 -1.4590 -1.0675 -0.1126
10622TIP3    H253282   5.562   3.477  16.508 -1.8763 -1.9667  1.2215
10623TIP3   OH253283   2.240   2.882   5.226  0.7550  1.0304 -0.0877
10623TIP3    H153284   2.152   2.900   5.193  0.2893 -0.0690  0.5139
10623TIP3    H253285   2.271   2.966   5.259  0.0002  1.4579 -0.4419
10624TIP3   OH253286   3.224   3.017   2.239 -0.1541 -0.1626 -0.1728
10624TIP3    H153287   3.156   3.028   2.306  1.6498  0.5937  1.5769
10624TIP3    H253288   3.225   3.101   2.192  0.3423  0.2313  0.5377
10625TIP3   OH253289   2.859   5.294  16.143  0.5495  0.0739  0.2522
10625TIP3    H153290   2.828   5.241  16.217 -1.5820  0.4455 -0.3415
10625TIP3    H253291   2.917   5.359  16.183 -0.9176  0.5395  1.6655
10626TIP3   OH253292   0.951   2.444   2.299 -0.2089 -0.0779 -0.2625
10626TIP3    H153293   0.906   2.381   2.243 -0.4358  0.4925 -0.7306
10626TIP3    H253294   1.044   2.421   2.291 -0.3182 -0.5220 -0.2204
10627TIP3   OH253295   2.736   3.483   6.206 -0.7146  0.2463  0.0024
10627TIP3    H153296   2.815   3.447   6.245 -1.2342 -1.8548 -0.8572
10627TIP3    H253297   2.689   3.523   6.280 -0.1095 -0.7846  0.9654
10628TIP3   OH253298   5.054   0.926   2.709  0.2262 -0.1953  0.4505
10628TIP3    H153299   5.047   0.894   2.799  0.5543 -0.3198  0.4319
10628TIP3    H253300   4.979   0.887   2.664 -2.3676  3.1278  1.6249
10629TIP3   OH253301   6.695   3.432  10.801 -0.2502  0.0595  0.3575
10629TIP3    H153302   6.638   3.401  10.730 -0.5317  0.5904  0.3529
10629TIP3    H253303   6.753   3.495  10.760 -0.4919  0.4560  0.6271
10630TIP3   OH253304   6.210   2.226   3.510  0.2683 -0.5067 -0.7362
10630TIP3    H153305   6.264   2.290   3.556  1.6233 -1.5258 -0.8775
10630TIP3    H253306   6.120   2.253   3.529  0.8101  0.6075  0.3574
10631TIP3   OH253307   0.733   5.996   0.592  0.1955 -0.0921 -0.2635
10631TIP3    H153308   0.696   6.061   0.652 -4.7268 -1.8683 -1.1007
10631TIP3    H253309   0.715   6.032   0.505  0.4235 -1.0598 -0.7103
10632TIP3   OH253310   1.940   2.126   1.574 -0.1553  0.5670  0.1342
10632TIP3    H153311   1.948   2.125   1.669 -0.6593 -0.2650  0.1701
10632TIP3    H253312   2.027   2.150   1.543 -0.2226  1.7242  0.8319
10633TIP3   OH253313   3.199   4.855  11.842 -0.1260 -0.1936  0.2369
10633TIP3    H153314   3.121   4.849  11.787 -0.3824 -0.2790  0.6163
10633TIP3    H253315   3.259   4.789  11.806 -0.7277 -1.0372  0.7722
10634TIP3   OH253316   0.345   1.393   2.611  0.0827 -0.1499  0.0820
10634TIP3    H153317   0.319   1.301   2.599  1.5860 -0.7704  1.4525
10634TIP3    H253318   0.419   1.389   2.672  0.9167  1.8792 -0.7636
10635TIP3   OH253319   2.621   5.311  14.553 -0.6119 -0.1147 -0.0352
10635TIP3    H153320   2.546   5.256  14.531 -0.7598  0.2441 -0.4227
10635TIP3    H253321   2.583   5.396  14.577 -0.5952 -0.9337  3.1935
10636TIP3   OH253322   4.525   1.535  13.559 -0.4881 -0.0714 -0.2714
10636TIP3    H153323   4.544   1.448  13.593  0.5759  0.1615 -0.2457
10636TIP3    H253324   4.471   1.576  13.627 -2.6235 -1.3655 -1.1531
10637TIP3   OH253325   6.689   1.808   0.461 -0.2713  0.2526 -0.4859
10637TIP3    H153326   6.668   1.733   0.405 -0.9209  0.7283 -0.8782
10637TIP3    H253327   6.659   1.884   0.411 -1.7543  0.6107  0.9322
10638TIP3   OH253328   4.893   3.153   5.181  0.5550 -0.0455 -0.4110
10638TIP3    H153329   4.864   3.241   5.157  1.1112 -0.0201 -1.0067
10638TIP3    H253330   4.824   3.095   5.150  0.2310  0.1722 -0.0999
10639TIP3   OH253331   5.524   3.360  14.189 -0.0772  0.7020 -0.0361
10639TIP3    H153332   5.572   3.397  14.263  0.1728  0.1818  0.0601
10639TIP3    H253333   5.591   3.335  14.126 -0.1922 -0.5689  0.3507
10640TIP3   OH253334   0.386   3.194  10.369  0.1146  0.1164 -0.2311
10640TIP3    H153335   0.455   3.260  10.363 -1.4614  1.7250 -0.8829
10640TIP3    H253336   0.328   3.225  10.439  0.0190 -1.2281  0.3182
10641TIP3   OH253337   0.218   6.596  13.806 -0.8723 -0.0517  0.0483
10641TIP3    H153338   0.292   6.540  13.827 -1.0706 -0.1720  0.4279
10641TIP3    H253339   0.187   6.628  13.890 -0.4976  0.9743 -0.2008
10642TIP3   OH253340   2.560   5.104  11.151 -0.0172  0.7574 -0.5270
10642TIP3    H153341   2.653   5.083  11.160 -0.3025  0.3172  1.6915
10642TIP3    H253342   2.524   5.034  11.096  0.4830 -0.5336  0.7484
10643TIP3   OH253343   0.794   1.600   3.063 -0.3439  0.2768 -0.5513
10643TIP3    H153344   0.867   1.662   3.051  0.1070  0.0472  0.8922
10643TIP3    H253345   0.715   1.652   3.048  0.0726  0.9465 -0.4483
10644TIP3   OH253346   4.528   6.195   6.556 -0.5640 -0.1748 -0.2209
10644TIP3    H153347   4.561   6.263   6.614 -0.3371  0.5352 -1.1686
10644TIP3    H253348   4.531   6.234   6.469  1.4965 -2.1151 -1.0609
10645TIP3   OH253349   6.070   3.146   3.681 -0.0222  0.4892 -0.2152
10645TIP3    H153350   6.163   3.169   3.687  0.1995 -0.0921 -1.2004
10645TIP3    H253351   6.047   3.117   3.769  1.2869 -1.3190 -0.4389
10646TIP3   OH253352   3.108   6.464   4.771 -0.3333 -0.1102 -0.3356
10646TIP3    H153353   3.077   6.414   4.694 -0.2906  0.1144 -0.4998
10646TIP3    H253354   3.059   6.427   4.844  1.4714 -2.0687 -0.0728
10647TIP3   OH253355   1.937   5.025  13.846  0.4006  0.3861  0.0160
10647TIP3    H153356   1.872   5.092  13.866 -0.0546  0.4944 -1.6953
10647TIP3    H253357   1.897   4.972  13.777  1.2014 -0.9754  0.5696
10648TIP3   OH253358   3.843   0.479   5.809  0.0908 -0.1342 -0.8981
10648TIP3    H153359   3.775   0.525   5.859  0.9730  0.1662  0.0252
10648TIP3    H253360   3.830   0.509   5.719 -0.7666  0.2096 -0.6665
10649TIP3   OH253361   0.960   3.389   1.674 -0.4703  0.5970 -0.5437
10649TIP3    H153362   0.950   3.413   1.766  1.6608  1.2610 -0.4725
10649TIP3    H253363   1.043   3.342   1.670 -0.9319 -0.1160 -1.9969
10650TIP3   OH253364   2.033   3.639   3.194  0.9370 -0.1268 -0.0165
10650TIP3    H153365   2.059   3.568   3.136  1.5948  1.3609 -1.5752
10650TIP3    H253366   2.057   3.609   3.282 -0.5638 -2.6309 -0.4041
10651TIP3   OH253367   1.408   5.432   2.596 -0.2966 -0.2779 -0.3927
10651TIP3    H153368   1.378   5.490   2.526  1.2549  1.9034  0.6985
10651TIP3    H253369   1.349   5.451   2.670 -0.4837 -0.9023 -0.3803
10652TIP3   OH253370   5.437   3.804  12.834 -0.6845 -0.4043  0.5299
10652TIP3    H153371   5.517   3.780  12.880  0.4849 -0.0323 -1.2646
10652TIP3    H253372   5.458   3.886  12.789 -2.1913 -0.1068  0.3257
10653TIP3   OH253373   1.997   2.606  10.570  0.2935  0.1249 -0.3720
10653TIP3    H153374   1.930   2.627  10.505 -1.3556  3.4596  2.2455
10653TIP3    H253375   1.969   2.522  10.607 -0.0157 -0.6414 -2.2760
10654TIP3   OH253376   2.476   6.685  14.836 -0.3618 -0.1094 -0.8596
10654TIP3    H153377   2.430   6.666  14.917  1.3798  0.7202  0.3403
10654TIP3    H253378   2.493   6.599  14.797  0.7710 -0.6343  0.7614
10655TIP3   OH253379   2.896   6.109  11.809  0.8193  0.5699 -0.1426
10655TIP3    H153380   2.844   6.169  11.755 -0.5851  0.1143  0.6683
10655TIP3    H253381   2.871   6.130  11.899  0.9005 -0.6838  0.1870
10656TIP3   OH253382   1.605   4.317   3.400 -0.9434 -0.0006 -0.3974
10656TIP3    H153383   1.688   4.271   3.410 -0.6265  0.8423  0.9175
10656TIP3    H253384   1.628   4.400   3.358 -1.1639  0.0617 -0.3975
10657TIP3   OH253385   6.036   2.994   1.256  0.0325 -0.3677 -0.5147
10657TIP3    H153386   6.019   2.999   1.350 -0.9691 -0.9626 -0.6478
10657TIP3    H253387   5.975   2.926   1.225  0.7398 -0.5606 -1.4996
10658TIP3   OH253388   2.840   1.491   0.236 -0.0070  0.8223  0.0701
10658TIP3    H153389   2.797   1.525   0.158 -1.0661  0.9349  0.6973
10658TIP3    H253390   2.931   1.475   0.208  0.1674  2.8419 -0.6072
10659TIP3   OH253391   4.679   2.906   3.941 -0.4674  0.2186  0.3634
10659TIP3    H153392   4.697   2.870   3.854 -2.7063 -1.3086  0.4747
10659TIP3    H253393   4.666   2.828   3.997  2.3892  1.1405  2.4166
10660TIP3   OH253394   3.929   1.091  12.410  0.3365 -1.0370 -0.2423
10660TIP3    H153395   3.955   1.073  12.320  2.0456  0.5434 -0.1043
10660TIP3    H253396   3.867   1.164  12.403  1.6242  0.1064 -0.0707
10661TIP3   OH253397   0.513   0.791   1.825 -0.0994  0.3251  0.0537
10661TIP3    H153398   0.508   0.885   1.806  0.4505 -0.0250 -1.9511
10661TIP3    H253399   0.423   0.761   1.818 -0.5749  1.0231  2.6310
10662TIP3   OH253400   5.930   0.770   3.461  0.0261 -0.1975 -0.1051
10662TIP3    H153401   5.982   0.803   3.389  0.0664  0.0765  0.0480
10662TIP3    H253402   5.977   0.797   3.540  0.1279 -0.7308  0.0223
10663TIP3   OH253403   1.801   0.106   2.634 -0.3917 -0.0038  0.1422
10663TIP3    H153404   1.870   0.040   2.638 -1.1520 -0.8826 -0.9451
10663TIP3    H253405   1.845   0.186   2.605  0.2418 -0.4739 -0.1915
10664TIP3   OH253406   4.136   3.455  14.706  0.3786 -0.1853  0.0697
10664TIP3    H153407   4.117   3.503  14.625  1.3554  0.4822  0.2292
10664TIP3    H253408   4.056   3.462  14.757  0.3614  0.9131 -0.0947
10665TIP3   OH253409   3.741   1.131   2.248 -0.2486  0.4875  0.4947
10665TIP3    H153410   3.751   1.038   2.228 -0.0718  1.0123 -2.0260
10665TIP3    H253411   3.649   1.141   2.272  0.1202 -0.6082  2.4730
10666TIP3   OH253412   4.767   5.048   4.377  0.5391  0.3419  0.1374
10666TIP3    H153413   4.802   4.963   4.405  0.4721  1.3677  3.6116
10666TIP3    H253414   4.838   5.090   4.329  1.0501 -1.0747 -0.3660
10667TIP3   OH253415   5.047   1.074  13.914 -0.3368  0.1054 -0.8364
10667TIP3    H153416   5.042   1.117  14.000 -2.8317  0.3983 -1.0978
10667TIP3    H253417   5.135   1.095  13.883  0.7058 -0.2269  1.7516
10668TIP3   OH253418   4.604   4.839  12.272 -0.3615  0.7408  0.2116
10668TIP3    H153419   4.666   4.792  12.327 -0.5446 -1.5232 -1.4185
10668TIP3    H253420   4.524   4.843  12.324 -0.3101 -0.6982  0.4316
10669TIP3   OH253421   1.468   5.140  16.507  0.2408 -0.3866  0.2069
10669TIP3    H153422   1.495   5.192  16.583 -2.4312  3.1270 -1.0612
10669TIP3    H253423   1.545   5.138  16.450  1.0718  0.2717  1.2903
10670TIP3   OH253424   1.657   3.078   0.469  0.2653  0.0155 -0.0136
10670TIP3    H153425   1.598   3.005   0.450 -2.1014  0.8402  3.4804
10670TIP3    H253426   1.641   3.140   0.398 -3.1691  0.1760  0.7736
10671TIP3   OH253427   4.918   6.610  13.555  0.3787 -0.3317 -0.4203
10671TIP3    H153428   4.844   6.580  13.502 -0.3168  1.1735 -0.3081
10671TIP3    H253429   4.884   6.612  13.644  0.2813  1.1957 -0.4813
10672TIP3   OH253430   4.092   2.464  12.996  0.3462 -0.4012  0.0778
10672TIP3    H153431   4.092   2.450  13.091  0.7384  1.2618  0.3303
10672TIP3    H253432   4.181   2.493  12.976 -0.4639  1.8572 -0.3831
10673TIP3   OH253433   0.780   1.349  11.468 -0.5600 -0.6313 -0.0903
10673TIP3    H153434   0.865   1.305  11.464 -0.3972 -0.2922 -0.3093
10673TIP3    H253435   0.717   1.277  11.461 -0.2943 -0.8673 -0.1016
10674TIP3   OH253436   4.212   1.503   6.357  0.4582  0.1265  0.5150
10674TIP3    H153437   4.150   1.575   6.369  1.0367  0.6877  0.1233
10674TIP3    H253438   4.208   1.454   6.439 -1.2622 -0.4322  0.1349
10675TIP3   OH253439   6.480   3.044   0.768 -0.0718  0.4206 -0.1764
10675TIP3    H153440   6.573   3.058   0.790 -0.2786  1.5331  0.0502
10675TIP3    H253441   6.435   3.114   0.815 -1.0211 -0.0515 -0.3853
10676TIP3   OH253442   5.962   5.204  11.471 -0.2201 -0.1782 -0.2111
10676TIP3    H153443   5.919   5.251  11.400 -1.6675 -2.0455 -0.6052
10676TIP3    H253444   6.047   5.178  11.436  0.7212  2.3520  0.1125
10677TIP3   OH253445   2.836   5.973   4.893  0.0612 -0.4599 -0.0996
10677TIP3    H153446   2.756   5.952   4.845  1.3039 -0.5791 -2.1581
10677TIP3    H253447   2.824   6.065   4.919 -0.6430 -0.3991 -0.6166
10678TIP3   OH253448   4.158   3.030   4.742  0.3392  0.2045 -0.4158
10678TIP3    H153449   4.242   2.987   4.759 -0.3608 -1.1603 -0.2955
10678TIP3    H253450   4.164   3.058   4.651  1.3226  1.0441 -0.1012
10679TIP3   OH253451   1.163   3.887   5.064 -0.4225 -1.2119  0.2295
10679TIP3    H153452   1.233   3.833   5.026 -0.1685 -0.9750  0.3612
10679TIP3    H253453   1.084   3.859   5.018 -0.3653 -2.0143  0.5998
10680TIP3   OH253454   2.570   5.635   1.710  0.3204 -0.2898 -0.6835
10680TIP3    H153455   2.558   5.551   1.666  0.7322  0.1453 -1.6368
10680TIP3    H253456   2.658   5.629   1.750 -0.1976 -0.8209  0.4021
10681TIP3   OH253457   0.551   3.332  14.292  0.1154 -0.1717  0.3547
10681TIP3    H153458   0.562   3.241  14.263  0.5729  0.6709 -2.2992
10681TIP3    H253459   0.469   3.360  14.251 -1.1603 -0.0100  2.9405
10682TIP3   OH253460   3.557   3.793   5.185 -0.6781  0.1086  0.0384
10682TIP3    H153461   3.554   3.699   5.204 -1.1247  0.0150 -0.4772
10682TIP3    H253462   3.616   3.801   5.111  0.5910  0.4093  1.0676
10683TIP3   OH253463   3.041   3.226   4.644 -0.6277  0.1969  0.2943
10683TIP3    H153464   3.039   3.223   4.740 -2.0003  2.4787  0.3717
10683TIP3    H253465   3.127   3.264   4.624  0.8633 -2.9379  0.4795
10684TIP3   OH253466   3.235   0.398  13.454 -0.0098 -0.6277 -0.5188
10684TIP3    H153467   3.171   0.451  13.502  2.0329  1.9725 -0.6044
10684TIP3    H253468   3.290   0.360  13.522  1.2343  0.9151 -0.6461
10685TIP3   OH253469   0.445   1.564  14.787 -0.0064 -0.1249  0.2745
10685TIP3    H153470   0.379   1.540  14.852  0.1847 -1.0245  0.1481
10685TIP3    H253471   0.471   1.653  14.810  1.5096 -1.1300  2.7049
10686TIP3   OH253472   1.190   6.154   1.671 -0.8515  0.2853 -0.0043
10686TIP3    H153473   1.217   6.073   1.627 -0.1633  0.5601 -0.1071
10686TIP3    H253474   1.220   6.143   1.761  1.1562  1.2861 -0.5105
10687TIP3   OH253475   6.548   6.444   5.211 -0.0261  0.3761 -0.1778
10687TIP3    H153476   6.554   6.484   5.124 -1.0411 -1.2799 -1.0376
10687TIP3    H253477   6.626   6.390   5.219 -0.8827 -0.9890 -0.8678
10688TIP3   OH253478   2.084   6.370   4.295  0.4562  0.6664  0.4420
10688TIP3    H153479   1.998   6.329   4.298  0.2469  1.0629 -0.0312
10688TIP3    H253480   2.122   6.341   4.213  1.0766 -0.0975  0.9966
10689TIP3   OH253481   3.160   6.062  16.232 -0.3247  0.1816 -0.2859
10689TIP3    H153482   3.089   6.077  16.170 -0.0394 -1.6662 -1.0911
10689TIP3    H253483   3.231   6.119  16.202 -1.5707  2.3223  0.7566
10690TIP3   OH253484   3.954   3.757   6.067 -0.5475 -0.6449 -0.6265
10690TIP3    H153485   3.997   3.838   6.038 -1.1580 -0.2140 -0.3421
10690TIP3    H253486   3.973   3.694   5.997  0.9976 -0.6172 -0.2404
10691TIP3   OH253487   2.410   3.636   5.467 -0.5305  0.3995 -0.0110
10691TIP3    H153488   2.459   3.566   5.422 -2.9241 -1.2380 -0.1581
10691TIP3    H253489   2.468   3.712   5.463  1.5040 -1.1559 -1.2065
10692TIP3   OH253490   0.120   1.490  11.348  0.7986 -0.5767 -0.5818
10692TIP3    H153491   0.165   1.408  11.324 -0.4992 -1.7896  0.9986
10692TIP3    H253492   0.052   1.463  11.410  0.2665  1.7063 -0.1174
10693TIP3   OH253493   5.365   5.114  11.373 -0.4366  0.1613 -0.5662
10693TIP3    H153494   5.280   5.070  11.364 -0.0862 -1.0733  1.6843
10693TIP3    H253495   5.387   5.104  11.466  1.3383  2.0319 -0.7551
10694TIP3   OH253496   3.551   3.043  12.163  0.5028 -0.2127 -0.0630
10694TIP3    H153497   3.584   2.956  12.185 -0.6131 -0.6329 -0.0062
10694TIP3    H253498   3.459   3.028  12.140 -1.0285  1.5138  4.3419
10695TIP3   OH253499   6.672   2.393  14.770  0.0431 -0.1163  0.0318
10695TIP3    H153500   6.582   2.374  14.744 -0.1869  0.1366  0.6412
10695TIP3    H253501   6.667   2.476  14.818  0.4568 -0.6039  0.9255
10696TIP3   OH253502   0.674   4.979  10.582  0.0320 -0.1377  0.2808
10696TIP3    H153503   0.669   5.032  10.661  1.3871 -1.1784  1.1000
10696TIP3    H253504   0.676   4.889  10.614  0.9390 -0.5535 -0.9196
10697TIP3   OH253505   1.638   2.746  15.989 -0.1154  0.5692 -0.0656
10697TIP3    H153506   1.589   2.789  15.920  0.0451  2.1551  0.7801
10697TIP3    H253507   1.701   2.812  16.018  0.6413 -0.4956  0.7397
10698TIP3   OH253508   1.619   0.444  11.583 -0.1968 -0.5059 -0.6691
10698TIP3    H153509   1.594   0.354  11.563 -2.6044  0.5888 -2.9082
10698TIP3    H253510   1.685   0.466  11.518 -1.0933 -0.0023 -1.4120
10699TIP3   OH253511   2.641   3.725  12.388  0.1671 -0.2108  0.3252
10699TIP3    H153512   2.600   3.646  12.351 -1.7710  1.0263 -0.2082
10699TIP3    H253513   2.717   3.741  12.331  0.0159 -1.1142 -0.1499
10700TIP3   OH253514   1.329   2.262  12.425  0.3489 -0.0884  0.6264
10700TIP3    H153515   1.413   2.287  12.387 -0.8167  0.8716 -1.3658
10700TIP3    H253516   1.298   2.342  12.469  0.6193 -0.5385  1.6546
10701TIP3   OH253517   5.093   5.168  13.356  0.4051  0.9208  0.2383
10701TIP3    H153518   5.168   5.121  13.319  0.0818  2.7339 -2.9520
10701TIP3    H253519   5.132   5.229  13.419  1.8495  2.6226 -2.1669
10702TIP3   OH253520   1.530   1.427  11.343 -0.1796  0.1034  0.2366
10702TIP3    H153521   1.589   1.353  11.328  0.2359  0.2809  0.9587
10702TIP3    H253522   1.457   1.390  11.393 -0.4814 -0.0328 -0.3047
10703TIP3   OH253523   1.512   0.351  16.108 -0.3934 -0.4376 -0.0410
10703TIP3    H153524   1.490   0.376  16.198 -0.6570 -0.2535 -0.1535
10703TIP3    H253525   1.463   0.270  16.093 -2.2597  0.8032 -0.8192
10704TIP3   OH253526   4.370   3.375   4.387 -0.0553  0.0529 -0.1464
10704TIP3    H153527   4.332   3.300   4.342  1.6733 -0.3575 -0.9442
10704TIP3    H253528   4.432   3.336   4.449 -1.5443  0.6678  1.7949
10705TIP3   OH253529   5.806   3.461  14.029 -0.3785 -0.4093  0.0579
10705TIP3    H153530   5.828   3.378  14.069 -0.3521 -0.8818 -0.9209
10705TIP3    H253531   5.753   3.438  13.953 -0.2227  0.4529 -0.3226
10706TIP3   OH253532   4.609   6.056   1.198  0.0261 -0.0988  0.2415
10706TIP3    H153533   4.601   6.082   1.106 -0.6374  0.3245  0.4110
10706TIP3    H253534   4.627   6.138   1.244 -0.5217 -0.1702  0.5927
10707TIP3   OH253535   5.037   2.845  13.930 -0.0198 -0.4013  0.4650
10707TIP3    H153536   5.107   2.894  13.972  0.3926 -1.2022  0.7119
10707TIP3    H253537   4.976   2.912  13.899 -0.1595  0.2034  2.0346
10708TIP3   OH253538   2.191   6.568   5.172 -0.0841  0.0978  0.1902
10708TIP3    H153539   2.246   6.529   5.104  0.5111  0.8336  0.2482
10708TIP3    H253540   2.191   6.662   5.153 -1.1925  0.1282  0.2841
10709TIP3   OH253541   3.144   1.364   2.701 -0.0430 -0.3920  0.2924
10709TIP3    H153542   3.194   1.288   2.733 -1.9182 -1.3771  0.9229
10709TIP3    H253543   3.070   1.371   2.760 -1.5009  0.1144 -1.5550
10710TIP3   OH253544   5.469   4.822  14.521  0.6113  0.1373  0.0246
10710TIP3    H153545   5.434   4.736  14.497  1.2129 -0.4280  1.1398
10710TIP3    H253546   5.407   4.884  14.483 -1.4137 -0.8260  1.6333
10711TIP3   OH253547   2.851   5.618   1.759 -0.0739 -0.2350  0.0911
10711TIP3    H153548   2.848   5.645   1.851 -0.9950  2.0446 -0.5649
10711TIP3    H253549   2.933   5.571   1.750 -0.7604 -1.9789  2.4690
10712TIP3   OH253550   0.704   5.626   0.626 -0.5870 -0.2054  0.0762
10712TIP3    H153551   0.758   5.692   0.581 -0.4975 -0.3336 -0.0051
10712TIP3    H253552   0.675   5.568   0.556 -1.1215  0.0659  0.0726
10713TIP3   OH253553   3.712   2.915   2.364  0.6713  0.2438 -0.1659
10713TIP3    H153554   3.739   2.825   2.346  2.5746  0.5763  0.8688
10713TIP3    H253555   3.741   2.965   2.288  0.0557  0.0698 -0.5175
10714TIP3   OH253556   3.137   5.299  14.336  0.0899  0.3865 -0.0906
10714TIP3    H153557   3.182   5.254  14.407  1.0779  0.3325 -0.7331
10714TIP3    H253558   3.044   5.285  14.353  0.3053  0.5786  1.3153
10715TIP3   OH253559   3.117   5.221   5.813  0.4086  0.6997 -0.0861
10715TIP3    H153560   3.063   5.262   5.881 -1.1400 -0.9409 -0.2911
10715TIP3    H253561   3.187   5.177   5.862 -0.8291 -0.6731  0.5260
10716TIP3   OH253562   0.876   3.129  12.270 -0.3119  0.3925  0.3196
10716TIP3    H153563   0.801   3.083  12.308  0.1577  0.2016  1.0236
10716TIP3    H253564   0.862   3.122  12.175 -0.8908 -0.1248  0.4357
10717TIP3   OH253565   3.169   3.644  11.508 -0.4480  0.5321  0.2917
10717TIP3    H153566   3.219   3.724  11.491  0.5107 -0.3029 -0.8673
10717TIP3    H253567   3.146   3.650  11.601  1.1729  1.2855  0.6590
10718TIP3   OH253568   1.719   2.200   3.820  0.1235 -0.1192  0.6552
10718TIP3    H153569   1.714   2.293   3.843 -0.9170 -0.3325  1.2818
10718TIP3    H253570   1.810   2.176   3.840  1.0284  1.2846 -1.5367
10719TIP3   OH253571   1.367   1.589   2.430  0.3778  0.5809  0.4994
10719TIP3    H153572   1.327   1.669   2.464  3.6618  1.7816  1.8294
10719TIP3    H253573   1.380   1.606   2.337  0.8242  1.5058  0.7273
10720TIP3   OH253574   3.149   0.076  16.364  0.5885 -0.6769  0.2236
10720TIP3    H153575   3.156   0.161  16.406  1.0815  0.7199 -2.6038
10720TIP3    H253576   3.057   0.070  16.336  0.5739 -1.0211  0.3437
10721TIP3   OH253577   6.555   6.316   1.184  0.2911 -0.4778 -0.0331
10721TIP3    H153578   6.593   6.245   1.235  0.6964 -0.1398  0.1401
10721TIP3    H253579   6.564   6.393   1.240 -0.6379 -0.3917 -0.0007
10722TIP3   OH253580   5.147   5.522   5.358 -0.0349  0.0076  0.4020
10722TIP3    H153581   5.068   5.512   5.411 -1.4222  1.3313 -1.3307
10722TIP3    H253582   5.158   5.617   5.350  1.6646 -0.1714  0.5057
10723TIP3   OH253583   3.481   0.678  13.598  0.2617  0.6598  0.2862
10723TIP3    H153584   3.438   0.748  13.547 -1.2364 -0.5820 -0.1984
10723TIP3    H253585   3.570   0.674  13.563 -0.1291  1.2183 -0.8053
10724TIP3   OH253586   4.375   1.596   1.842 -0.4447  0.0560 -0.7102
10724TIP3    H153587   4.411   1.523   1.791  2.1334  1.1450 -0.5041
10724TIP3    H253588   4.332   1.554   1.917  0.6001 -1.2702 -0.8433
10725TIP3   OH253589   4.136   5.262   5.762 -0.0624 -0.0384  0.2103
10725TIP3    H153590   4.205   5.253   5.696  0.4937  0.9541  0.6479
10725TIP3    H253591   4.128   5.174   5.801  1.7703  0.1022  0.9570
10726TIP3   OH253592   3.687   5.339  16.304  0.2517 -0.1394 -0.0470
10726TIP3    H153593   3.649   5.361  16.219  0.0454 -0.1459  0.0466
10726TIP3    H253594   3.757   5.403  16.316  0.8752 -0.7044 -0.6321
10727TIP3   OH253595   5.597   6.379   1.326  0.1274  0.2381  0.1476
10727TIP3    H153596   5.683   6.367   1.365 -1.0899  0.1515  2.8843
10727TIP3    H253597   5.577   6.294   1.287  1.0778  0.1319 -0.1215
10728TIP3   OH253598   5.828   1.600   1.159  0.6352  0.1202  0.7561
10728TIP3    H153599   5.744   1.629   1.122  1.8330  1.5319 -0.9788
10728TIP3    H253600   5.820   1.505   1.166 -0.1238 -0.0602 -2.0057
10729TIP3   OH253601   1.171   2.417  10.847 -0.2243 -0.4017 -0.3033
10729TIP3    H153602   1.246   2.360  10.828 -0.2936 -0.8001  0.5806
10729TIP3    H253603   1.110   2.360  10.894 -0.0841  0.5254  1.0169
10730TIP3   OH253604   1.592   2.276   6.606  1.0114 -0.3710  0.0070
10730TIP3    H153605   1.540   2.248   6.681  0.7159 -0.2047 -0.1327
10730TIP3    H253606   1.683   2.272   6.636  1.0421 -2.2494 -0.2487
10731TIP3   OH253607   3.836   3.735  16.005 -0.6076  0.0119 -0.2740
10731TIP3    H153608   3.741   3.725  15.997 -0.9526 -0.3319  3.6465
10731TIP3    H253609   3.868   3.646  16.022  0.3036  0.2956 -0.5047
10732TIP3   OH253610   4.241   5.843   5.843  0.3319  0.1196 -0.1015
10732TIP3    H153611   4.284   5.882   5.919  0.6499  0.2317 -0.3425
10732TIP3    H253612   4.177   5.783   5.881  1.0226 -0.3992  0.2504
10733TIP3   OH253613   1.370   4.954   0.612 -0.0256  0.2892  0.3198
10733TIP3    H153614   1.322   4.879   0.576  0.2576 -0.1395  0.8312
10733TIP3    H253615   1.308   5.027   0.606 -0.0622  0.1726 -0.8157
10734TIP3   OH253616   1.233   3.387  13.545  0.4208  0.0815 -0.2006
10734TIP3    H153617   1.162   3.327  13.565  0.7301 -1.0669 -2.3940
10734TIP3    H253618   1.303   3.364  13.606 -0.4667  0.0754  0.8124
10735TIP3   OH253619   4.142   2.997   0.358 -0.4795  0.1537  0.1044
10735TIP3    H153620   4.141   3.092   0.342  1.3549  0.0179 -0.9415
10735TIP3    H253621   4.099   2.959   0.282  0.5290  0.0307 -0.4062
10736TIP3   OH253622   5.429   1.122  13.306  0.1044 -0.3531 -0.0012
10736TIP3    H153623   5.402   1.208  13.272 -0.5399  0.3967  2.3315
10736TIP3    H253624   5.388   1.060  13.246 -2.8509  0.8994  0.5902
10737TIP3   OH253625   5.521   4.744  12.177 -0.1873 -0.2458  0.7398
10737TIP3    H153626   5.442   4.696  12.201 -1.0238  0.6576 -0.1457
10737TIP3    H253627   5.497   4.836  12.188  0.9149  0.0276  0.9772
10738TIP3   OH253628   3.422   1.150  15.615  0.4417 -0.2921 -0.2307
10738TIP3    H153629   3.386   1.238  15.604 -3.4644 -1.7800 -0.0640
10738TIP3    H253630   3.428   1.137  15.709 -2.8653 -1.6259 -0.1517
10739TIP3   OH253631   5.224   4.716   5.378 -0.5634 -0.1627 -0.1252
10739TIP3    H153632   5.255   4.792   5.330 -2.4221  0.2858 -0.6843
10739TIP3    H253633   5.239   4.642   5.319  0.8207 -0.1647  0.2312
10740TIP3   OH253634   2.995   5.547   0.336  0.1684  0.2593 -0.6978
10740TIP3    H153635   3.022   5.457   0.351  0.5735  0.6596  1.0978
10740TIP3    H253636   3.073   5.591   0.302  0.5171  0.3777  0.2531
10741TIP3   OH253637   0.469   5.208  16.245 -0.3749  0.3105 -0.7387
10741TIP3    H153638   0.540   5.211  16.310  0.3940  1.6769 -1.6162
10741TIP3    H253639   0.401   5.156  16.287  0.3486  0.6591  0.9317
10742TIP3   OH253640   3.269   1.083  13.698  0.4371  0.1503 -0.1834
10742TIP3    H153641   3.336   1.079  13.630 -0.7280 -0.7291 -1.3132
10742TIP3    H253642   3.192   1.041  13.658 -1.3029  2.6057  0.5075
10743TIP3   OH253643   2.646   3.067   2.048 -0.0710 -0.4012 -0.1859
10743TIP3    H153644   2.704   2.992   2.038 -1.2703 -1.4668  0.7457
10743TIP3    H253645   2.624   3.093   1.959  0.2091 -1.2658 -0.5093
10744TIP3   OH253646   4.932   1.817  15.825  0.3190 -0.0776 -0.4392
10744TIP3    H153647   4.882   1.736  15.832  1.0185 -0.3956  1.1611
10744TIP3    H253648   4.928   1.840  15.733  0.4646 -2.1795 -0.9915
10745TIP3   OH253649   1.541   4.015   4.714 -1.0322  0.2709  0.3937
10745TIP3    H153650   1.545   4.006   4.810  0.1743 -1.3382  0.2110
10745TIP3    H253651   1.599   4.088   4.695  1.9863 -1.9783  0.5928
10746TIP3   OH253652   1.344   1.078   0.721  0.0503  0.0746 -0.2218
10746TIP3    H153653   1.435   1.079   0.690  1.2721  0.8789  3.1843
10746TIP3    H253654   1.336   0.995   0.767  0.2923  1.6265  2.7452
10747TIP3   OH253655   1.515   6.711  12.336 -0.6469  0.0392  0.2116
10747TIP3    H153656   1.538   6.736  12.247  0.6404  0.2263  0.5795
10747TIP3    H253657   1.420   6.724  12.341 -0.4898  1.6730 -0.6066
10748TIP3   OH253658   5.504   5.046   5.557  0.2278 -0.5704 -0.1667
10748TIP3    H153659   5.433   5.083   5.609  1.3167  1.5716 -0.1477
10748TIP3    H253660   5.580   5.049   5.614  0.5294 -2.1011 -0.4671
10749TIP3   OH253661   5.303   4.340   1.233 -0.2661  0.0665 -0.2678
10749TIP3    H153662   5.366   4.413   1.233 -1.1733  0.8738  0.8405
10749TIP3    H253663   5.230   4.372   1.181 -0.1463 -0.5161 -0.7891
10750TIP3   OH253664   4.928   0.285  12.082 -0.0355 -0.1206 -0.6822
10750TIP3    H153665   4.904   0.274  11.990 -0.7783 -2.1462 -0.2851
10750TIP3    H253666   5.024   0.294  12.081  0.0104 -0.6175 -1.6224
10751TIP3   OH253667   3.958   5.113  12.920  0.8646 -0.3933  0.1361
10751TIP3    H153668   4.035   5.096  12.975  0.9976 -0.6923 -0.1310
10751TIP3    H253669   3.884   5.084  12.972  0.7996  1.3142  0.9906
10752TIP3   OH253670   3.295   3.655  10.794  0.4423  0.4462 -0.1348
10752TIP3    H153671   3.248   3.716  10.738  0.5562  0.0017 -0.7089
10752TIP3    H253672   3.226   3.606  10.840  0.3449  1.4585  0.8326
10753TIP3   OH253673   0.930   3.050   5.105  0.0489 -0.5393 -0.1885
10753TIP3    H153674   0.968   3.136   5.084 -0.6658  0.1565  1.3274
10753TIP3    H253675   0.848   3.070   5.149  0.0449 -2.0163  0.4993
10754TIP3   OH253676   2.960   3.581  14.599  0.0666  0.4951  0.3007
10754TIP3    H153677   3.049   3.576  14.633  0.9739 -0.0923 -2.0523
10754TIP3    H253678   2.904   3.572  14.676  2.0106 -0.8363  1.5967
10755TIP3   OH253679   4.211   4.013   3.701 -0.0534 -0.4904  0.0594
10755TIP3    H153680   4.127   3.970   3.681  0.3655 -0.7842 -1.1006
10755TIP3    H253681   4.225   4.073   3.628  1.2570 -1.1990 -0.2802
10756TIP3   OH253682   1.007   1.170  15.520 -0.2559 -0.2875 -0.5806
10756TIP3    H153683   0.999   1.075  15.530 -0.0591 -0.3316 -0.8405
10756TIP3    H253684   1.030   1.202  15.607  0.1670 -0.5290 -0.6019
10757TIP3   OH253685   1.601   2.981   0.002 -0.6547 -0.7150  0.0929
10757TIP3    H153686   1.629   2.940   0.085 -0.6303 -2.3138 -0.6870
10757TIP3    H253687   1.530   2.926  -0.029 -0.5398 -0.2324 -1.0462
10758TIP3   OH253688   1.404   5.157   2.642  0.3737 -0.5391 -0.3394
10758TIP3    H153689   1.342   5.164   2.569 -0.5624  0.8268  0.5657
10758TIP3    H253690   1.434   5.247   2.656  1.0038 -0.8887  0.5664
10759TIP3   OH253691   6.306   0.251   1.649  0.0093  0.1217  0.0494
10759TIP3    H153692   6.311   0.327   1.590  2.6378  0.4250  0.6232
10759TIP3    H253693   6.233   0.199   1.614  0.5330  1.0511 -2.5724
10760TIP3   OH253694   6.519   2.206  15.476 -0.1496 -0.5404  0.4475
10760TIP3    H153695   6.579   2.135  15.453  0.7810 -0.4912  2.6028
10760TIP3    H253696   6.435   2.162  15.492  0.1716 -1.0391  0.7790
10761TIP3   OH253697   4.813   0.271   1.024  0.2356  0.2796 -0.2030
10761TIP3    H153698   4.724   0.240   1.041 -0.3758  1.3425 -1.3214
10761TIP3    H253699   4.859   0.194   0.988 -0.5184 -0.0223 -0.5392
10762TIP3   OH253700   5.585   1.440   1.558  0.5307 -0.4244 -0.1411
10762TIP3    H153701   5.621   1.510   1.612  0.9885 -0.7886  0.0318
10762TIP3    H253702   5.556   1.484   1.478 -2.6511  0.5619  1.4495
10763TIP3   OH253703   5.891   3.076  11.052 -0.3046  0.0547 -0.0746
10763TIP3    H153704   5.795   3.070  11.044 -0.5652  0.3802  2.4369
10763TIP3    H253705   5.915   3.150  10.996 -1.4786 -0.2413 -0.9868
10764TIP3   OH253706   3.793   1.973   2.630 -0.2201  0.3951 -0.5399
10764TIP3    H153707   3.705   1.935   2.635  1.0227 -2.3798  2.4040
10764TIP3    H253708   3.803   2.023   2.712  1.5109 -0.7946  0.0224
10765TIP3   OH253709   1.459   2.410   0.002  0.0761 -0.2645 -0.1353
10765TIP3    H153710   1.453   2.486  -0.056  0.0137 -0.1367  0.0358
10765TIP3    H253711   1.417   2.439   0.084 -1.5278 -1.0461 -0.6449
10766TIP3   OH253712   0.285   1.196  17.191  0.4924  0.6375 -0.6784
10766TIP3    H153713   0.352   1.155  17.135  0.8841  2.4925 -1.6357
10766TIP3    H253714   0.327   1.205  17.276  0.0791 -1.7415 -0.2093
10767TIP3   OH253715   1.919   1.188   5.501 -0.9052 -0.2670 -0.2616
10767TIP3    H153716   1.853   1.219   5.563 -1.0694  1.8186 -1.4277
10767TIP3    H253717   1.875   1.189   5.416  0.5082  0.9182 -1.0231
10768TIP3   OH253718   0.704   6.325   0.559 -0.3823 -0.3615  0.5937
10768TIP3    H153719   0.660   6.282   0.485 -0.0457  1.3089 -0.6088
10768TIP3    H253720   0.652   6.301   0.635 -1.8618 -0.5492 -0.4564
10769TIP3   OH253721   3.011   0.471   2.232 -0.5470 -0.1858 -0.1210
10769TIP3    H153722   3.085   0.457   2.173 -0.2591 -0.5912  0.3378
10769TIP3    H253723   3.046   0.519   2.306 -0.0403 -3.0702  1.5807
10770TIP3   OH253724   5.168   6.658  12.559 -0.1321  0.0692 -0.3311
10770TIP3    H153725   5.167   6.745  12.520  0.3639 -0.5708 -1.8153
10770TIP3    H253726   5.084   6.620  12.534 -0.0665 -0.1210 -0.2642
10771TIP3   OH253727   4.412   3.905  15.471  0.3861  0.6134 -0.0470
10771TIP3    H153728   4.485   3.959  15.503  0.5393 -0.5432  1.6433
10771TIP3    H253729   4.341   3.921  15.533  0.7118 -1.7302  1.0003
10772TIP3   OH253730   0.862   4.939  10.362 -0.1030 -0.3704  0.3080
10772TIP3    H153731   0.775   4.945  10.402  0.1456  0.6321  0.6944
10772TIP3    H253732   0.919   4.905  10.431  0.0360  0.0142  0.3838
10773TIP3   OH253733   5.848   2.421  16.446  0.1048 -0.0903 -0.6415
10773TIP3    H153734   5.849   2.460  16.533  1.5441 -1.2001 -0.1238
10773TIP3    H253735   5.772   2.364  16.446 -0.3702  0.5378 -0.4020
10774TIP3   OH253736   4.889   2.844   0.349  0.0420 -0.1237  0.1229
10774TIP3    H153737   4.952   2.914   0.360  1.2921 -1.3051  0.5456
10774TIP3    H253738   4.933   2.779   0.294 -1.0646 -0.6248 -0.2077
10775TIP3   OH253739   0.312   5.737   1.739 -0.3487 -0.2683  0.8865
10775TIP3    H153740   0.379   5.731   1.807  0.0803 -0.3966  0.4608
10775TIP3    H253741   0.266   5.819   1.757 -0.0583 -0.1660  1.1647
10776TIP3   OH253742   0.494   6.717   5.797 -0.5274 -0.2366 -0.4351
10776TIP3    H153743   0.438   6.716   5.719  0.9665  0.4905 -1.5425
10776TIP3    H253744   0.579   6.687   5.766  0.0251 -0.1482  0.9684
10777TIP3   OH253745   3.169   3.188   5.450 -0.6469 -0.1140  0.2416
10777TIP3    H153746   3.081   3.152   5.437 -0.5004 -0.8359  1.1661
10777TIP3    H253747   3.223   3.112   5.473 -0.3108  0.6623  2.1162
10778TIP3   OH253748   3.446   4.199  12.639  0.2402  0.4652  0.3919
10778TIP3    H153749   3.379   4.224  12.575 -0.0232 -0.0965  0.4506
10778TIP3    H253750   3.522   4.174  12.586  0.2354  0.6127  0.3160
10779TIP3   OH253751   0.465   0.836  11.676 -0.7832 -0.1968  0.4228
10779TIP3    H153752   0.491   0.769  11.613  1.0872  1.0864 -0.2323
10779TIP3    H253753   0.433   0.908  11.621 -1.6378 -0.0846  1.0670
10780TIP3   OH253754   2.422   5.383  12.572 -0.2637 -0.1095 -0.0924
10780TIP3    H153755   2.443   5.338  12.653 -0.4002 -0.0705 -0.0356
10780TIP3    H253756   2.374   5.319  12.520 -2.6203  0.7236  0.9717
10781TIP3   OH253757   0.729   2.306  16.152  0.1069 -0.0033 -0.0107
10781TIP3    H153758   0.721   2.377  16.088  0.6271 -0.0974 -0.1848
10781TIP3    H253759   0.821   2.280  16.146  0.1700  0.0360  0.8285
10782TIP3   OH253760   0.840   0.777   3.328 -0.2696 -0.2092  0.7294
10782TIP3    H153761   0.836   0.786   3.232  0.4217 -1.6176  0.5500
10782TIP3    H253762   0.894   0.699   3.342  1.9583  1.5309  2.3273
10783TIP3   OH253763   4.775   4.925   2.504 -0.0216  0.0106  0.3503
10783TIP3    H153764   4.687   4.888   2.504 -0.1651  0.3410 -0.6959
10783TIP3    H253765   4.828   4.862   2.455  0.0946  0.3250  0.0610
10784TIP3   OH253766   4.039   3.074  14.153  0.0311  0.3237  0.2972
10784TIP3    H153767   4.014   2.990  14.114 -0.1606  0.7168 -0.4197
10784TIP3    H253768   3.980   3.138  14.114  2.8612  1.4536 -2.2977
10785TIP3   OH253769   6.034   6.099  12.741  0.4679  0.2507  0.1216
10785TIP3    H153770   6.032   6.076  12.648  0.8809  0.2070  0.1242
10785TIP3    H253771   5.961   6.160  12.752  1.5421  1.6919 -0.6105
10786TIP3   OH253772   5.395   1.429  16.724  0.3036 -0.0313  0.4562
10786TIP3    H153773   5.405   1.509  16.672  0.5055 -0.0854  0.4106
10786TIP3    H253774   5.310   1.439  16.766 -0.2021 -0.3252 -0.4731
10787TIP3   OH253775   1.413   0.840   3.220  0.3397 -0.1265 -0.1375
10787TIP3    H153776   1.352   0.797   3.159  0.1615  0.4130 -0.3419
10787TIP3    H253777   1.500   0.810   3.191  0.2240 -0.2901 -0.3257
10788TIP3   OH253778   4.379   2.611  11.658 -0.8688  0.1370  0.1133
10788TIP3    H153779   4.381   2.515  11.654 -1.4952  0.0901  0.8672
10788TIP3    H253780   4.342   2.638  11.574  2.3553 -0.1454 -1.4722
10789TIP3   OH253781   0.263   5.918   2.399  0.2557 -0.1286  0.3242
10789TIP3    H153782   0.292   5.895   2.487 -1.7153 -2.0959  0.4970
10789TIP3    H253783   0.322   5.871   2.340  0.3020 -0.4283  0.6112
10790TIP3   OH253784   5.514   5.569   3.143  0.2823  0.2402  0.4167
10790TIP3    H153785   5.433   5.530   3.177 -0.3762  1.3579  0.1481
10790TIP3    H253786   5.503   5.663   3.156  1.7984  0.3611  0.9230
10791TIP3   OH253787   1.787   6.161   2.627 -0.0060 -0.0164  0.3859
10791TIP3    H153788   1.848   6.090   2.646  1.1646  0.5835 -0.9924
10791TIP3    H253789   1.843   6.238   2.612 -1.2332  1.1383  1.6016
10792TIP3   OH253790   6.543   3.419  11.348  0.2464 -0.2117  0.2955
10792TIP3    H153791   6.470   3.376  11.393  0.2807  0.3959  0.9401
10792TIP3    H253792   6.502   3.485  11.293  0.3086  0.2052  0.7420
10793TIP3   OH253793   2.534   1.158  14.590 -0.0499 -0.7079  0.5515
10793TIP3    H153794   2.541   1.064  14.573 -0.7826 -0.5236 -0.8853
10793TIP3    H253795   2.554   1.199  14.506 -0.7589  0.3804  0.8998
10794TIP3   OH253796   6.757   0.835   2.565 -0.2211 -0.1110  0.5412
10794TIP3    H153797   6.672   0.870   2.591 -0.2586 -0.5584  1.0228
10794TIP3    H253798   6.800   0.812   2.648  0.3768  0.1255  0.3038
10795TIP3   OH253799   6.525   2.219   4.627 -0.1498  0.4580 -0.1141
10795TIP3    H153800   6.530   2.128   4.656 -1.7395  0.3694 -0.0637
10795TIP3    H253801   6.573   2.269   4.692  0.2506 -0.2866  0.1579
10796TIP3   OH253802   3.782   6.255  13.804 -0.2280  0.8171 -0.1020
10796TIP3    H153803   3.861   6.308  13.802  1.3531 -1.4935 -1.9421
10796TIP3    H253804   3.782   6.214  13.890  0.4630  1.0417  0.0083
10797TIP3   OH253805   5.806   5.834  15.291 -0.1392 -0.5180  0.1216
10797TIP3    H153806   5.839   5.775  15.359 -0.2080  0.3700  0.9539
10797TIP3    H253807   5.798   5.780  15.213  2.5218 -0.9439  0.1015
10798TIP3   OH253808   0.375   6.673   0.040 -0.2082  0.2511  0.0558
10798TIP3    H153809   0.390   6.747   0.098 -0.6925 -0.6564  1.3455
10798TIP3    H253810   0.370   6.597   0.097 -0.5341 -0.6841 -1.1783
10799TIP3   OH253811   0.618   0.973  16.033 -0.1067 -0.3803 -0.3124
10799TIP3    H153812   0.705   1.011  16.022  0.8990 -2.1183  1.2393
10799TIP3    H253813   0.624   0.887  15.992 -0.5946 -1.1441  1.1732
10800TIP3   OH253814   6.692   2.766   4.304 -0.1044 -0.0403  0.0578
10800TIP3    H153815   6.632   2.730   4.369 -0.7945  0.0848 -0.4985
10800TIP3    H253816   6.657   2.737   4.220 -0.8761  2.1717 -0.4249
10801TIP3   OH253817   4.522   1.594  14.665 -0.2358  0.4896  0.4611
10801TIP3    H153818   4.609   1.604  14.702 -0.1630 -1.7477  0.9363
10801TIP3    H253819   4.472   1.667  14.702  0.8087  0.4186  2.0707
10802TIP3   OH253820   3.326   0.456   5.209 -0.2215 -0.5054  0.4654
10802TIP3    H153821   3.258   0.422   5.152 -0.5901 -1.5109  1.4888
10802TIP3    H253822   3.324   0.400   5.286  1.3496 -0.1679  0.7827
10803TIP3   OH253823   5.168   2.654  11.740 -0.4465  0.0491 -0.0628
10803TIP3    H153824   5.138   2.726  11.796 -2.8357 -0.2045 -0.9992
10803TIP3    H253825   5.248   2.623  11.783 -0.6019  1.7903  1.5741
10804TIP3   OH253826   4.842   3.871   2.439  0.6454 -0.3184 -0.0266
10804TIP3    H153827   4.780   3.825   2.382  0.3543 -0.9388  0.7832
10804TIP3    H253828   4.850   3.958   2.400 -1.8970  0.2751  0.6830
10805TIP3   OH253829   6.658   4.222  15.282 -0.3055 -0.1341  0.1768
10805TIP3    H153830   6.579   4.252  15.327  0.9553  0.5172  2.0082
10805TIP3    H253831   6.705   4.302  15.261  0.2596 -0.5554 -0.1660
10806TIP3   OH253832   6.529   6.488  12.012  0.3029  0.1901 -0.1663
10806TIP3    H153833   6.473   6.554  12.054  0.1752  0.6150 -0.9948
10806TIP3    H253834   6.488   6.473  11.927  2.3380  1.7015 -1.4496
10807TIP3   OH253835   3.675   0.874  16.279 -0.2245 -0.1374  0.1674
10807TIP3    H153836   3.623   0.935  16.332 -0.0942  0.2361 -0.1283
10807TIP3    H253837   3.663   0.789  16.321 -0.8850 -0.0136  0.2366
10808TIP3   OH253838   4.028   0.007  13.323 -0.1474 -0.0975  0.4600
10808TIP3    H153839   4.039   0.034  13.231  0.2404 -0.8854  0.2803
10808TIP3    H253840   4.107  -0.042  13.344 -0.6119 -0.6330  0.9646
10809TIP3   OH253841   3.597   2.223   5.886  0.5811 -0.1161 -0.8253
10809TIP3    H153842   3.542   2.208   5.963  1.9462 -0.8994  0.0171
10809TIP3    H253843   3.655   2.294   5.911  0.0717  0.5989 -1.6522
10810TIP3   OH253844   3.106   2.719   4.420 -0.6698 -0.1933 -0.6652
10810TIP3    H153845   3.173   2.712   4.487  0.3666  1.1177 -1.5359
10810TIP3    H253846   3.047   2.788   4.452 -1.6700 -1.3819  0.1260
10811TIP3   OH253847   1.551   3.691   1.698 -0.7069 -0.3912  0.2222
10811TIP3    H153848   1.595   3.772   1.726 -0.4445 -1.1879  2.1258
10811TIP3    H253849   1.622   3.637   1.664 -0.9856  0.4543 -1.8046
10812TIP3   OH253850   0.130   1.624   5.836  0.2715 -0.0372  0.1293
10812TIP3    H153851   0.108   1.611   5.744  2.9109 -0.7994 -0.4185
10812TIP3    H253852   0.138   1.718   5.846 -1.3227  0.1408 -0.0729
10813TIP3   OH253853   2.299   5.787   3.021 -0.1398 -0.2952 -0.6836
10813TIP3    H153854   2.208   5.785   2.993 -0.5720 -0.0715  0.6586
10813TIP3    H253855   2.318   5.697   3.047 -0.2615 -0.1491 -0.0878
10814TIP3   OH253856   4.993   6.128  12.778 -0.1914 -0.2720 -0.2553
10814TIP3    H153857   5.006   6.164  12.690  0.2806 -1.3623 -0.6369
10814TIP3    H253858   4.936   6.052  12.765  0.5695 -0.9358  0.2626
10815TIP3   OH253859   0.394   4.736   5.953  0.6168 -0.4108 -0.0306
10815TIP3    H153860   0.385   4.793   6.029  0.9690  0.3166 -0.5340
10815TIP3    H253861   0.315   4.681   5.955  0.1600  0.2512  0.3218
10816TIP3   OH253862   4.059   3.118   4.459 -0.4489 -0.3295 -0.4438
10816TIP3    H153863   4.049   3.201   4.506 -1.9673 -0.5919 -0.2686
10816TIP3    H253864   4.107   3.141   4.380  2.0304  0.1537  1.1312
10817TIP3   OH253865   0.036   3.164   3.219  0.0228  0.0768 -0.1321
10817TIP3    H153866   0.038   3.251   3.179 -0.7793 -0.1454 -0.6676
10817TIP3    H253867   0.016   3.181   3.311 -2.1318  0.3601 -0.6164
10818TIP3   OH253868   6.106   3.957  13.630  0.7328  0.1811  1.1479
10818TIP3    H153869   6.142   3.934  13.715 -0.5091 -0.5455  1.4881
10818TIP3    H253870   6.012   3.961  13.643  0.3691 -1.6926 -0.5702
10819TIP3   OH253871   0.638   6.209   0.789  0.0193 -0.6158 -0.1074
10819TIP3    H153872   0.595   6.137   0.836 -0.3801  0.2762  0.8966
10819TIP3    H253873   0.677   6.263   0.857  0.2216  0.1933 -0.8540
10820TIP3   OH253874   1.525   6.178   2.744  0.3594  0.6842  0.2777
10820TIP3    H153875   1.488   6.239   2.680  1.0399  0.9436  0.1305
10820TIP3    H253876   1.614   6.162   2.713  0.6253  0.6473  1.0554
10821TIP3   OH253877   0.139   1.553  15.747  0.3074  0.1445  0.0934
10821TIP3    H153878   0.130   1.461  15.773 -0.3950  0.5410  1.2467
10821TIP3    H253879   0.226   1.558  15.708  1.3482 -0.4656  2.3060
10822TIP3   OH253880   5.035   5.204  17.076  0.1751 -0.2770 -0.1140
10822TIP3    H153881   4.975   5.240  17.010 -0.6019 -2.6212 -0.7788
10822TIP3    H253882   5.121   5.210  17.036 -0.2153 -1.0867 -1.1169
10823TIP3   OH253883   2.134   0.200   3.690 -0.0490 -0.0535 -0.4577
10823TIP3    H153884   2.222   0.206   3.653 -0.1695  1.3494 -0.5515
10823TIP3    H253885   2.148   0.197   3.784  0.1090  0.0804 -0.4761
10824TIP3   OH253886   2.147   6.075   0.469 -0.1804 -0.6149  0.0881
10824TIP3    H153887   2.103   6.021   0.534 -1.3340  0.1546 -0.0398
10824TIP3    H253888   2.103   6.054   0.386 -0.2133  0.0503 -0.0672
10825TIP3   OH253889   6.697   3.775   3.616  0.2828 -0.0664 -0.1560
10825TIP3    H153890   6.671   3.686   3.641 -0.8298 -0.3931 -2.3843
10825TIP3    H253891   6.779   3.789   3.664  0.6974 -2.4437 -0.0783
10826TIP3   OH253892   1.896   2.927  14.281 -0.4002  0.5188 -0.3758
10826TIP3    H153893   1.911   2.933  14.187  1.7317 -2.2206 -0.2835
10826TIP3    H253894   1.809   2.889  14.289 -0.9881  1.6637 -1.2153
10827TIP3   OH253895   5.358   3.088  13.743  0.1632 -0.0632  1.0009
10827TIP3    H153896   5.357   3.174  13.785 -0.2763  0.4642 -0.0683
10827TIP3    H253897   5.270   3.079  13.706  0.3408 -0.8022  0.7548
10828TIP3   OH253898   1.984   4.064  15.766 -0.1806 -0.4729 -0.2083
10828TIP3    H153899   1.962   4.156  15.749  0.7986 -0.4107 -1.2043
10828TIP3    H253900   1.988   4.058  15.861  0.7696  0.7606 -0.1577
10829TIP3   OH253901   5.021   0.038   6.325  0.4174 -0.1188 -0.2441
10829TIP3    H153902   5.050   0.123   6.358  1.0735  0.8456 -3.1821
10829TIP3    H253903   4.970   0.001   6.397 -0.1069  2.8512  0.9959
10830TIP3   OH253904   2.605   2.240  15.662 -0.2878  0.0065  0.7174
10830TIP3    H153905   2.640   2.323  15.630 -1.9018  0.6373  0.5599
10830TIP3    H253906   2.617   2.178  15.590  2.3520 -0.3284  1.3818
10831TIP3   OH253907   4.527   2.834   5.819  0.0766 -0.3185  0.2416
10831TIP3    H153908   4.585   2.789   5.881 -0.1789 -0.8315  0.1155
10831TIP3    H253909   4.558   2.805   5.733 -0.7587 -1.0839  0.1933
10832TIP3   OH253910   6.656   3.903  17.208 -0.1506 -0.3251  0.1297
10832TIP3    H153911   6.696   3.875  17.126 -0.4137  0.0689 -0.1355
10832TIP3    H253912   6.609   3.826  17.240  0.8474 -0.8050  0.4660
10833TIP3   OH253913   6.709   1.731  14.602  0.2398 -0.3165 -0.4864
10833TIP3    H153914   6.657   1.676  14.544  0.5943 -2.6506  1.3314
10833TIP3    H253915   6.799   1.703  14.587  0.3770 -0.6033  0.7881
10834TIP3   OH253916   6.104   3.856  12.765  0.1813 -0.6150  0.6137
10834TIP3    H153917   6.190   3.854  12.721 -0.5620  0.5089 -0.9434
10834TIP3    H253918   6.124   3.884  12.854  1.4602 -0.4575  0.2989
10835TIP3   OH253919   4.228   5.939   2.114  0.6691  0.1757  0.2189
10835TIP3    H153920   4.256   5.878   2.182  1.3872  0.7557  0.4509
10835TIP3    H253921   4.146   5.976   2.147  0.7695  0.1018  0.5531
10836TIP3   OH253922   2.450   3.317   5.632  0.5283  0.4143 -0.2108
10836TIP3    H153923   2.505   3.276   5.698  1.0429  1.4164 -0.0147
10836TIP3    H253924   2.467   3.268   5.552 -1.8180 -2.2995  0.8930
10837TIP3   OH253925   1.412   6.683  16.033  0.3105 -0.1075  0.3464
10837TIP3    H153926   1.501   6.683  15.998 -0.4300 -1.2486 -1.5801
10837TIP3    H253927   1.402   6.598  16.075  0.0975 -0.0088  0.5058
10838TIP3   OH253928   5.172   4.857  17.204 -0.4292  0.0041  0.2920
10838TIP3    H153929   5.114   4.917  17.251 -0.3229  0.5777 -0.2951
10838TIP3    H253930   5.156   4.876  17.111 -0.4890 -0.9686  0.0920
10839TIP3   OH253931   3.943   4.514   3.236  0.0846 -0.4730  0.0590
10839TIP3    H153932   3.995   4.594   3.250  0.3774 -0.8475  1.2493
10839TIP3    H253933   3.971   4.481   3.151  1.4259 -0.3660  0.4386
10840TIP3   OH253934   6.478   0.135   5.883  0.0173 -0.2022  0.2252
10840TIP3    H153935   6.479   0.222   5.845 -0.9755 -0.3456 -0.1412
10840TIP3    H253936   6.516   0.078   5.816  1.1488  0.0171  0.6649
10841TIP3   OH253937   3.770   4.908   0.272 -0.0002  0.4999  0.0802
10841TIP3    H153938   3.850   4.902   0.221  0.4455  0.3038  0.7934
10841TIP3    H253939   3.700   4.913   0.207  0.5439  0.0824 -0.5442
10842TIP3   OH253940   1.857   4.665   3.329 -0.0457 -0.6384 -0.1516
10842TIP3    H153941   1.943   4.656   3.288  0.8889 -0.9173  1.8146
10842TIP3    H253942   1.853   4.756   3.358 -0.0018 -0.8832  0.6363
10843TIP3   OH253943   2.644   5.945   6.007 -0.6715  0.3236 -0.2035
10843TIP3    H153944   2.625   5.869   5.952 -0.8514  1.0009 -1.0962
10843TIP3    H253945   2.655   5.909   6.095  0.1640 -0.8436 -0.7689
10844TIP3   OH253946   6.189   3.790   0.461  0.2881  0.2140 -0.0889
10844TIP3    H153947   6.180   3.751   0.548 -0.8319 -0.0399 -0.3051
10844TIP3    H253948   6.277   3.767   0.433 -0.6068 -2.8647 -0.5301
10845TIP3   OH253949   5.274   4.299  14.121 -0.6764  0.6433  0.1588
10845TIP3    H153950   5.257   4.330  14.032 -1.1917 -2.5393 -0.9047
10845TIP3    H253951   5.188   4.281  14.158 -0.5674  3.3473  1.9065
10846TIP3   OH253952   4.381   0.670   4.322 -0.3883 -0.3767  0.0925
10846TIP3    H153953   4.287   0.681   4.308 -0.0332  0.8615 -1.4869
10846TIP3    H253954   4.417   0.656   4.235  1.2193  1.9503  0.3083
10847TIP3   OH253955   2.598   0.407   5.897 -0.3841 -0.2368 -0.2568
10847TIP3    H153956   2.526   0.344   5.897  0.1018 -0.7993  0.8064
10847TIP3    H253957   2.574   0.470   5.829 -2.2170 -0.0267  0.5607
10848TIP3   OH253958   6.655   5.263  16.179  0.5933 -0.2279 -0.1374
10848TIP3    H153959   6.559   5.259  16.185  0.7203 -0.9340  1.6337
10848TIP3    H253960   6.674   5.233  16.090 -0.9002  1.2617 -1.0028
10849TIP3   OH253961   2.913   5.859   5.865  0.5622  0.4655  0.2303
10849TIP3    H153962   2.948   5.775   5.895 -1.4977 -0.3239  0.4977
10849TIP3    H253963   2.917   5.916   5.942 -2.3194 -0.8004  1.3950
10850TIP3   OH253964   6.314   4.034  16.416  0.0848 -0.1441 -0.6197
10850TIP3    H153965   6.264   4.025  16.497  1.0088  0.0058 -0.0274
10850TIP3    H253966   6.249   4.062  16.351 -0.4751  0.7546  0.3017
10851TIP3   OH253967   4.941   6.149   5.529  0.3624  0.3664 -0.2320
10851TIP3    H153968   4.933   6.109   5.616 -0.8509  0.8635 -0.1078
10851TIP3    H253969   5.033   6.137   5.506  0.6476  0.0377  1.0314
10852TIP3   OH253970   0.963   3.536   3.738 -0.0428 -0.0007 -0.8283
10852TIP3    H153971   1.046   3.568   3.774 -0.5095  2.5412 -1.9347
10852TIP3    H253972   0.925   3.483   3.808  1.5513  0.5031  0.4427
10853TIP3   OH253973   3.899   1.438   1.309 -0.2828  1.0154  1.0491
10853TIP3    H153974   3.854   1.482   1.381 -0.6963  1.1060  0.7311
10853TIP3    H253975   3.987   1.476   1.309  0.4346 -0.5079  2.9022
10854TIP3   OH253976   6.406   2.393  14.654  0.0339 -0.0784 -0.0882
10854TIP3    H153977   6.425   2.402  14.561  1.5716 -0.1132  0.1929
10854TIP3    H253978   6.330   2.336  14.659 -0.5147  0.5313 -1.3465
10855TIP3   OH253979   5.819   6.368   3.102 -0.0279 -0.3626 -0.7652
10855TIP3    H153980   5.751   6.384   3.168  0.0147 -0.3713 -0.7199
10855TIP3    H253981   5.771   6.360   3.020  0.0172  0.8429 -0.9174
10856TIP3   OH253982   1.134   1.101   6.246  0.0056 -0.2468  0.0259
10856TIP3    H153983   1.208   1.155   6.271 -0.3139 -0.0934  0.6575
10856TIP3    H253984   1.126   1.037   6.317 -1.0273  0.3098  0.4269
10857TIP3   OH253985   1.220   6.201  15.843 -0.3158 -0.5960 -0.1076
10857TIP3    H153986   1.159   6.275  15.837 -0.3368 -0.3635  2.5659
10857TIP3    H253987   1.301   6.233  15.804 -1.0612 -0.0128 -1.2193
10858TIP3   OH253988   4.326   6.063   5.667 -0.3144 -0.6269 -0.6183
10858TIP3    H153989   4.380   6.123   5.617 -0.5460 -1.1686 -1.5246
10858TIP3    H253990   4.320   6.103   5.754 -0.8062  0.8648 -1.3253
10859TIP3   OH253991   5.051   2.949   3.035 -0.5991 -0.3414 -0.2812
10859TIP3    H153992   5.128   2.988   3.077 -1.9599  0.6874  1.3468
10859TIP3    H253993   5.075   2.858   3.019  1.1130  0.0851 -0.2145
10860TIP3   OH253994   4.548   6.066   0.947  0.1006  0.7829  0.3792
10860TIP3    H153995   4.483   6.079   0.877 -0.3945 -0.5750  0.5792
10860TIP3    H253996   4.581   5.978   0.932 -0.1584  0.4051  1.9892
10861TIP3   OH253997   1.246   4.280   5.165  0.2635 -0.4688  0.2883
10861TIP3    H153998   1.203   4.249   5.084  0.0514 -0.1422  0.2741
10861TIP3    H253999   1.278   4.200   5.207  0.1766 -0.6626 -0.0082
10862TIP3   OH254000   5.979   5.994  15.695 -0.1595  0.2474  0.4681
10862TIP3    H154001   6.014   5.906  15.684  0.7967  0.6367  0.2956
10862TIP3    H254002   5.891   5.990  15.657  0.0335 -0.5238  0.0890
10863TIP3   OH254003   5.810   2.939  12.090 -0.0160 -0.0380 -0.2208
10863TIP3    H154004   5.794   2.853  12.130 -1.2366  0.5227  0.5211
10863TIP3    H254005   5.893   2.928  12.044 -0.2630 -1.6868 -0.3289
10864TIP3   OH254006   5.874   3.140   0.381 -0.2160 -0.2516 -0.0976
10864TIP3    H154007   5.917   3.184   0.308  0.8823  0.3834  0.9113
10864TIP3    H254008   5.923   3.059   0.392 -0.1824 -0.2015  0.1271
10865TIP3   OH254009   4.933   2.433  11.958 -0.1518 -0.0010 -0.1759
10865TIP3    H154010   4.979   2.434  11.873  2.6860  0.5809  1.2918
10865TIP3    H254011   4.889   2.349  11.960  2.7002 -1.5894 -0.7597
10866TIP3   OH254012   5.699   2.536   0.121 -0.7925 -0.1975  0.0580
10866TIP3    H154013   5.613   2.525   0.162  0.4567 -0.6843  2.6539
10866TIP3    H254014   5.734   2.447   0.115 -1.2151 -0.2016 -2.7208
10867TIP3   OH254015   5.972   3.233   0.784  0.1766  0.2195  0.5105
10867TIP3    H154016   5.885   3.196   0.799 -0.7456  1.6042 -1.2428
10867TIP3    H254017   5.991   3.282   0.864 -0.0442 -1.2309  1.4698
10868TIP3   OH254018   3.369   4.832   5.673  0.4455 -0.6276  0.0858
10868TIP3    H154019   3.445   4.870   5.629 -0.1378  0.6946  0.1949
10868TIP3    H254020   3.334   4.768   5.610 -0.0379  0.8190 -1.1397
10869TIP3   OH254021   3.608   0.776   4.011  0.0237 -0.4885  0.0137
10869TIP3    H154022   3.578   0.826   3.935  0.7761  0.8472  0.5803
10869TIP3    H254023   3.537   0.782   4.074  0.6795  1.0737  0.6245
10870TIP3   OH254024   4.803   3.168   2.341 -0.5304 -0.0120  0.6607
10870TIP3    H154025   4.824   3.098   2.279 -0.2172  1.4240 -0.8939
10870TIP3    H254026   4.709   3.180   2.332 -0.4380  0.4162  0.1899
10871TIP3   OH254027   4.113   5.874   1.694 -1.4200  0.0022 -0.4155
10871TIP3    H154028   4.163   5.898   1.772 -1.3124  0.2446 -0.5592
10871TIP3    H254029   4.178   5.835   1.635 -1.2394  1.0721 -0.9365
10872TIP3   OH254030   4.478   4.148   1.782 -1.0321 -0.2802 -0.0645
10872TIP3    H154031   4.567   4.180   1.798 -0.9043 -1.3725  1.5237
10872TIP3    H254032   4.423   4.202   1.840 -1.3725  0.1278 -0.7546
10873TIP3   OH254033   1.921   5.695   1.977 -0.2740 -0.2036 -0.0881
10873TIP3    H154034   1.895   5.781   2.011  0.0396 -0.5694  1.1175
10873TIP3    H254035   2.004   5.676   2.021 -0.8091 -1.5398  0.3745
10874TIP3   OH254036   6.089   5.372  14.508 -0.0981 -0.1253  0.3396
10874TIP3    H154037   6.056   5.390  14.597 -0.4403 -1.3007  0.4563
10874TIP3    H254038   6.183   5.362  14.520  0.0603  1.1694  0.3305
10875TIP3   OH254039   2.890   3.474  13.028 -0.3792 -0.1722  0.6589
10875TIP3    H154040   2.905   3.386  13.064  1.5222 -0.2780 -0.3536
10875TIP3    H254041   2.960   3.527  13.065 -0.2445  0.4266 -0.4444
10876TIP3   OH254042   5.563   1.222   2.255  0.3266  0.3277 -0.0906
10876TIP3    H154043   5.497   1.255   2.194 -0.0311  1.0839  0.6912
10876TIP3    H254044   5.641   1.274   2.235  0.1055  0.8271  0.3387
10877TIP3   OH254045   0.980   0.583  12.455  0.5125 -0.1121  0.0800
10877TIP3    H154046   1.010   0.674  12.451 -1.2927  0.5345  1.0997
10877TIP3    H254047   0.886   0.588  12.468  0.0926 -2.1324 -1.6565
10878TIP3   OH254048   5.016   0.765  15.622 -0.0002 -0.4293  0.5538
10878TIP3    H154049   5.023   0.794  15.531 -1.6531 -0.8773  0.2766
10878TIP3    H254050   5.053   0.677  15.622  0.3080 -0.3006  0.3758
10879TIP3   OH254051   0.669   5.018  12.110  0.2601  0.1072 -0.3523
10879TIP3    H154052   0.655   5.106  12.076 -0.0273 -0.0005 -0.5118
10879TIP3    H254053   0.702   4.969  12.035  2.3829  0.5848  0.2297
10880TIP3   OH254054   4.544   2.604  11.890 -0.4372 -0.3153  0.3686
10880TIP3    H154055   4.484   2.607  11.815 -0.4240 -0.6995  0.3415
10880TIP3    H254056   4.563   2.511  11.901 -0.4254 -0.2557  0.8383
10881TIP3   OH254057   1.518   0.147  13.115 -0.3205  0.1632  0.0842
10881TIP3    H154058   1.475   0.118  13.034 -0.4867  0.6578 -0.0104
10881TIP3    H254059   1.591   0.087  13.127 -0.7701 -0.4033 -0.0063
10882TIP3   OH254060   4.792   6.083   2.313 -0.2807  0.2560  0.0818
10882TIP3    H154061   4.726   6.026   2.352 -1.3336 -0.4689 -2.6859
10882TIP3    H254062   4.852   6.023   2.268  0.2319  1.1549 -0.4494
10883TIP3   OH254063   6.560   6.731   4.746  0.4756  0.5894  0.3573
10883TIP3    H154064   6.568   6.822   4.775  1.4940  0.0617  1.7984
10883TIP3    H254065   6.649   6.707   4.720  0.1129  0.1541 -0.4877
10884TIP3   OH254066   1.851   6.470  15.278 -0.3363 -0.2925  0.0198
10884TIP3    H154067   1.897   6.408  15.221  0.4947  0.0027  0.3550
10884TIP3    H254068   1.849   6.427  15.363 -0.5014 -0.2139  0.0566
10885TIP3   OH254069   4.177   5.019  16.715  0.2322 -0.3954 -0.3478
10885TIP3    H154070   4.265   5.057  16.722  0.1623 -0.0560 -1.1748
10885TIP3    H254071   4.122   5.092  16.685 -0.0988 -0.8953 -0.9759
10886TIP3   OH254072   5.649   4.427   2.932  0.2624  0.8491  0.6431
10886TIP3    H154073   5.730   4.456   2.890  0.1728  0.0695 -0.0824
10886TIP3    H254074   5.656   4.460   3.022  2.1597 -0.6148  1.0700
10887TIP3   OH254075   3.519   0.420  16.352  0.6998 -0.3070 -0.5942
10887TIP3    H154076   3.509   0.329  16.327 -0.1848 -0.5683  0.6481
10887TIP3    H254077   3.609   0.428  16.383  0.1864 -1.2647  1.2327
10888TIP3   OH254078   3.175   3.526   0.495  0.0185 -0.9682  0.1689
10888TIP3    H154079   3.126   3.570   0.564 -0.9362 -3.7231  1.3434
10888TIP3    H254080   3.122   3.537   0.416  0.2445  0.6984  0.2403
10889TIP3   OH254081   4.679   1.279   2.036 -0.5765  0.0250  0.1800
10889TIP3    H154082   4.668   1.200   2.089 -0.4550  0.1546  0.3976
10889TIP3    H254083   4.672   1.351   2.098  0.8318  0.1351  0.2275
10890TIP3   OH254084   6.697   3.750  13.850 -0.3636 -0.0431 -0.7141
10890TIP3    H154085   6.674   3.705  13.768 -3.1267  0.6267 -0.3787
10890TIP3    H254086   6.716   3.840  13.823  0.4478 -0.2478 -0.8252
10891TIP3   OH254087   6.221   0.810  13.243  0.2602  0.3612  0.0465
10891TIP3    H154088   6.148   0.748  13.242  0.5965 -0.0417  0.0460
10891TIP3    H254089   6.295   0.758  13.276  0.2009  1.1491  1.4717
10892TIP3   OH254090   2.674   2.558  15.136 -0.2917 -0.4434 -0.4658
10892TIP3    H154091   2.611   2.593  15.200 -0.6926 -1.4932 -0.2804
10892TIP3    H254092   2.700   2.473  15.172 -0.5276 -1.0511 -1.7041
10893TIP3   OH254093   2.372   6.521   1.737  0.2073  0.0285  0.6640
10893TIP3    H154094   2.417   6.511   1.653 -0.3286  0.2416  0.3471
10893TIP3    H254095   2.437   6.562   1.794  0.2987  0.6770  0.1058
10894TIP3   OH254096   5.192   6.643   2.222 -0.4905 -0.1964 -0.3939
10894TIP3    H154097   5.256   6.685   2.165 -1.5907 -1.5524 -2.7278
10894TIP3    H254098   5.121   6.618   2.163 -1.3550 -2.3149  1.4719
10895TIP3   OH254099   1.979   4.873   5.683  0.2332  0.1866 -0.3942
10895TIP3    H154100   1.934   4.796   5.650  0.8488 -0.1204 -0.5299
10895TIP3    H254101   1.921   4.908   5.750  0.5871 -1.2267  0.6836
10896TIP3   OH254102   4.030   6.352  17.097  0.1554  0.1968 -0.1434
10896TIP3    H154103   4.039   6.263  17.132  0.5105  0.4843  0.4959
10896TIP3    H254104   4.110   6.365  17.046 -0.0370  0.0375 -0.4847
10897TIP3   OH254105   2.632   2.763   3.648 -0.2242  0.3532 -0.0911
10897TIP3    H154106   2.720   2.766   3.612 -0.0325  2.3108  0.4573
10897TIP3    H254107   2.624   2.676   3.687  1.4935  0.2084 -0.0494
10898TIP3   OH254108   6.667   6.266   0.582  0.2690 -0.1514  0.1646
10898TIP3    H154109   6.624   6.247   0.499  0.4046 -0.5818  0.1944
10898TIP3    H254110   6.706   6.183   0.610  1.6096  0.3501 -0.1451
10899TIP3   OH254111   3.546   5.852  16.095  0.1196  1.3087  0.2971
10899TIP3    H154112   3.503   5.893  16.020 -1.6811 -2.5168 -0.8621
10899TIP3    H254113   3.623   5.808  16.058 -1.1256 -1.1339  0.5220
10900TIP3   OH254114   5.493   5.396   3.398 -0.6488  0.2776  0.4228
10900TIP3    H154115   5.444   5.456   3.454  2.3101  0.3567  3.0324
10900TIP3    H254116   5.570   5.445   3.371 -0.5904 -0.7523 -1.3743
10901TIP3   OH254117   6.183   3.800   4.554  0.1746 -0.7771  0.0169
10901TIP3    H154118   6.171   3.874   4.495  1.5146 -0.8222 -0.3317
10901TIP3    H254119   6.122   3.816   4.626  0.0997  0.4053 -0.3039
10902TIP3   OH254120   1.316   1.271   0.533  0.4220 -0.3726  0.5974
10902TIP3    H154121   1.319   1.219   0.613 -2.0870 -0.1685  0.8763
10902TIP3    H254122   1.293   1.208   0.465 -2.3927  0.2780  0.8994
10903TIP3   OH254123   3.500   0.136  16.361  0.0301  0.1774 -0.4228
10903TIP3    H154124   3.593   0.120  16.345  0.2632  0.7480  0.3559
10903TIP3    H254125   3.459   0.051  16.344  0.7896 -0.2820 -0.0166
10904TIP3   OH254126   5.675   2.243  13.739 -0.0907 -0.4152  0.5178
10904TIP3    H154127   5.649   2.331  13.768  2.0542  0.3604  0.1622
10904TIP3    H254128   5.648   2.239  13.648  0.1825  0.0267  0.4169
10905TIP3   OH254129   2.558   2.094   0.259  0.4248 -0.3433 -0.5076
10905TIP3    H154130   2.568   2.022   0.323  1.0685  0.2156  0.0324
10905TIP3    H254131   2.529   2.051   0.179 -0.9453 -0.9998  0.3155
10906TIP3   OH254132   4.823   2.086   0.325  0.0815  0.0578 -0.2455
10906TIP3    H154133   4.761   2.014   0.337 -1.4082  0.8537 -2.6298
10906TIP3    H254134   4.772   2.165   0.346  0.5568  0.6510 -1.2698
10907TIP3   OH254135   0.265   4.764  16.814 -0.1794  0.0942  0.4289
10907TIP3    H154136   0.250   4.831  16.881 -0.8620 -0.0809  0.4487
10907TIP3    H254137   0.326   4.805  16.753 -3.0989  1.9355 -1.3478
10908TIP3   OH254138   1.940   4.341  15.715 -0.0771 -0.1506  0.6365
10908TIP3    H154139   1.901   4.402  15.653  2.7744  0.7294 -0.3656
10908TIP3    H254140   1.981   4.397  15.782  1.0959 -0.9724  0.6308
10909TIP3   OH254141   1.329   4.241  12.773 -0.0493 -0.3325  0.5476
10909TIP3    H154142   1.241   4.205  12.788 -0.7031  1.1053  0.3001
10909TIP3    H254143   1.345   4.297  12.849  0.5074 -0.2964  0.4028
10910TIP3   OH254144   2.033   1.962   3.235  0.7204 -0.3940 -0.2733
10910TIP3    H154145   1.969   1.963   3.306  0.2000  0.7361 -0.7516
10910TIP3    H254146   2.113   1.996   3.274  0.3464  0.5339 -0.3138
10911TIP3   OH254147   1.497   1.345   0.790  0.2606  0.2309  0.0876
10911TIP3    H154148   1.452   1.288   0.728  0.5663 -0.0609  0.1365
10911TIP3    H254149   1.583   1.361   0.751  0.3649  0.2425  0.3212
10912TIP3   OH254150   0.898   2.060   6.217  0.8920  0.7309  0.1998
10912TIP3    H154151   0.952   2.135   6.239  1.3937  0.4899 -0.2042
10912TIP3    H254152   0.809   2.095   6.209  0.8980  1.0402  1.3677
10913TIP3   OH254153   0.863   5.850  15.774 -0.0220 -0.1313 -0.7017
10913TIP3    H154154   0.844   5.772  15.827  0.6108 -0.2027 -0.5736
10913TIP3    H254155   0.843   5.823  15.684 -0.5298 -0.2007 -0.5669
10914TIP3   OH254156   0.790   3.819  15.046 -0.6197 -0.3811  0.3721
10914TIP3    H154157   0.714   3.871  15.018  0.4382  0.9791 -0.0419
10914TIP3    H254158   0.775   3.804  15.139  0.3534  3.0434  1.1628
10915TIP3   OH254159   3.378   3.486  12.689 -0.3861  0.6810 -0.2565
10915TIP3    H154160   3.401   3.432  12.614  1.1232 -1.6147  1.7719
10915TIP3    H254161   3.288   3.461  12.710 -0.1673 -0.0283 -0.1660
10916TIP3   OH254162   4.171   5.139   4.929 -0.4182  0.3626  0.1162
10916TIP3    H154163   4.110   5.065   4.929  0.2174 -0.1571  0.4892
10916TIP3    H254164   4.119   5.212   4.896 -0.8015 -0.4523 -1.0999
10917TIP3   OH254165   4.967   6.662  12.809  0.0917 -0.0121  0.6222
10917TIP3    H154166   4.961   6.612  12.891 -0.8811 -0.0514  0.5345
10917TIP3    H254167   4.891   6.634  12.758  2.3013 -2.2533 -1.6016
10918TIP3   OH254168   5.941   2.993  10.685 -0.5859 -0.2509 -0.3521
10918TIP3    H154169   5.874   2.927  10.666  0.7264 -2.1659  1.3675
10918TIP3    H254170   5.926   3.016  10.777 -0.0696  0.7047 -0.5026
10919TIP3   OH254171   6.315   5.404  11.203  0.2715  0.0645 -0.3784
10919TIP3    H154172   6.243   5.361  11.157  0.0223  0.7919 -0.6837
10919TIP3    H254173   6.275   5.443  11.280  0.3872  0.2192 -0.3958
10920TIP3   OH254174   3.381   0.210  15.778 -0.2433  0.4911 -0.3890
10920TIP3    H154175   3.451   0.159  15.738  1.2706  1.6758  0.6512
10920TIP3    H254176   3.408   0.301  15.766 -0.5046  0.9053  1.9200
10921TIP3   OH254177   6.050   6.113  12.348  0.4310  0.4780 -0.0670
10921TIP3    H154178   6.042   6.021  12.374 -2.1138 -0.2224 -3.0162
10921TIP3    H254179   6.122   6.147  12.401 -0.2819 -2.5026  3.0023
10922TIP3   OH254180   4.257   2.667  11.931 -0.1068  0.5795 -0.3741
10922TIP3    H154181   4.259   2.763  11.935 -1.4639  0.6003  0.2306
10922TIP3    H254182   4.321   2.645  11.864  2.9121  1.7097  2.0441
10923TIP3   OH254183   0.170   4.217   5.824  0.1532  0.4712  0.1664
10923TIP3    H154184   0.239   4.196   5.762  2.1488  2.6882  1.5699
10923TIP3    H254185   0.207   4.198   5.910 -1.0246  1.5374  0.9359
10924TIP3   OH254186   0.994   4.159   1.804  0.0458 -0.6446 -0.1759
10924TIP3    H154187   0.947   4.135   1.724 -1.3799 -0.4562  0.5966
10924TIP3    H254188   1.026   4.076   1.839  1.6380 -0.6175 -1.5210
10925TIP3   OH254189   4.613   5.559  13.332  0.3398 -0.3615  0.4858
10925TIP3    H154190   4.653   5.546  13.246  0.6910  0.0786  0.5857
10925TIP3    H254191   4.621   5.474  13.375  2.2997  0.0504  0.9892
10926TIP3   OH254192   4.059   4.143   2.857  0.6133  0.1252 -0.1405
10926TIP3    H154193   4.008   4.134   2.776  1.1660  0.9393 -0.5915
10926TIP3    H254194   4.059   4.055   2.895  0.9100 -0.4195 -1.3695
10927TIP3   OH254195   1.372   0.230   4.905 -0.4697 -0.0107 -0.0029
10927TIP3    H154196   1.433   0.178   4.852  0.7086  2.1871 -0.8878
10927TIP3    H254197   1.421   0.254   4.983 -1.9342 -2.5328  1.7472
10928TIP3   OH254198   4.350   3.630  13.666 -0.5933  0.6038  0.1232
10928TIP3    H154199   4.314   3.682  13.738 -1.6769 -0.6389  0.4922
10928TIP3    H254200   4.310   3.543  13.676  1.1783 -0.3148 -0.4780
10929TIP3   OH254201   1.694   3.218   4.874  0.1261  0.1067  0.1226
10929TIP3    H154202   1.729   3.291   4.824  2.3267 -0.9190  0.1399
10929TIP3    H254203   1.645   3.259   4.945  1.3460  1.5710  0.1317
10930TIP3   OH254204   0.400   5.796  13.523 -0.3531  0.2070  0.8272
10930TIP3    H154205   0.447   5.713  13.531 -1.1531 -0.5456 -1.6256
10930TIP3    H254206   0.313   5.771  13.492 -0.3933  1.9836 -0.6048
10931TIP3   OH254207   6.227   3.544   4.074  0.3206  0.1538  0.0478
10931TIP3    H154208   6.217   3.591   4.157 -1.2995 -0.1921  0.0598
10931TIP3    H254209   6.298   3.589   4.029  0.1290  1.3495  0.9271
10932TIP3   OH254210   0.605   4.546  16.381  0.1348 -0.1623  0.5918
10932TIP3    H154211   0.630   4.618  16.439 -1.8188  1.9751 -1.1156
10932TIP3    H254212   0.542   4.495  16.433  2.9894 -1.8466  2.5204
10933TIP3   OH254213   4.474   5.717  14.273 -0.2085  0.2760 -0.1584
10933TIP3    H154214   4.451   5.801  14.232 -0.7114 -0.1470 -0.7498
10933TIP3    H254215   4.560   5.733  14.313 -0.8984  1.4699  0.8879
10934TIP3   OH254216   1.159   1.767   4.520  0.0991  0.2382  0.3527
10934TIP3    H154217   1.178   1.725   4.604 -0.1362  1.0883  0.8409
10934TIP3    H254218   1.160   1.696   4.457  0.4861 -0.3827  1.0487
10935TIP3   OH254219   2.403   4.450  13.176  0.1994 -0.4919  0.0432
10935TIP3    H154220   2.403   4.356  13.156 -1.6808 -0.5024 -0.0034
10935TIP3    H254221   2.395   4.454  13.272  1.0276 -0.3812  0.1086
10936TIP3   OH254222   4.282   4.353  13.637  0.6618  0.1057  0.9869
10936TIP3    H154223   4.357   4.336  13.695  1.1838  0.5942  0.4569
10936TIP3    H254224   4.272   4.273  13.586  0.0016 -0.4490  1.9635
10937TIP3   OH254225   2.946   0.490   0.767  0.2602 -0.2689 -0.1240
10937TIP3    H154226   2.976   0.512   0.679 -0.0646 -0.7168 -0.3522
10937TIP3    H254227   2.918   0.573   0.805  0.8738  0.0014 -0.2596
10938TIP3   OH254228   3.289   5.608   3.277 -0.1414  0.7667  0.6486
10938TIP3    H154229   3.209   5.661   3.272 -1.1760 -0.6997  1.5334
10938TIP3    H254230   3.272   5.534   3.218  0.6760  0.5895  0.6369
10939TIP3   OH254231   1.461   3.327  17.114 -0.6551 -0.1496  0.0406
10939TIP3    H154232   1.509   3.264  17.060 -1.6505  0.4929 -1.6650
10939TIP3    H254233   1.430   3.392  17.051  0.4192  2.0971  1.7639
10940TIP3   OH254234   4.389   2.404   5.026  0.1969  0.5449 -0.1504
10940TIP3    H154235   4.354   2.392   4.937  0.1868  3.7123 -0.6178
10940TIP3    H254236   4.312   2.416   5.081  0.2745  0.6228 -0.0597
10941TIP3   OH254237   6.077   4.829   4.560  0.1311  0.5734  0.1693
10941TIP3    H154238   6.066   4.905   4.503  0.0955  0.1482 -0.4055
10941TIP3    H254239   6.137   4.772   4.512  0.7715  0.5856  0.9515
10942TIP3   OH254240   0.828   0.296   2.783  0.4999 -0.6258  0.0895
10942TIP3    H154241   0.815   0.344   2.865  1.5820 -0.4395  0.1505
10942TIP3    H254242   0.756   0.326   2.726 -0.3270 -0.8559  1.0018
10943TIP3   OH254243   0.102   4.437  11.247 -0.2847 -1.0025 -0.6726
10943TIP3    H154244   0.169   4.370  11.240 -0.1394 -0.8213 -1.0804
10943TIP3    H254245   0.037   4.414  11.180  0.7131  0.3154 -2.1317
10944TIP3   OH254246   4.762   2.032  13.065  0.3200 -1.1358 -0.1832
10944TIP3    H154247   4.761   2.073  12.978 -0.5544 -0.6606  0.0426
10944TIP3    H254248   4.698   2.082  13.116 -0.5613 -2.5925  0.1833
10945TIP3   OH254249   2.821   4.388  12.958 -0.0047  0.6743 -0.3799
10945TIP3    H154250   2.842   4.312  13.013 -3.1898 -0.7935 -1.0749
10945TIP3    H254251   2.814   4.352  12.870 -2.1156  1.6438 -0.6291
10946TIP3   OH254252   1.129   3.788  15.524  0.2938  0.2300  0.8470
10946TIP3    H154253   1.060   3.852  15.509  0.6172  0.5590  0.7643
10946TIP3    H254254   1.108   3.749  15.609  0.6298  1.1155  1.3323
10947TIP3   OH254255   2.587   3.147   1.787 -0.2864  0.0034 -0.2950
10947TIP3    H154256   2.659   3.145   1.724 -0.7028 -1.8944 -0.7424
10947TIP3    H254257   2.510   3.172   1.734  0.0895  2.6026  0.2856
10948TIP3   OH254258   2.113   5.574   4.065 -0.2131  0.2591  0.0848
10948TIP3    H154259   2.179   5.643   4.062 -1.2381  1.2148 -1.0486
10948TIP3    H254260   2.104   5.553   4.158 -1.5532  3.2850  0.7109
10949TIP3   OH254261   1.492   3.971   4.990  0.8207 -0.2480  0.4656
10949TIP3    H154262   1.432   3.898   4.979 -0.4841  1.1092 -1.6265
10949TIP3    H254263   1.437   4.049   4.990  2.2737  0.8427  1.7813
10950TIP3   OH254264   1.643   1.331   1.059 -0.1936 -0.2363 -0.1345
10950TIP3    H154265   1.646   1.235   1.059  0.5580 -0.2508 -1.9915
10950TIP3    H254266   1.602   1.353   0.975 -4.9652  1.0369  2.3352
10951TIP3   OH254267   0.541   2.156   0.235  0.0229 -0.2092  0.4219
10951TIP3    H154268   0.484   2.078   0.238  1.2275 -1.0855  0.8092
10951TIP3    H254269   0.536   2.186   0.145 -1.3517 -0.0495  0.5351
10952TIP3   OH254270   3.347   3.926  11.155 -0.5781  0.5999 -0.1807
10952TIP3    H154271   3.268   3.872  11.163 -0.7245  0.8782  0.2885
10952TIP3    H254272   3.329   3.984  11.081 -0.4338  0.0357 -0.6666
10953TIP3   OH254273   5.963   3.854  15.201  0.5878  0.0751 -0.0807
10953TIP3    H154274   5.985   3.761  15.191  0.5286  0.1135 -0.5891
10953TIP3    H254275   6.034   3.890  15.254  0.2774 -0.3944  0.6627
10954TIP3   OH254276   0.821   4.485   4.315 -0.6641 -0.2192  0.2068
10954TIP3    H154277   0.831   4.567   4.266  0.6807  0.0455  0.8969
10954TIP3    H254278   0.767   4.509   4.391 -0.2654  0.0393  0.4126
10955TIP3   OH254279   4.146   1.508  12.686  0.5639  0.4937 -0.1041
10955TIP3    H154280   4.156   1.448  12.612  0.4887  1.2126 -0.7031
10955TIP3    H254281   4.181   1.460  12.761 -0.5389 -0.7526 -0.3573
10956TIP3   OH254282   2.166   5.015  15.657 -0.0018  0.2953 -0.3804
10956TIP3    H154283   2.238   5.005  15.595  1.2074 -1.6449  1.2587
10956TIP3    H254284   2.200   5.076  15.723 -1.0223  1.8028 -1.2265
10957TIP3   OH254285   1.076   2.327   0.876  0.0921 -0.0334 -0.3437
10957TIP3    H154286   1.142   2.270   0.838 -0.5131 -0.6893 -0.4020
10957TIP3    H254287   1.070   2.299   0.968 -0.0593  0.0688 -0.3216
10958TIP3   OH254288   0.256   0.791   4.586  0.3829  0.5814 -0.0553
10958TIP3    H154289   0.249   0.748   4.501  3.4911  0.8518 -0.5126
10958TIP3    H254290   0.237   0.722   4.650 -0.9106  0.1109 -0.9452
10959TIP3   OH254291   4.248   2.761  11.285 -0.6749  0.3249 -0.2489
10959TIP3    H154292   4.191   2.776  11.210  0.1893  2.0654 -0.5938
10959TIP3    H254293   4.190   2.763  11.361 -1.3041  0.4124 -0.7323
10960TIP3   OH254294   3.904   1.273  15.692 -0.2258 -0.2911  0.0730
10960TIP3    H154295   3.960   1.308  15.762 -2.0090  0.1045  1.3562
10960TIP3    H254296   3.881   1.185  15.722 -5.0274  1.6199  2.5417
10961TIP3   OH254297   1.086   0.410   0.179 -0.5580  0.7172  0.2467
10961TIP3    H154298   1.110   0.464   0.104 -0.1841  0.1147 -0.0687
10961TIP3    H254299   1.011   0.455   0.218  1.5036  3.0549  1.6921
10962TIP3   OH254300   3.608   2.936   0.852 -0.0669  0.0430  0.4740
10962TIP3    H154301   3.586   2.943   0.759  1.1070  2.1613  0.3036
10962TIP3    H254302   3.524   2.939   0.897 -0.6185 -0.5224 -0.5033
10963TIP3   OH254303   0.043   5.753  16.590 -0.5527 -0.1134  0.6958
10963TIP3    H154304   0.022   5.792  16.505 -3.0694 -1.3845  0.7105
10963TIP3    H254305  -0.010   5.674  16.594  1.8870 -1.7538  2.1423
10964TIP3   OH254306   3.442   0.014   1.904  0.8352  0.0344 -0.3010
10964TIP3    H154307   3.403  -0.060   1.857  0.5126  0.5688 -0.8872
10964TIP3    H254308   3.402   0.011   1.991 -1.3271  1.1806 -1.2083
10965TIP3   OH254309   5.258   4.953  12.409 -0.0965 -0.1987 -0.5603
10965TIP3    H154310   5.234   4.921  12.322  0.7188 -0.1484 -0.8092
10965TIP3    H254311   5.201   4.906  12.469 -0.8356 -0.0558 -1.1423
10966TIP3   OH254312   5.254   5.478  12.086 -0.2596 -0.1406 -0.3431
10966TIP3    H154313   5.176   5.451  12.037  0.4351 -0.3817 -1.3051
10966TIP3    H254314   5.268   5.569  12.060 -0.6089  0.1212  0.3516
10967TIP3   OH254315   1.106   1.144   5.801  0.1059  0.4082 -0.0165
10967TIP3    H154316   1.172   1.148   5.870  0.9862  1.0701 -0.8924
10967TIP3    H254317   1.125   1.219   5.745 -0.2635 -0.4362 -1.2908
10968TIP3   OH254318   5.956   3.610   2.603  0.1445 -0.0703 -0.9596
10968TIP3    H154319   6.049   3.631   2.612 -0.4406  1.0717  3.5622
10968TIP3    H254320   5.915   3.693   2.581 -0.1696  0.1372  0.3654
10969TIP3   OH254321   2.587   4.334   6.074  0.0370 -0.2777 -0.0785
10969TIP3    H154322   2.651   4.387   6.121  0.4524 -1.4673  0.7310
10969TIP3    H254323   2.523   4.308   6.141 -0.2865 -0.5962 -0.5071
10970TIP3   OH254324   5.273   0.928  15.005  0.0847  0.2223 -0.5120
10970TIP3    H154325   5.228   0.971  14.933  1.0112  0.2503 -1.0764
10970TIP3    H254326   5.297   0.999  15.064 -0.5472  0.2140 -0.2403
10971TIP3   OH254327   5.799   3.132   5.996  0.3417 -0.4906  0.1359
10971TIP3    H154328   5.847   3.114   6.077 -0.3565  0.0043  0.6643
10971TIP3    H254329   5.829   3.064   5.936  0.5978 -1.0839  0.9184
10972TIP3   OH254330   1.023   0.686  13.398 -0.0166  0.2213  0.1729
10972TIP3    H154331   1.115   0.673  13.421 -0.0773  0.2578  0.4442
10972TIP3    H254332   1.018   0.778  13.370  0.2142 -0.0456 -0.7672
10973TIP3   OH254333   3.745   0.422  11.456  0.1587  0.1783  0.4939
10973TIP3    H154334   3.814   0.476  11.418  0.6237 -0.5639  0.2765
10973TIP3    H254335   3.757   0.431  11.551  1.3536 -0.9520  0.4567
10974TIP3   OH254336   1.418   0.257   3.950  0.1871  0.3880  0.2118
10974TIP3    H154337   1.385   0.173   3.918 -1.7992  1.2776 -0.1413
10974TIP3    H254338   1.428   0.245   4.044 -0.4395 -0.1507  0.2170
10975TIP3   OH254339   6.384   4.352  15.367  0.0779 -0.3907  0.4213
10975TIP3    H154340   6.367   4.444  15.385  1.5998  0.1205 -0.5767
10975TIP3    H254341   6.331   4.332  15.289  0.3373 -0.1472  0.1831
10976TIP3   OH254342   1.418   6.437  16.192  0.0266 -0.2890 -0.3754
10976TIP3    H154343   1.455   6.447  16.280 -1.9267  0.2875  0.4152
10976TIP3    H254344   1.425   6.344  16.173 -2.7424 -1.0253  1.8876
10977TIP3   OH254345   2.717   0.225   2.440  0.3376  0.0688 -0.0152
10977TIP3    H154346   2.677   0.268   2.364  0.6681 -1.0976 -0.8761
10977TIP3    H254347   2.737   0.136   2.409 -0.8682 -0.9060  1.9041
10978TIP3   OH254348   2.728   6.179   5.100  0.1115 -0.1265 -0.2375
10978TIP3    H154349   2.698   6.234   5.173  0.1722 -0.7810  0.2830
10978TIP3    H254350   2.758   6.099   5.142 -0.1798 -0.6450 -1.0160
10979TIP3   OH254351   1.208   4.962   2.063 -0.1299 -0.1695  0.2965
10979TIP3    H154352   1.115   4.951   2.042 -0.0523 -2.2279  0.8401
10979TIP3    H254353   1.235   5.041   2.016 -1.4658 -1.1524 -2.2323
10980TIP3   OH254354   1.723   4.037  11.822 -0.2917  0.0687 -0.4817
10980TIP3    H154355   1.768   3.957  11.794  0.1810 -0.2351  1.0950
10980TIP3    H254356   1.757   4.105  11.764  0.0705 -0.6863 -1.1660
10981TIP3   OH254357   6.154   0.307   2.398  0.5836  0.5651  0.1742
10981TIP3    H154358   6.193   0.224   2.423  1.5705  1.0133  0.1627
10981TIP3    H254359   6.085   0.284   2.336  0.9529 -0.2331  0.0558
10982TIP3   OH254360   3.872   5.922  11.543  0.2727 -0.0130 -0.5535
10982TIP3    H154361   3.811   5.902  11.614 -0.7725  1.0930 -1.1366
10982TIP3    H254362   3.853   5.858  11.475  0.4793 -0.3328 -0.3085
10983TIP3   OH254363   0.954   5.665   5.390  0.1756  0.3049 -0.2929
10983TIP3    H154364   0.879   5.724   5.387 -0.5170 -0.5564 -0.4805
10983TIP3    H254365   0.990   5.675   5.478  0.5413  1.5635 -0.5767
10984TIP3   OH254366   3.746   4.297  15.447  0.1010  0.4700 -0.0623
10984TIP3    H154367   3.840   4.277  15.454  0.1832  1.1947  0.8516
10984TIP3    H254368   3.711   4.225  15.394  1.0182 -0.2758  0.3302
10985TIP3   OH254369   5.880   3.399  15.307 -0.0098  0.1338  0.2620
10985TIP3    H154370   5.888   3.494  15.321  3.1724 -0.1035  0.5549
10985TIP3    H254371   5.899   3.361  15.392 -1.4319 -0.7798  0.1772
10986TIP3   OH254372   3.692   1.834   4.267 -0.1378  0.1149 -0.2040
10986TIP3    H154373   3.708   1.739   4.272  3.2143  0.5507 -1.5023
10986TIP3    H254374   3.730   1.869   4.348  0.4443  0.5579 -0.6651
10987TIP3   OH254375   3.685   6.192   1.460  1.1884 -0.3244 -0.0430
10987TIP3    H154376   3.615   6.250   1.430  0.8019 -0.6247  0.2617
10987TIP3    H254377   3.656   6.104   1.435  1.4557 -0.4501  0.0840
10988TIP3   OH254378   3.858   0.205  17.034 -0.2955  0.2132 -0.1137
10988TIP3    H154379   3.928   0.193  16.969 -0.4071  0.8484 -0.3604
10988TIP3    H254380   3.777   0.199  16.983 -0.3472  2.7160 -0.4015
10989TIP3   OH254381   0.560   5.186  13.195  0.4263 -0.2644 -0.9297
10989TIP3    H154382   0.641   5.231  13.217  1.4454 -1.0418 -2.9522
10989TIP3    H254383   0.566   5.102  13.242 -0.2929  0.6092  0.7671
10990TIP3   OH254384   5.138   5.456  15.081  0.4503 -0.1971  0.5894
10990TIP3    H154385   5.073   5.390  15.055 -0.7157  1.0299  0.3224
10990TIP3    H254386   5.160   5.434  15.172 -1.7918  0.4828  1.3439
10991TIP3   OH254387   1.517   6.487   4.037 -0.0007  0.5275 -0.4750
10991TIP3    H154388   1.516   6.482   3.942 -0.8686  2.5260 -0.6107
10991TIP3    H254389   1.445   6.546   4.058 -0.9774 -1.3398  1.5392
10992TIP3   OH254390   6.556   1.722   5.779 -0.2560  0.4389 -0.4821
10992TIP3    H154391   6.468   1.684   5.777 -0.8375  1.7669 -0.4559
10992TIP3    H254392   6.609   1.661   5.728 -0.5482 -1.9233  1.9126
10993TIP3   OH254393   2.817   1.809   4.920  0.1636  0.2358  0.4511
10993TIP3    H154394   2.853   1.764   4.843  1.0568 -1.4348  1.8029
10993TIP3    H254395   2.795   1.738   4.980 -0.5916  1.5186  1.7165
10994TIP3   OH254396   6.507   5.666   5.472 -0.1004  0.2896 -0.0869
10994TIP3    H154397   6.418   5.665   5.437  0.7067  0.1709 -2.2060
10994TIP3    H254398   6.514   5.748   5.520 -1.6800 -0.1821  0.9508
10995TIP3   OH254399   1.272   1.241   3.168  0.9760  0.2065  0.0754
10995TIP3    H154400   1.202   1.306   3.159  0.2472 -0.6845 -0.7243
10995TIP3    H254401   1.306   1.230   3.079  1.0994 -0.5008  0.2118
10996TIP3   OH254402   3.820   3.285  17.173  0.2017 -0.0196 -0.1406
10996TIP3    H154403   3.826   3.253  17.083  1.6890 -0.0465 -0.0340
10996TIP3    H254404   3.850   3.213  17.227 -1.2946 -0.2298  0.4458
10997TIP3   OH254405   2.138   3.831  14.790 -0.6410 -0.4180 -0.2604
10997TIP3    H154406   2.107   3.743  14.809 -0.8572  0.2050  2.5597
10997TIP3    H254407   2.228   3.819  14.760 -0.8760 -1.6370 -0.4943
10998TIP3   OH254408   1.751   3.213  14.798 -0.2254  0.0066 -0.2274
10998TIP3    H154409   1.802   3.290  14.772  0.0580 -0.2647 -0.4862
10998TIP3    H254410   1.664   3.228  14.762 -0.0783  0.0538 -0.5684
10999TIP3   OH254411   4.752   2.676   5.098 -0.0941  0.2699  0.1382
10999TIP3    H154412   4.825   2.684   5.159  0.5724 -0.2199 -0.5748
10999TIP3    H254413   4.679   2.642   5.150  1.2894 -2.9799  0.0782
11000TIP3   OH254414   1.773   6.566   4.581  0.7855  0.2669  0.0205
11000TIP3    H154415   1.848   6.508   4.566  0.8225  0.5307 -0.8288
11000TIP3    H254416   1.703   6.508   4.611  1.3526  0.0319  0.9176
11001TIP3   OH254417   1.611   5.490   1.237  0.0586  0.0513 -0.0127
11001TIP3    H154418   1.662   5.519   1.161  0.1782  0.7062  0.3160
11001TIP3    H254419   1.600   5.396   1.223  0.9294 -0.0076 -0.3375
11002TIP3   OH254420   4.793   5.299  14.485  0.2747  0.6378 -0.5858
11002TIP3    H154421   4.886   5.280  14.477  0.0112 -0.8507 -0.1945
11002TIP3    H254422   4.790   5.383  14.532  1.3732 -0.8897  2.3325
11003TIP3   OH254423   5.874   5.383   3.959 -0.0292 -0.0543 -0.0529
11003TIP3    H154424   5.965   5.362   3.981  0.1018 -0.0630 -0.5836
11003TIP3    H254425   5.863   5.348   3.871 -0.6191 -0.2594  0.1059
11004TIP3   OH254426   2.751   3.219  16.997 -0.4666  0.1379 -0.5259
11004TIP3    H154427   2.787   3.195  16.912  1.0913  1.4542 -0.2563
11004TIP3    H254428   2.823   3.204  17.059 -1.8482 -1.6329  0.7012
11005TIP3   OH254429   5.232   3.017   0.649  0.3047 -0.0180 -0.0108
11005TIP3    H154430   5.142   3.025   0.617 -0.2124  0.6574  1.5444
11005TIP3    H254431   5.280   3.087   0.605 -0.4109  0.9468  0.7286
11006TIP3   OH254432   4.540   1.990   2.415  0.8281  0.4761  0.4570
11006TIP3    H154433   4.627   1.955   2.395  0.4304  1.0656 -2.5947
11006TIP3    H254434   4.482   1.914   2.412  0.6747  0.6251 -1.5636
11007TIP3   OH254435   6.194   4.621   4.265  0.0933  0.5703 -0.4213
11007TIP3    H154436   6.181   4.535   4.226 -0.7285  0.5489 -0.1035
11007TIP3    H254437   6.279   4.615   4.309  0.7986  0.4356 -1.7671
11008TIP3   OH254438   0.029   4.771  15.900 -0.4564  0.4951 -0.1203
11008TIP3    H154439   0.051   4.692  15.850 -1.9309  0.5548 -0.8866
11008TIP3    H254440   0.022   4.840  15.833  1.4299  1.4192  0.6065
11009TIP3   OH254441   0.651   2.023  17.055 -0.1195 -0.0500 -0.4541
11009TIP3    H154442   0.742   2.043  17.080  0.1625  0.2086 -1.6909
11009TIP3    H254443   0.658   1.981  16.969 -1.0754 -1.2433  0.0330
11010TIP3   OH254444   3.332   2.950  12.833  0.4361  0.2428 -0.4388
11010TIP3    H154445   3.245   2.975  12.800  0.2964  0.8784  0.4006
11010TIP3    H254446   3.374   2.908  12.758 -0.5436  0.0560 -0.8967
11011TIP3   OH254447   5.169   4.338  15.943 -0.1624  0.0895  0.0746
11011TIP3    H154448   5.215   4.417  15.915  1.1092  0.1686  2.3054
11011TIP3    H254449   5.096   4.370  15.994 -1.2586 -0.1239 -1.3249
11012TIP3   OH254450   3.089   0.124   2.826 -0.5972 -0.4755 -0.6048
11012TIP3    H154451   3.125   0.101   2.911 -0.9140 -0.4846 -0.4701
11012TIP3    H254452   3.041   0.046   2.798 -2.0821  0.1630  0.0721
11013TIP3   OH254453   3.558   2.970  15.735  0.4967  0.9194  0.0268
11013TIP3    H154454   3.630   2.969  15.798  0.0742  0.2124  0.5046
11013TIP3    H254455   3.497   2.903  15.767  1.1509 -0.7847 -2.1686
11014TIP3   OH254456   0.749   4.966   6.152 -0.2497 -0.2130 -0.5306
11014TIP3    H154457   0.765   5.059   6.163 -0.7637 -0.1258 -0.4998
11014TIP3    H254458   0.689   4.943   6.223 -0.6678 -0.4200 -0.9441
11015TIP3   OH254459   6.511   6.680  13.757 -0.6166 -0.2719 -0.0027
11015TIP3    H154460   6.526   6.608  13.696 -0.5710 -1.6094  1.5531
11015TIP3    H254461   6.434   6.653  13.807 -0.4996  0.6968  0.7190
11016TIP3   OH254462   4.877   5.140   2.163  0.9043 -0.6019 -0.1635
11016TIP3    H154463   4.855   5.047   2.174  0.1554 -0.3560  0.4441
11016TIP3    H254464   4.844   5.163   2.076 -0.1244 -0.5600  0.2337
11017TIP3   OH254465   3.296   6.152  11.802 -0.0569 -0.1500 -0.4902
11017TIP3    H154466   3.344   6.231  11.829  0.1134 -0.5174  0.2930
11017TIP3    H254467   3.328   6.134  11.713 -1.6237  1.8541 -1.4968
11018TIP3   OH254468   0.762   1.089  11.995 -0.3501 -0.6921  0.1271
11018TIP3    H154469   0.754   1.179  11.964  0.4212 -0.8754 -0.6296
11018TIP3    H254470   0.762   1.096  12.091  0.1016  0.1539  0.0684
11019TIP3   OH254471   6.483   2.622   4.406 -0.7582 -0.2702  0.0982
11019TIP3    H154472   6.494   2.527   4.411 -0.0406 -0.2423 -0.7453
11019TIP3    H254473   6.487   2.652   4.497 -0.8364 -1.0325  0.3540
11020TIP3   OH254474   5.675   4.879   6.202 -0.4362  0.4418 -0.0088
11020TIP3    H154475   5.637   4.861   6.116  0.6675  3.0396 -1.0945
11020TIP3    H254476   5.603   4.917   6.253 -0.5171  0.9420 -0.4988
11021TIP3   OH254477   2.538   1.315   5.609  0.5573  0.1185  0.2041
11021TIP3    H154478   2.546   1.337   5.516  1.0344 -1.8770 -0.2650
11021TIP3    H254479   2.625   1.334   5.645  0.7622 -0.3071 -0.0500
11022TIP3   OH254480   2.221   1.398  14.843  0.0235 -0.0281 -0.3583
11022TIP3    H154481   2.158   1.326  14.833  0.8002 -0.9972  1.4782
11022TIP3    H254482   2.282   1.367  14.910  0.4871  2.2832  0.3305
11023TIP3   OH254483   1.286   0.026  15.374 -0.2464 -0.1532 -0.7351
11023TIP3    H154484   1.254   0.002  15.287  0.9433  0.3534 -1.3234
11023TIP3    H254485   1.381   0.037  15.363 -0.0092 -0.5311  0.7246
11024TIP3   OH254486   4.044   0.060   1.564  0.5205 -0.0711  0.3734
11024TIP3    H154487   4.010   0.074   1.653 -0.2141 -0.5632  0.1802
11024TIP3    H254488   3.966   0.036   1.513  0.4309  2.8937 -1.0237
11025TIP3   OH254489   5.611   5.419   4.757  0.3195  0.4896 -0.2116
11025TIP3    H154490   5.702   5.450   4.750  0.8973 -1.1285 -0.1840
11025TIP3    H254491   5.563   5.494   4.792  1.2192  2.0702 -2.2301
11026TIP3   OH254492   0.021   5.738  17.216 -0.6483 -0.6192 -0.1382
11026TIP3    H154493  -0.066   5.699  17.223 -0.6838 -0.3260  1.1203
11026TIP3    H254494   0.006   5.821  17.171 -0.6090 -1.8644 -2.5826
11027TIP3   OH254495   5.782   1.693   6.109  0.0717  0.2798 -0.1094
11027TIP3    H154496   5.732   1.697   6.027  0.6508  1.8916 -0.4080
11027TIP3    H254497   5.816   1.782   6.120 -0.3389  0.1843  2.1073
11028TIP3   OH254498   4.672   0.289  12.496  0.2981  0.2253 -0.4018
11028TIP3    H154499   4.711   0.375  12.510  0.9523 -0.0740 -0.3630
11028TIP3    H254500   4.670   0.279  12.400  3.6314 -1.2363 -0.3737
11029TIP3   OH254501   1.148   2.796   4.468 -0.3150  0.4314  0.3320
11029TIP3    H154502   1.169   2.888   4.483 -0.8473  0.7038 -0.5534
11029TIP3    H254503   1.189   2.749   4.541  0.2769  1.3289  0.5746
11030TIP3   OH254504   5.202   6.076  12.482  0.2057 -0.4341  0.0022
11030TIP3    H154505   5.221   6.141  12.415 -1.0733  1.2958  1.2692
11030TIP3    H254506   5.107   6.082  12.495  0.8065  1.4782  4.1245
11031TIP3   OH254507   0.847   6.719  16.689  0.5083  0.3618  0.4159
11031TIP3    H154508   0.880   6.632  16.710  1.9404  1.2149  1.8391
11031TIP3    H254509   0.852   6.725  16.594  1.4681 -0.7034  0.3871
11032TIP3   OH254510   2.838   0.311   3.563 -0.2957  0.8175 -0.4654
11032TIP3    H154511   2.892   0.260   3.623 -0.8404  0.3598 -0.3622
11032TIP3    H254512   2.836   0.260   3.482  0.5499  1.4978 -0.9387
11033TIP3   OH254513   1.282   5.925  16.835 -0.0184 -0.1392  0.1197
11033TIP3    H154514   1.299   6.019  16.846  2.0361 -0.4798  0.0806
11033TIP3    H254515   1.187   5.919  16.823 -0.0898  2.0244 -0.7034
11034TIP3   OH254516   4.816   6.728   2.526  0.0454 -0.2059 -0.5965
11034TIP3    H154517   4.894   6.674   2.540 -0.5056 -1.1712 -1.2111
11034TIP3    H254518   4.797   6.765   2.612  2.6375  2.0574 -0.9182
11035TIP3   OH254519   6.083   5.959   0.869 -0.1393  0.2486  0.4500
11035TIP3    H154520   6.065   6.038   0.817 -1.1295 -0.3273 -0.0848
11035TIP3    H254521   5.999   5.914   0.875 -0.4757  1.1788  4.0418
11036TIP3   OH254522   6.203   4.825   4.056  0.3329  0.1216  0.2663
11036TIP3    H154523   6.296   4.845   4.045  0.2612  0.7646  0.7771
11036TIP3    H254524   6.193   4.805   4.149 -0.1978  0.9199  0.3865
11037TIP3   OH254525   4.485   1.430  10.711 -0.2030 -0.3766  0.3303
11037TIP3    H154526   4.523   1.343  10.723  0.1550 -0.4989 -1.4976
11037TIP3    H254527   4.413   1.433  10.774  1.4644 -0.9393  2.3338
11038TIP3   OH254528   2.691   4.620  15.264 -0.0569  0.4188 -0.3614
11038TIP3    H154529   2.643   4.676  15.204  0.6177  2.4429  0.9290
11038TIP3    H254530   2.772   4.600  15.217 -0.1572  0.7991 -0.7070
11039TIP3   OH254531   4.695   5.258   6.691 -0.0512 -0.1922  0.7988
11039TIP3    H154532   4.749   5.334   6.712  0.3767  0.1219 -1.3099
11039TIP3    H254533   4.712   5.241   6.598 -0.1632 -2.8617  1.2196
11040TIP3   OH254534   3.130   4.449  16.771  0.4870  0.2400  0.5493
11040TIP3    H154535   3.155   4.388  16.701  1.4460  0.3950  0.7527
11040TIP3    H254536   3.213   4.477  16.810 -0.0705 -0.2607  2.1239
11041TIP3   OH254537   4.202   5.412  11.879  0.7161  0.4237 -0.5797
11041TIP3    H154538   4.229   5.325  11.851 -1.4692  0.3259 -2.5854
11041TIP3    H254539   4.269   5.440  11.941  2.3265 -1.9925 -1.1814
11042TIP3   OH254540   1.076   4.114   3.784 -0.1038  0.0692  0.0868
11042TIP3    H154541   0.991   4.149   3.757  0.0546 -0.3340 -0.9507
11042TIP3    H254542   1.138   4.184   3.764  0.0212 -0.2513 -0.6831
11043TIP3   OH254543   6.100   4.932   1.237 -0.6540 -0.0777 -0.2617
11043TIP3    H154544   6.024   4.986   1.216 -0.1331  0.7963  0.0952
11043TIP3    H254545   6.069   4.842   1.224 -1.7676  0.2651 -0.0691
11044TIP3   OH254546   4.535   0.649   3.192 -0.1054  0.1401  0.2714
11044TIP3    H154547   4.452   0.656   3.238  0.0655  0.4399  0.5349
11044TIP3    H254548   4.595   0.611   3.256 -0.5340 -1.9393 -0.5336
11045TIP3   OH254549   3.901   1.429   3.405 -0.7265  0.6694  0.2573
11045TIP3    H154550   3.875   1.425   3.313  0.3072  1.3857 -0.0772
11045TIP3    H254551   3.819   1.432   3.453 -1.2847  2.5573 -0.7679
11046TIP3   OH254552   3.125   6.257   1.319  0.3158  0.0249  0.1011
11046TIP3    H154553   3.053   6.206   1.356  1.2802 -1.7317 -0.3830
11046TIP3    H254554   3.112   6.345   1.353 -1.6070 -0.4463  0.6599
11047TIP3   OH254555   4.325   4.927  13.294  0.5972  0.1304 -0.6545
11047TIP3    H154556   4.371   4.921  13.377  1.6159  0.1737 -1.2102
11047TIP3    H254557   4.259   4.857  13.298 -1.3292  1.9959  1.3695
11048TIP3   OH254558   1.692   6.035   1.703  0.0522  0.5739 -0.7553
11048TIP3    H154559   1.665   6.115   1.659 -2.5767  1.3840  2.1276
11048TIP3    H254560   1.619   5.974   1.690 -0.1011  0.3222  1.1457
11049TIP3   OH254561   0.367   3.889   0.415  0.6308 -0.5362 -0.2492
11049TIP3    H154562   0.449   3.937   0.405  0.8938 -0.4229  2.0475
11049TIP3    H254563   0.381   3.835   0.493 -0.6560 -2.2570 -1.1710
11050TIP3   OH254564   2.957   3.802  11.626  0.6965  0.3604 -0.0971
11050TIP3    H154565   2.870   3.766  11.644 -0.1054  1.7976 -0.9309
11050TIP3    H254566   2.993   3.746  11.558  0.1800  0.0691 -0.1350
11051TIP3   OH254567   3.263   4.196   1.371 -0.2927 -0.5725 -0.3854
11051TIP3    H154568   3.341   4.223   1.322 -1.0005  0.7971 -0.7936
11051TIP3    H254569   3.276   4.234   1.458 -0.9832  0.5863 -0.7684
11052TIP3   OH254570   4.201   5.189  12.083 -0.3058  0.4187  0.4414
11052TIP3    H154571   4.240   5.272  12.110 -0.5628  1.4948 -2.3603
11052TIP3    H254572   4.113   5.212  12.052  0.7646 -0.3201 -3.4136
11053TIP3   OH254573   5.847   1.686   1.437 -0.0086  0.0006  0.0932
11053TIP3    H154574   5.765   1.728   1.464  0.6688  1.7660 -0.4842
11053TIP3    H254575   5.842   1.683   1.342  0.5180 -0.0418  0.0672
11054TIP3   OH254576   3.755   4.049   0.092 -0.6410  0.5101 -0.0337
11054TIP3    H154577   3.680   4.103   0.067 -0.5637  0.8974  0.5519
11054TIP3    H254578   3.824   4.112   0.114 -0.7145  0.1954  1.1756
11055TIP3   OH254579   5.961   2.220   1.086  0.4307  0.3780 -0.0266
11055TIP3    H154580   5.901   2.241   1.015  0.5000  0.2622 -0.1186
11055TIP3    H254581   5.914   2.246   1.165 -0.9868 -2.4762  0.1505
11056TIP3   OH254582   3.688   4.675   6.032  0.2856 -0.0894 -0.1530
11056TIP3    H154583   3.656   4.620   6.103  1.8841 -0.5270  0.2522
11056TIP3    H254584   3.747   4.737   6.074  2.3326 -1.2267 -1.2325
11057TIP3   OH254585   6.224   3.285  10.677  0.3415  0.1448 -0.2213
11057TIP3    H154586   6.273   3.364  10.654  0.3204 -0.0921 -1.1223
11057TIP3    H254587   6.241   3.225  10.604  0.7642 -0.8681  0.6979
11058TIP3   OH254588   3.417   1.505  16.045  0.1362  0.2402  0.0152
11058TIP3    H154589   3.450   1.494  15.956  0.9995  1.1842  0.2163
11058TIP3    H254590   3.490   1.478  16.101  0.4149  1.8840  0.4599
11059TIP3   OH254591   6.463   5.804  12.228 -0.5653  0.1697  0.6817
11059TIP3    H154592   6.458   5.718  12.270 -0.3810 -1.5091 -2.5621
11059TIP3    H254593   6.372   5.825  12.205 -0.5227  0.4964  0.8069
11060TIP3   OH254594   3.412   5.499  12.620 -0.2365 -0.6425 -0.0130
11060TIP3    H154595   3.379   5.477  12.533  2.2914 -2.3825 -0.5920
11060TIP3    H254596   3.429   5.415  12.662 -0.2102  0.1840  1.6837
11061TIP3   OH254597   5.707   4.741   2.393  0.2384 -0.4107  0.1501
11061TIP3    H154598   5.700   4.695   2.477  2.6628 -1.2476 -0.0498
11061TIP3    H254599   5.620   4.734   2.354 -1.0787  0.3950  2.7755
11062TIP3   OH254600   3.027   5.614   2.686  0.6691  0.6313  0.3509
11062TIP3    H154601   3.010   5.605   2.780  0.1525  1.9051  0.3872
11062TIP3    H254602   3.051   5.706   2.675  2.5616  0.0623 -0.4924
11063TIP3   OH254603   2.465   0.770   0.293 -0.1389  0.4575 -0.4780
11063TIP3    H154604   2.511   0.792   0.373 -0.0543  1.5677 -0.8229
11063TIP3    H254605   2.424   0.685   0.311  0.7755  0.1860  0.3476
11064TIP3   OH254606   6.191   4.746  14.259  0.2703  0.1622  0.0489
11064TIP3    H154607   6.107   4.722  14.299  0.0250  0.5863 -0.2089
11064TIP3    H254608   6.233   4.662  14.240 -0.1585 -0.0564  0.0508
11065TIP3   OH254609   2.218   3.267  17.036  0.1560  0.0539 -0.1898
11065TIP3    H154610   2.206   3.271  16.941 -0.5800 -0.8745 -0.1473
11065TIP3    H254611   2.311   3.246  17.048  0.1386 -0.3363 -0.7248
11066TIP3   OH254612   6.082   0.777  11.663  0.0187  0.0735 -0.1987
11066TIP3    H154613   6.074   0.681  11.657  1.8909 -0.2108  1.2720
11066TIP3    H254614   5.992   0.808  11.675 -0.4322 -1.6695  1.1282
11067TIP3   OH254615   2.013   3.069   4.550 -0.4018  0.0790 -0.1410
11067TIP3    H154616   2.031   3.163   4.551  0.5752 -0.1166  0.6220
11067TIP3    H254617   2.089   3.029   4.591 -1.2252 -0.9857  0.3742
11068TIP3   OH254618   1.125   5.050  13.609  0.7796 -0.4588 -0.1275
11068TIP3    H154619   1.164   5.006  13.535  0.6745  1.4190 -1.3455
11068TIP3    H254620   1.088   5.131  13.572  0.4836  0.3747  1.8998
11069TIP3   OH254621   3.343   4.987  12.130  0.7642  0.2869 -0.5159
11069TIP3    H154622   3.361   4.964  12.221  0.6028 -0.3905 -0.6526
11069TIP3    H254623   3.409   5.053  12.108  2.3443 -1.2949 -0.6432
11070TIP3   OH254624   5.845   3.713  13.950 -0.9683  0.2387  0.5242
11070TIP3    H154625   5.842   3.744  14.040 -0.8508  1.0731  0.2454
11070TIP3    H254626   5.870   3.621  13.957  1.6558  0.9526  1.2169
11071TIP3   OH254627   3.403   3.899  13.538 -0.3341  0.2891 -0.4583
11071TIP3    H154628   3.318   3.901  13.494  0.3850 -0.0335 -1.8903
11071TIP3    H254629   3.447   3.821  13.503 -0.1703 -0.6053  1.6611
11072TIP3   OH254630   0.394   3.341   1.756 -0.0312  0.3406  0.4361
11072TIP3    H154631   0.414   3.285   1.682 -0.3181  1.0651 -0.1965
11072TIP3    H254632   0.415   3.288   1.833  0.0245 -0.5003 -0.1561
11073TIP3   OH254633   4.513   1.632   3.864  0.2377 -0.5111  0.0220
11073TIP3    H154634   4.516   1.591   3.777  0.2267 -0.6294  0.0777
11073TIP3    H254635   4.421   1.623   3.891 -0.2439  1.4340 -0.8745
11074TIP3   OH254636   3.466   3.052  16.375 -0.1619  0.1734 -0.1735
11074TIP3    H154637   3.447   3.054  16.469 -1.5536 -2.0896 -0.3714
11074TIP3    H254638   3.556   3.020  16.370  0.1882  1.0488  0.4058
11075TIP3   OH254639   3.304   1.975   1.772  0.0563  0.3717  0.6751
11075TIP3    H154640   3.399   1.987   1.769  0.0937 -0.3974 -2.6767
11075TIP3    H254641   3.270   2.036   1.707 -1.3288 -2.8623 -1.7537
11076TIP3   OH254642   1.473   4.605  16.515  0.6118 -0.0792  0.2890
11076TIP3    H154643   1.487   4.510  16.515  0.2615 -0.1590 -1.9124
11076TIP3    H254644   1.557   4.641  16.488  0.5911  0.2179  0.6165
11077TIP3   OH254645   5.423   6.072  14.067  0.0686 -0.1559 -0.6560
11077TIP3    H154646   5.425   6.167  14.059 -0.5580 -0.2309 -1.6870
11077TIP3    H254647   5.455   6.055  14.156  1.9804  0.9189 -1.1240
11078TIP3   OH254648   3.296   1.037   4.596  0.2765 -0.1035  0.1768
11078TIP3    H154649   3.301   1.120   4.548  1.3630 -0.2138  0.1010
11078TIP3    H254650   3.268   0.973   4.531 -0.3992  0.1597  0.1967
11079TIP3   OH254651   0.451   0.203   5.814  0.0217 -0.0582  0.0813
11079TIP3    H154652   0.494   0.129   5.771 -0.3909 -1.0983  1.4133
11079TIP3    H254653   0.505   0.219   5.892 -0.6805  0.1440  0.5237
11080TIP3   OH254654   3.760   2.240   4.419  0.2575  0.0166 -0.6728
11080TIP3    H154655   3.722   2.327   4.410 -1.1539 -0.3277  1.6087
11080TIP3    H254656   3.749   2.200   4.333  1.0559  2.1197 -1.7911
11081TIP3   OH254657   1.174   4.930  16.602 -0.0941 -0.6308  0.1577
11081TIP3    H154658   1.176   4.905  16.510 -0.8199  2.2763 -0.7079
11081TIP3    H254659   1.081   4.943  16.622  0.2004  0.7561  0.7026
11082TIP3   OH254660   3.708   5.762  14.250 -0.0805 -0.5139  0.2074
11082TIP3    H154661   3.788   5.710  14.240 -0.6183 -1.5996  1.2717
11082TIP3    H254662   3.638   5.698  14.240 -0.8078  0.3705 -0.3549
11083TIP3   OH254663   0.743   2.721   2.465 -0.4940 -0.1420 -0.3467
11083TIP3    H154664   0.787   2.738   2.381 -0.7701  0.1013 -0.4445
11083TIP3    H254665   0.814   2.695   2.524 -0.2017  0.3399 -0.4781
11084TIP3   OH254666   6.536   5.792   4.248  0.4822  0.1572 -0.6657
11084TIP3    H154667   6.597   5.760   4.315 -0.3759 -1.0364 -0.4378
11084TIP3    H254668   6.458   5.816   4.298 -0.2956 -1.0821 -1.2825
11085TIP3   OH254669   5.657   0.445   0.277 -0.4332 -0.2881 -0.1691
11085TIP3    H154670   5.670   0.496   0.357 -0.9583  0.7974 -0.7569
11085TIP3    H254671   5.601   0.501   0.222  0.1306 -0.9110 -1.3912
11086TIP3   OH254672   6.319   5.814  14.460 -0.1561 -0.1008 -0.2083
11086TIP3    H154673   6.242   5.765  14.489 -1.0462  0.9984 -0.6538
11086TIP3    H254674   6.340   5.777  14.374  0.5647 -1.2213  0.4384
11087TIP3   OH254675   3.054   6.215   5.090 -0.2070  0.7312  0.3300
11087TIP3    H154676   3.006   6.263   5.022  0.9863  0.5714 -0.6529
11087TIP3    H254677   3.083   6.135   5.046  1.0634  0.8842  0.8633
11088TIP3   OH254678   1.932   3.910   4.274  0.2030  0.0324  0.7100
11088TIP3    H154679   1.994   3.841   4.250 -1.1068 -0.5876 -0.9386
11088TIP3    H254680   1.977   3.958   4.344  0.4820 -3.4961  3.0867
11089TIP3   OH254681   1.251   3.717  14.698 -0.8138  0.3350 -0.3108
11089TIP3    H154682   1.251   3.791  14.637  0.5667  0.2509 -0.4161
11089TIP3    H254683   1.202   3.749  14.774  0.8696  1.8260  0.1833
11090TIP3   OH254684   5.741   1.832   0.531  0.5013  0.1344  0.0825
11090TIP3    H154685   5.671   1.898   0.537  1.2065  0.9042 -0.0671
11090TIP3    H254686   5.771   1.838   0.440  2.4942  1.6110  0.8009
11091TIP3   OH254687   5.665   4.661   6.412  0.3997  0.1689  0.5716
11091TIP3    H154688   5.579   4.652   6.454  0.7659 -0.7369  1.1358
11091TIP3    H254689   5.664   4.748   6.374 -0.6086  0.3332  0.9660
11092TIP3   OH254690   4.588   5.538   4.024  0.2589  0.4242  0.3744
11092TIP3    H154691   4.655   5.561   3.960  1.3109  0.8569  1.6103
11092TIP3    H254692   4.631   5.479   4.085  0.3830  2.8834  2.7884
11093TIP3   OH254693   1.860   6.696   0.264  0.0327 -0.4485 -0.0162
11093TIP3    H154694   1.865   6.672   0.356  1.9210 -0.0885 -0.0068
11093TIP3    H254695   1.786   6.645   0.230 -1.3302  0.1815  1.9016
11094TIP3   OH254696   1.265   3.675  13.920  0.1293 -0.2636 -0.1676
11094TIP3    H154697   1.204   3.603  13.905 -0.1150 -0.2835  0.8569
11094TIP3    H254698   1.342   3.633  13.958 -0.4564  0.1398  1.5117
11095TIP3   OH254699   6.752   2.462   1.818 -0.0051 -0.1772  0.2578
11095TIP3    H154700   6.809   2.435   1.890  1.3007  1.9516  0.0828
11095TIP3    H254701   6.728   2.552   1.840  0.5610  0.5708 -2.0445
11096TIP3   OH254702   6.225   1.010  12.547  0.2252  0.2231  0.4051
11096TIP3    H154703   6.266   1.063  12.479  1.5109 -1.3686 -0.0852
11096TIP3    H254704   6.157   0.960  12.501  1.1833 -0.9516  0.2611
11097TIP3   OH254705   2.066   6.415  15.589 -0.2674  0.3030 -0.3954
11097TIP3    H154706   2.160   6.434  15.600 -0.0345 -0.5764 -0.8018
11097TIP3    H254707   2.045   6.355  15.660 -0.9140  1.7318  0.6561
11098TIP3   OH254708   1.092   1.732  15.231 -0.7106 -0.0312  0.3274
11098TIP3    H154709   1.091   1.638  15.245  0.8788 -0.1569 -0.3035
11098TIP3    H254710   1.007   1.762  15.262 -1.7005 -1.8294 -0.5839
11099TIP3   OH254711   0.340   0.930  14.690 -0.3678  0.0964  0.2993
11099TIP3    H154712   0.420   0.949  14.639 -1.5372  1.1630 -1.1848
11099TIP3    H254713   0.373   0.902  14.775  1.6360 -0.5900 -0.6503
11100TIP3   OH254714   2.437   4.921  12.486  0.0433 -0.2716 -0.5627
11100TIP3    H154715   2.410   4.992  12.545  0.2299  1.1559 -2.1582
11100TIP3    H254716   2.522   4.950  12.451 -0.1782 -0.9904 -1.7175
11101TIP3   OH254717   3.687   2.465   4.106 -0.0205 -0.0828  0.0462
11101TIP3    H154718   3.777   2.487   4.081  0.1301 -1.5529 -0.7631
11101TIP3    H254719   3.675   2.508   4.191  1.7642 -0.6309  0.6115
11102TIP3   OH254720   2.709   1.740   1.157  0.1246  0.1308  0.3511
11102TIP3    H154721   2.721   1.833   1.178 -0.9760  0.6837 -1.3853
11102TIP3    H254722   2.623   1.736   1.116  1.2256 -1.2786 -1.8585
11103TIP3   OH254723   2.107   4.206  16.657  0.1974 -0.1860 -0.2234
11103TIP3    H154724   2.088   4.129  16.602 -0.6249  0.2456 -0.5577
11103TIP3    H254725   2.201   4.218  16.651  0.9720 -3.6485  3.0885
11104TIP3   OH254726   4.239   3.593   6.300  0.5616 -0.0112 -0.3089
11104TIP3    H154727   4.254   3.663   6.236  0.4774  1.0497  0.8061
11104TIP3    H254728   4.179   3.631   6.364  0.0537 -1.3052  0.0044
11105TIP3   OH254729   3.342   0.512   0.801  0.2007 -0.0929 -0.4796
11105TIP3    H154730   3.297   0.594   0.782  1.2064  0.8080  0.9571
11105TIP3    H254731   3.272   0.449   0.816 -0.5795  0.7410 -0.6065
11106TIP3   OH254732   0.374   3.379  14.073  0.5111  0.1121 -0.2870
11106TIP3    H154733   0.376   3.343  13.985 -1.1070  0.5621 -0.5343
11106TIP3    H254734   0.282   3.402  14.087  1.2196  2.6158  0.4736
11107TIP3   OH254735   3.686   0.359  12.759 -0.4597  0.2970 -0.1136
11107TIP3    H154736   3.714   0.416  12.831  0.5468 -2.6972  1.9169
11107TIP3    H254737   3.763   0.350  12.704 -0.0158 -0.7476  0.6735
11108TIP3   OH254738   4.475   3.240  11.913  0.3791  0.3407  0.2449
11108TIP3    H154739   4.512   3.297  11.980  0.7311  1.8566 -1.2043
11108TIP3    H254740   4.411   3.186  11.960  1.0675  0.9267  1.8997
11109TIP3   OH254741   1.372   5.515   0.576 -0.3501 -0.4535  0.0720
11109TIP3    H154742   1.434   5.553   0.638  0.8058 -4.1593  1.2924
11109TIP3    H254743   1.289   5.557   0.598  0.7802  1.1173  1.5461
11110TIP3   OH254744   2.944   6.543  15.484  0.0322 -0.0304 -0.7395
11110TIP3    H154745   3.019   6.585  15.442  0.5905 -2.0312 -1.8124
11110TIP3    H254746   2.983   6.487  15.552 -0.7625  1.9202  1.3784
11111TIP3   OH254747   5.500   3.492   3.733  0.1246 -0.4060 -0.1894
11111TIP3    H154748   5.492   3.462   3.824 -0.7444 -0.9291 -0.4330
11111TIP3    H254749   5.528   3.583   3.740  0.1979 -0.4871  0.6027
11112TIP3   OH254750   0.021   2.402  13.845  0.0637  0.1996  0.1123
11112TIP3    H154751   0.051   2.434  13.930 -0.0569 -0.0418  0.2466
11112TIP3    H254752   0.037   2.308  13.847  0.3536  0.2404 -0.2560
11113TIP3   OH254753   5.891   1.525  15.784  0.4476 -0.0105  0.1704
11113TIP3    H154754   5.875   1.439  15.823 -0.1459 -1.0606 -2.2959
11113TIP3    H254755   5.806   1.569  15.789 -0.2868 -1.0990 -2.1556
11114TIP3   OH254756   2.486   5.876  14.289 -0.6854 -0.5759 -0.4058
11114TIP3    H154757   2.470   5.911  14.376 -0.9832 -0.0850 -0.6545
11114TIP3    H254758   2.533   5.946  14.243  0.6568 -1.3411 -0.2251
11115TIP3   OH254759   4.029   4.470  12.477  0.3983  0.0342  0.3245
11115TIP3    H154760   4.033   4.511  12.390 -0.5371 -2.1082 -0.7734
11115TIP3    H254761   3.946   4.501  12.514 -0.4985 -1.1488 -0.6624
11116TIP3   OH254762   1.720   1.372  14.828 -0.1368 -0.2434  0.5352
11116TIP3    H154763   1.726   1.441  14.762  0.5982  1.5275  2.4085
11116TIP3    H254764   1.784   1.306  14.799  0.9114  0.9838  0.0101
11117TIP3   OH254765   3.226   4.100  14.476  0.1092 -0.4304 -0.0300
11117TIP3    H154766   3.278   4.165  14.429 -1.1765 -1.1163 -2.4944
11117TIP3    H254767   3.263   4.016  14.450 -0.3685 -0.8068  0.4923
11118TIP3   OH254768   6.241   3.255  12.978  0.4474 -0.3770  0.1292
11118TIP3    H154769   6.179   3.241  13.048  0.0176  0.7838 -0.0001
11118TIP3    H254770   6.217   3.341  12.942  1.0857 -0.6551 -0.9824
11119TIP3   OH254771   1.206   4.707  12.796  0.4430  0.0893 -0.1339
11119TIP3    H154772   1.209   4.674  12.885 -1.2454  1.7217  0.5798
11119TIP3    H254773   1.294   4.692  12.761  2.3545  2.9672  3.1332
11120TIP3   OH254774   5.823   3.761   0.797  0.3763  0.1137 -0.1483
11120TIP3    H154775   5.811   3.696   0.867 -1.7219 -0.6308 -1.1598
11120TIP3    H254776   5.811   3.845   0.840  0.4940 -0.2757  0.6573
11121TIP3   OH254777   4.941   6.477  16.851  0.4253 -0.2916 -0.3790
11121TIP3    H154778   4.977   6.512  16.769 -0.4893  0.7708 -0.3460
11121TIP3    H254779   5.014   6.483  16.913  0.6964  0.2913 -0.7451
11122TIP3   OH254780   3.009   5.061   2.320  0.0647  0.2999  0.1028
11122TIP3    H154781   3.030   4.974   2.353 -1.6606  0.4452  1.6378
11122TIP3    H254782   2.965   5.045   2.236 -1.0548 -0.3707  0.8024
11123TIP3   OH254783   1.646   2.364  15.576 -0.1613 -0.0628  0.1249
11123TIP3    H154784   1.565   2.323  15.603 -0.3882  0.5464  0.3880
11123TIP3    H254785   1.651   2.348  15.482 -0.6795  0.0618  0.0755
11124TIP3   OH254786   3.132   2.911  17.030  0.1165  0.6271  0.2735
11124TIP3    H154787   3.131   2.837  16.970  1.0220  2.2177 -1.7581
11124TIP3    H254788   3.200   2.968  16.997 -1.3784  2.9649  1.0759
11125TIP3   OH254789   5.020   6.201  14.825 -0.0139 -0.1100  0.7347
11125TIP3    H154790   4.951   6.258  14.861 -0.5675  0.6391 -1.4403
11125TIP3    H254791   5.101   6.249  14.842 -0.2697  0.2657  0.9297
11126TIP3   OH254792   1.190   6.388   4.354  0.0330  0.3482  0.0233
11126TIP3    H154793   1.127   6.376   4.283 -0.9173  0.5306  0.8278
11126TIP3    H254794   1.148   6.350   4.430 -0.0932  2.4913  1.0768
11127TIP3   OH254795   5.275   2.773   5.872  0.2172  0.1453  0.3934
11127TIP3    H154796   5.370   2.764   5.865  0.2394  1.0356 -0.5173
11127TIP3    H254797   5.262   2.851   5.927  0.0373  2.0677 -2.2752
11128TIP3   OH254798   0.020   5.402   6.577  0.0509 -0.1549  0.3613
11128TIP3    H154799  -0.007   5.332   6.636 -0.8869 -1.4503 -1.5643
11128TIP3    H254800  -0.059   5.454   6.563 -0.3304 -1.2181 -1.5729
11129TIP3   OH254801   5.694   4.063   6.422  0.0268  0.7490  0.0030
11129TIP3    H154802   5.724   4.146   6.458  0.1474  1.3114 -1.3926
11129TIP3    H254803   5.747   4.050   6.344  0.8334 -1.2206  0.8375
11130TIP3   OH254804   1.850   3.196  14.146  0.0557 -0.0745 -0.0191
11130TIP3    H154805   1.809   3.110  14.137  2.4804 -1.5248  2.1736
11130TIP3    H254806   1.908   3.203  14.070  0.0275 -0.4555 -0.0762
11131TIP3   OH254807   5.930   5.104  10.669 -0.0675 -0.8111  0.3178
11131TIP3    H154808   6.013   5.059  10.675  0.5680  0.2427 -0.3561
11131TIP3    H254809   5.948   5.192  10.703 -0.1257  0.4033 -2.6305
11132TIP3   OH254810   5.025   4.538  13.470  0.0141 -0.0532  0.0759
11132TIP3    H154811   4.938   4.499  13.466 -0.2355  0.2902  1.8618
11132TIP3    H254812   5.085   4.463  13.476 -0.2503 -0.2492  0.2652
11133TIP3   OH254813   2.063   4.788  14.183  0.1780  0.4710  0.2196
11133TIP3    H154814   1.995   4.854  14.176 -0.4375 -0.1938 -0.1023
11133TIP3    H254815   2.022   4.715  14.229  1.1017  0.6356  1.3313
11134TIP3   OH254816   0.650   0.355  16.299 -0.4938  0.1794  0.1860
11134TIP3    H154817   0.657   0.408  16.379 -1.0957  0.4505  0.0628
11134TIP3    H254818   0.594   0.282  16.324 -2.3762  1.3483 -0.5440
11135TIP3   OH254819   5.555   1.406  12.367 -0.1997  0.4633  0.5271
11135TIP3    H154820   5.474   1.360  12.389 -0.8197  0.9748 -0.6872
11135TIP3    H254821   5.571   1.386  12.275  3.0148 -2.6032  1.6349
11136TIP3   OH254822   3.403   1.115  13.459 -0.4137 -0.4238 -0.5465
11136TIP3    H154823   3.476   1.167  13.426  0.5411 -1.5501 -0.2408
11136TIP3    H254824   3.325   1.164  13.433  0.4539  0.9389 -0.6136
11137TIP3   OH254825   0.234   2.397   4.897 -0.1636  0.3178  0.8080
11137TIP3    H154826   0.177   2.447   4.956 -1.3067 -2.3699  2.0577
11137TIP3    H254827   0.260   2.321   4.949  2.7283  0.3131 -0.5477
11138TIP3   OH254828   4.986   1.300   0.594 -0.4678  0.1252  0.1660
11138TIP3    H154829   4.993   1.210   0.625 -0.7831  0.0445  0.0052
11138TIP3    H254830   4.906   1.334   0.634  0.8559  1.0703  2.0512
11139TIP3   OH254831   0.258   4.182   0.388 -0.0812 -0.2905  0.2784
11139TIP3    H154832   0.189   4.245   0.411 -0.5408 -0.1546 -1.4310
11139TIP3    H254833   0.213   4.115   0.337  0.4017 -2.0611  2.1222
11140TIP3   OH254834   0.319   0.764   5.556  0.0600  0.8278  0.0636
11140TIP3    H154835   0.280   0.815   5.485  0.1639  1.2824  0.3318
11140TIP3    H254836   0.357   0.829   5.614 -0.7768  0.5132  0.9864
11141TIP3   OH254837   3.711   2.931  16.442 -0.4879  0.1562  0.2359
11141TIP3    H154838   3.665   2.922  16.525  1.7136  0.2450  1.4950
11141TIP3    H254839   3.768   2.854  16.437 -0.8952 -0.0540 -1.3888
11142TIP3   OH254840   1.103   6.104  15.425  0.6316 -0.0934 -0.1163
11142TIP3    H154841   1.108   6.084  15.332  1.4175  1.0256 -0.3269
11142TIP3    H254842   1.011   6.087  15.448  0.3340  0.0292 -1.1901
11143TIP3   OH254843   0.796   3.378  14.151 -0.7988  0.0406 -0.1962
11143TIP3    H154844   0.815   3.359  14.243  1.0553  0.9336 -0.3681
11143TIP3    H254845   0.703   3.400  14.150 -0.4208  1.9156  1.7915
11144TIP3   OH254846   1.485   3.121  15.024 -0.5095 -0.1003  0.1506
11144TIP3    H154847   1.481   3.215  15.005 -1.3613 -0.0377  0.6037
11144TIP3    H254848   1.491   3.080  14.938 -2.3059  0.2761 -0.1810
11145TIP3   OH254849   6.200   1.241  17.061 -1.2607  0.0946 -0.7168
11145TIP3    H154850   6.110   1.254  17.031 -1.2974  2.1427  0.2109
11145TIP3    H254851   6.215   1.312  17.123  1.0828 -0.1140 -1.0122
11146TIP3   OH254852   5.139   4.170   2.509  0.2194 -0.5642 -0.0892
11146TIP3    H154853   5.107   4.260   2.500 -0.1455 -0.7956 -1.1639
11146TIP3    H254854   5.071   4.125   2.559 -0.2085 -0.5525 -0.6494
11147TIP3   OH254855   6.371   1.790  12.335  0.1815  0.0506  0.7529
11147TIP3    H154856   6.336   1.815  12.249 -0.4824  1.6724  1.4713
11147TIP3    H254857   6.466   1.799  12.326  0.2292 -1.2629 -0.2495
11148TIP3   OH254858   5.497   0.122   5.598  0.2016 -0.0336 -1.0133
11148TIP3    H154859   5.499   0.218   5.602  4.1452 -0.0492 -0.0901
11148TIP3    H254860   5.511   0.095   5.689 -3.8358 -1.5670 -0.7788
11149TIP3   OH254861   0.031   5.021   1.289 -0.1979  0.2814  0.1945
11149TIP3    H154862  -0.023   5.061   1.357  1.3226  0.5777  1.2503
11149TIP3    H254863   0.032   4.928   1.310  0.5663  0.4231  0.7903
11150TIP3   OH254864   0.962   5.288  14.927 -0.1166  0.0208 -0.1875
11150TIP3    H154865   0.989   5.361  14.872  0.0512 -0.5595 -0.8763
11150TIP3    H254866   0.936   5.329  15.010  1.4788  0.7217 -0.0152
11151TIP3   OH254867   2.477   3.343  11.235  0.3345  0.0946 -0.2476
11151TIP3    H154868   2.566   3.377  11.224  0.5879  0.0141  1.3968
11151TIP3    H254869   2.438   3.399  11.302 -0.2918 -0.8982  0.2283
11152TIP3   OH254870   1.063   6.439   6.159  0.0342 -0.1195  0.3338
11152TIP3    H154871   0.999   6.430   6.230  1.2660 -1.9520  1.2358
11152TIP3    H254872   1.064   6.353   6.116  0.2259  0.5931 -1.1289
11153TIP3   OH254873   2.556   3.639   2.191 -0.2232  0.6528  0.1056
11153TIP3    H154874   2.530   3.589   2.114 -0.3813  0.6597  0.1532
11153TIP3    H254875   2.517   3.592   2.265 -0.8321  1.1443  0.1053
11154TIP3   OH254876   1.571   5.602  13.843  0.2493 -0.9073  0.6740
11154TIP3    H154877   1.506   5.541  13.807 -0.0180 -0.3239  0.1658
11154TIP3    H254878   1.566   5.679  13.786  1.2553 -0.7839  0.7461
11155TIP3   OH254879   6.064   4.473   4.684 -0.0011  0.1496  0.2412
11155TIP3    H154880   6.073   4.451   4.777 -0.7918  1.9646  0.7588
11155TIP3    H254881   6.137   4.532   4.666 -1.9017  2.7100  0.6483
11156TIP3   OH254882   2.695   4.822  12.347 -0.0866 -0.2731 -0.3193
11156TIP3    H154883   2.773   4.848  12.396  0.1993 -0.4701 -0.6626
11156TIP3    H254884   2.668   4.740  12.388  0.5859 -0.8239 -0.9602
11157TIP3   OH254885   4.472   1.088  12.240  0.2923 -0.2074  0.5254
11157TIP3    H154886   4.567   1.090  12.236  0.3197 -1.9523 -0.0329
11157TIP3    H254887   4.445   1.034  12.165 -1.0693 -0.7392  1.3719
11158TIP3   OH254888   5.887   2.857  13.274 -0.1838  0.3785 -0.1520
11158TIP3    H154889   5.865   2.809  13.194 -0.5618 -0.9642  0.7249
11158TIP3    H254890   5.804   2.862  13.322  0.2274  0.3543  0.5698
11159TIP3   OH254891   1.570   5.965  12.467  0.3590  0.1596 -0.2791
11159TIP3    H154892   1.647   5.943  12.518  1.7279  1.6768 -1.6434
11159TIP3    H254893   1.574   6.060  12.457 -1.0947  0.1321 -1.3048
11160TIP3   OH254894   5.325   6.717   0.794  0.3280 -0.1967  0.2672
11160TIP3    H154895   5.277   6.759   0.723 -0.9840  0.1692  1.3441
11160TIP3    H254896   5.411   6.697   0.756 -0.6626 -0.8737 -1.6859
11161TIP3   OH254897   6.283   0.530  12.742 -0.6061 -0.3489  0.0439
11161TIP3    H154898   6.257   0.599  12.803  0.2962  0.0076  0.0288
11161TIP3    H254899   6.366   0.498  12.777  0.1378  0.1559 -1.2353
11162TIP3   OH254900   1.406   6.523  12.038  0.1623 -0.5097 -0.0117
11162TIP3    H154901   1.387   6.466  11.964 -0.6202  1.2564 -1.2096
11162TIP3    H254902   1.364   6.606  12.015  2.0675  0.8362  1.2602
11163TIP3   OH254903   3.714   4.931  14.869 -0.2238  0.1600 -0.5496
11163TIP3    H154904   3.692   4.854  14.816  0.2464  0.2068 -0.8173
11163TIP3    H254905   3.635   4.985  14.866 -0.0754  0.3363 -1.5191
11164TIP3   OH254906   0.819   6.177  12.399  0.3211  0.6137 -0.3864
11164TIP3    H154907   0.861   6.219  12.474  0.8761 -1.6426  0.5938
11164TIP3    H254908   0.760   6.244  12.365  2.9237  2.9951 -0.3223
11165TIP3   OH254909   0.020   5.499  11.895 -0.3675 -0.4867 -0.1843
11165TIP3    H154910   0.075   5.556  11.841 -0.7481  1.0796  1.0230
11165TIP3    H254911   0.045   5.410  11.870  1.9225  0.1996 -0.4733
11166TIP3   OH254912   0.857   4.354   0.025  0.4852  0.3946 -0.3714
11166TIP3    H154913   0.948   4.327   0.016  1.0673  2.1635  0.0728
11166TIP3    H254914   0.855   4.444  -0.009 -0.8457  0.7943  0.7397
11167TIP3   OH254915   1.374   2.691   1.126  0.2285  0.7238 -0.2387
11167TIP3    H154916   1.285   2.657   1.121  0.8199 -0.7999 -0.5506
11167TIP3    H254917   1.424   2.637   1.065  1.1801  2.1971 -0.7918
11168TIP3   OH254918   3.809   1.985   4.486  0.2597 -0.3958  0.3157
11168TIP3    H154919   3.795   2.080   4.483 -0.2186 -0.3163  3.0716
11168TIP3    H254920   3.898   1.975   4.521  0.0903 -0.9642  0.5918
11169TIP3   OH254921   6.772   4.732   3.114  0.1355  0.0128  0.1864
11169TIP3    H154922   6.739   4.790   3.182  0.9333 -1.4533  1.8724
11169TIP3    H254923   6.733   4.647   3.133  1.8544 -0.8544 -0.0273
11170TIP3   OH254924   1.831   5.212  16.450  0.0358  0.4433  0.8152
11170TIP3    H154925   1.808   5.279  16.385 -0.3649  1.2888  1.8112
11170TIP3    H254926   1.927   5.204  16.443 -0.3637 -2.6355 -2.9038
11171TIP3   OH254927   5.869   0.076  13.266  0.2231  0.2208 -0.6556
11171TIP3    H154928   5.798   0.053  13.326  1.5083  1.5907  1.4567
11171TIP3    H254929   5.830   0.140  13.206 -0.6178  0.1641 -0.1763
11172TIP3   OH254930   3.914   0.498   3.071 -0.4107  0.1520  0.3495
11172TIP3    H154931   3.831   0.527   3.108 -0.2874  0.2666  0.5319
11172TIP3    H254932   3.889   0.451   2.991 -0.5885  0.9569 -0.0680
11173TIP3   OH254933   2.798   6.368  15.144 -0.2565  0.1280  0.7155
11173TIP3    H154934   2.708   6.382  15.172 -0.9221 -0.1266 -1.2165
11173TIP3    H254935   2.796   6.381  15.049  1.6075 -0.5172  0.5645
11174TIP3   OH254936   5.278   5.520   2.913 -0.5784 -0.4457  0.1487
11174TIP3    H154937   5.188   5.549   2.899 -0.5020 -0.8332 -1.1783
11174TIP3    H254938   5.325   5.548   2.835  0.7896  1.0553  1.4825
11175TIP3   OH254939   0.996   0.857  12.181  0.0126 -0.4708 -0.1878
11175TIP3    H154940   0.909   0.837  12.216  1.0261  0.1381  2.9068
11175TIP3    H254941   1.016   0.944  12.216  2.2365 -0.9883 -0.0521
11176TIP3   OH254942   5.012   1.667  13.925 -0.2765  0.7117  0.7130
11176TIP3    H154943   4.945   1.708  13.870  1.8512  0.7221 -1.9822
11176TIP3    H254944   5.067   1.739  13.955  0.3926  0.3837  0.2841
11177TIP3   OH254945   5.227   4.362   6.225 -0.1674 -0.1028 -0.1520
11177TIP3    H154946   5.252   4.270   6.239  0.7781  0.3686  1.3812
11177TIP3    H254947   5.167   4.381   6.297 -0.3754  0.4748 -0.4832
11178TIP3   OH254948   3.922   3.231  13.881  0.6278  0.0962 -0.0452
11178TIP3    H154949   3.858   3.161  13.868  1.2057 -0.5980  0.8013
11178TIP3    H254950   3.883   3.286  13.950  0.9912 -0.3945  0.5573
11179TIP3   OH254951   1.079   2.872   5.568  0.2924  0.2654 -0.6397
11179TIP3    H154952   1.026   2.947   5.594 -0.2398  0.2399 -1.6167
11179TIP3    H254953   1.164   2.909   5.544  0.5313  0.3747  0.3659
11180TIP3   OH254954   3.342   5.520   4.175  0.4232 -0.0227 -0.0118
11180TIP3    H154955   3.335   5.484   4.086 -0.2973  2.6361 -1.1033
11180TIP3    H254956   3.331   5.445   4.233  2.8779 -2.1711 -2.1609
11181TIP3   OH254957   3.193   1.104   1.196 -0.2116  0.6811  0.4804
11181TIP3    H154958   3.272   1.111   1.143 -0.8699 -0.0844 -0.6168
11181TIP3    H254959   3.208   1.163   1.270  0.9150  1.3725 -0.2953
11182TIP3   OH254960   4.712   4.374  11.846 -0.0044  0.3795  0.1146
11182TIP3    H154961   4.747   4.295  11.885 -0.3362  0.2115  0.0752
11182TIP3    H254962   4.758   4.446  11.891  0.0268  0.1758  0.4107
11183TIP3   OH254963   4.443   1.814  11.104  0.4625  0.0375  0.1128
11183TIP3    H154964   4.474   1.788  11.017 -0.1433 -1.8236  0.4395
11183TIP3    H254965   4.348   1.808  11.098  0.4346 -0.4043  1.0069
11184TIP3   OH254966   5.612   2.362  12.236  0.3577  0.5806 -0.2322
11184TIP3    H154967   5.702   2.338  12.216 -0.0356  1.5035 -3.3620
11184TIP3    H254968   5.559   2.289  12.202 -0.1819  0.8654 -0.0131
11185TIP3   OH254969   3.540   4.567  12.779  0.2881 -0.1091 -0.6666
11185TIP3    H154970   3.605   4.636  12.791 -0.7214  0.4023  2.1331
11185TIP3    H254971   3.505   4.550  12.866 -1.8043 -1.9044 -1.7798
11186TIP3   OH254972   5.159   0.354   1.482  0.2452 -0.5026  0.7031
11186TIP3    H154973   5.087   0.326   1.425  0.7740 -0.4899  0.0261
11186TIP3    H254974   5.167   0.448   1.465 -0.6696 -0.1723  2.0099
11187TIP3   OH254975   2.410   2.239   4.457 -0.3197  0.4189 -0.0466
11187TIP3    H154976   2.376   2.282   4.535 -1.6194  0.3290 -0.5651
11187TIP3    H254977   2.498   2.210   4.483  0.6288  3.4125  0.2989
11188TIP3   OH254978   5.630   5.872   1.023 -0.5403  0.1482  0.0641
11188TIP3    H154979   5.706   5.870   0.964 -0.4882 -0.0928  0.1377
11188TIP3    H254980   5.555   5.855   0.966 -0.4969 -0.0208  0.0580
11189TIP3   OH254981   3.995   2.258   0.847  0.3274 -0.4093 -0.2649
11189TIP3    H154982   4.004   2.347   0.812  2.3083 -0.5998 -0.3065
11189TIP3    H254983   4.038   2.261   0.932 -2.5008 -0.5227  1.2341
11190TIP3   OH254984   5.126   0.411  12.835 -0.3913 -0.3634 -0.1407
11190TIP3    H154985   5.157   0.383  12.749 -0.4266  0.2928 -0.3729
11190TIP3    H254986   5.203   0.407  12.891  0.0839  1.0724 -0.6669
11191TIP3   OH254987   3.659   1.560  13.220  0.0825  0.1844 -0.0275
11191TIP3    H154988   3.680   1.589  13.131  0.3077  3.1979  0.9506
11191TIP3    H254989   3.563   1.549  13.219  0.0098  0.8496 -0.4581
11192TIP3   OH254990   3.533   4.829   3.273  0.1874 -0.5065 -0.6006
11192TIP3    H154991   3.539   4.765   3.344  0.6559 -0.4724 -0.6040
11192TIP3    H254992   3.486   4.783   3.203 -1.0049 -0.2648  0.0248
11193TIP3   OH254993   3.616   3.689   1.253 -0.0371  0.5299 -0.2801
11193TIP3    H154994   3.558   3.764   1.269 -1.0695 -0.1027 -1.0306
11193TIP3    H254995   3.563   3.628   1.202  0.6568 -0.9314  0.7361
11194TIP3   OH254996   4.898   3.002  16.783  0.3540 -0.5070 -0.9624
11194TIP3    H154997   4.985   3.003  16.822 -0.0658 -1.3360 -0.0124
11194TIP3    H254998   4.845   3.055  16.841  0.1089 -0.3854 -1.2959
11195TIP3   OH254999   1.024   1.902   4.766  0.3425 -0.3029  0.1471
11195TIP3    H155000   1.112   1.905   4.803 -0.2219 -0.1443  1.5278
11195TIP3    H255001   0.986   1.821   4.801  0.4046 -1.0777 -1.5492
11196TIP3   OH255002   3.482   5.718  16.759 -0.3730 -0.4082 -0.3257
11196TIP3    H155003   3.507   5.636  16.801 -0.5295 -1.0159 -1.3915
11196TIP3    H255004   3.435   5.767  16.827  1.5943 -0.2649  0.9722
11197TIP3   OH255005   1.882   4.180   0.663  0.0065  0.4045 -0.4726
11197TIP3    H155006   1.924   4.100   0.694 -2.3295 -0.7700 -0.2488
11197TIP3    H255007   1.952   4.246   0.664  1.5381 -1.1972  1.0004
11198TIP3   OH255008   0.291   4.218   4.008  0.2484 -0.1339 -0.1888
11198TIP3    H155009   0.373   4.265   4.022  0.0617  0.0046  0.4582
11198TIP3    H255010   0.225   4.287   3.999 -0.1533 -0.2777  1.5653
11199TIP3   OH255011   4.870   4.943   5.825 -0.1421 -0.1553 -0.3482
11199TIP3    H155012   4.953   4.934   5.872 -1.7142 -0.2188  2.5835
11199TIP3    H255013   4.814   4.875   5.863 -1.1965 -0.9009 -3.1185
11200TIP3   OH255014   5.135   4.101   0.608  0.3361  0.4472 -0.7683
11200TIP3    H155015   5.157   4.177   0.552 -0.8196  0.6886 -0.8974
11200TIP3    H255016   5.045   4.080   0.585  0.3483 -0.3883 -0.0451
11201TIP3   OH255017   1.976   1.316   0.597  0.5424  0.0971 -0.7118
11201TIP3    H155018   2.064   1.284   0.612  0.7011 -0.1332 -2.1106
11201TIP3    H255019   1.926   1.239   0.568  0.2002  0.5007 -1.1995
11202TIP3   OH255020   2.544   0.147  16.577  0.3570 -0.4970 -0.4484
11202TIP3    H155021   2.567   0.240  16.566 -0.4467 -0.2384  0.0292
11202TIP3    H255022   2.449   0.145  16.575  0.3218 -1.1329  0.8770
11203TIP3   OH255023   0.084   6.177   3.219  0.5355 -0.3644 -0.0078
11203TIP3    H155024   0.159   6.193   3.161  0.3607  0.9068  0.1049
11203TIP3    H255025   0.094   6.242   3.289  0.0032 -1.0066  0.6660
11204TIP3   OH255026   0.902   6.087   4.423  0.0641 -0.7846  0.0874
11204TIP3    H155027   0.862   6.139   4.353  0.6997  0.4237  0.6057
11204TIP3    H255028   0.928   6.005   4.381 -0.0134 -0.2630 -0.9780
11205TIP3   OH255029   6.292   6.109  14.411  0.0851  0.4322  0.1269
11205TIP3    H155030   6.251   6.138  14.492 -0.0334  0.4440  0.0619
11205TIP3    H255031   6.269   6.016  14.404 -0.0792  0.4822  0.0000
11206TIP3   OH255032   4.350   4.799  12.074  0.4063 -0.2228 -0.3273
11206TIP3    H155033   4.305   4.857  12.135 -0.2966 -0.8549 -0.2397
11206TIP3    H255034   4.368   4.720  12.126  2.3690  0.3376 -0.1051
11207TIP3   OH255035   5.805   4.856   3.709 -0.3898  0.1579 -0.0042
11207TIP3    H155036   5.894   4.841   3.742 -1.1067 -1.1228  1.3707
11207TIP3    H255037   5.756   4.884   3.786 -0.7647  2.7198 -1.1274
11208TIP3   OH255038   3.528   1.038   5.303  0.2683 -0.1954  0.0346
11208TIP3    H155039   3.559   1.000   5.220  0.7197 -1.7809  0.8967
11208TIP3    H255040   3.524   1.132   5.287  1.2718 -0.3984 -1.4938
11209TIP3   OH255041   6.028   3.366   3.959  0.1585  0.2102  0.1702
11209TIP3    H155042   6.025   3.426   3.885  1.3853 -0.6851 -0.6409
11209TIP3    H255043   6.085   3.409   4.023  0.4003  0.2709 -0.0840
11210TIP3   OH255044   1.686   3.558  11.775 -0.5105 -0.2237 -0.0175
11210TIP3    H155045   1.607   3.564  11.829 -0.9802 -0.6542 -0.6417
11210TIP3    H255046   1.735   3.485  11.812 -0.8488 -0.5400 -0.1756
11211TIP3   OH255047   1.069   6.558   1.537 -0.6915  0.6668  0.8628
11211TIP3    H155048   1.027   6.641   1.558 -0.7875  1.3274 -1.7526
11211TIP3    H255049   1.145   6.583   1.484 -0.9629 -0.9354 -0.2965
11212TIP3   OH255050   4.461   2.495   5.808 -0.1474 -1.1727 -0.9686
11212TIP3    H155051   4.490   2.513   5.897 -0.6494  0.6241 -1.1419
11212TIP3    H255052   4.453   2.400   5.804  1.4936 -1.3889  0.3822
11213TIP3   OH255053   2.556   1.711  11.614 -0.3173  0.1221  0.4148
11213TIP3    H155054   2.469   1.694  11.649 -0.1757  0.7291  1.0569
11213TIP3    H255055   2.542   1.774  11.543 -0.5329 -0.6683 -0.2564
11214TIP3   OH255056   0.046   0.135   4.232 -0.2776  0.5913 -0.0402
11214TIP3    H155057   0.089   0.134   4.146 -2.1493  0.9795 -0.9964
11214TIP3    H255058  -0.048   0.137   4.213 -0.7232  0.8891  2.0210
11215TIP3   OH255059   3.443   5.571   1.716  0.0949  0.2617  0.9006
11215TIP3    H155060   3.530   5.533   1.706 -0.5432 -1.0025 -0.0400
11215TIP3    H255061   3.411   5.537   1.799  0.5110  0.7643  1.2692
11216TIP3   OH255062   0.383   4.111   2.180  0.8327 -0.0631 -0.2755
11216TIP3    H155063   0.432   4.171   2.236 -0.0511  0.1981  0.2154
11216TIP3    H255064   0.317   4.165   2.137 -0.4147 -0.8021  0.6987
11217TIP3   OH255065   1.230   1.843  12.568 -0.3841  0.1698 -0.7146
11217TIP3    H155066   1.252   1.894  12.490 -1.3997  0.9440 -0.5006
11217TIP3    H255067   1.140   1.867  12.588 -0.4444 -0.7454  0.1494
11218TIP3   OH255068   2.275   4.854  13.789  0.7018 -0.1670  0.0114
11218TIP3    H155069   2.192   4.830  13.747  1.0126 -0.0785 -0.6598
11218TIP3    H255070   2.329   4.890  13.718  0.8500  0.9755  0.6985
11219TIP3   OH255071   6.505   4.848   0.461  0.3426  0.4050 -0.1262
11219TIP3    H155072   6.463   4.928   0.429  1.8796  1.4086  0.2908
11219TIP3    H255073   6.511   4.791   0.385 -1.2932  0.4463 -0.3033
11220TIP3   OH255074   4.873   4.327  15.142  0.0927 -0.6509 -0.3458
11220TIP3    H155075   4.799   4.335  15.082  1.5510 -0.3787 -2.1486
11220TIP3    H255076   4.948   4.358  15.091  0.9818  1.9258  2.4423
11221TIP3   OH255077   5.770   4.903  10.701  0.0810  0.1980 -0.2860
11221TIP3    H155078   5.823   4.982  10.687  1.8062 -0.2868  3.0282
11221TIP3    H255079   5.797   4.844  10.630  1.5215  1.2266 -0.6281
11222TIP3   OH255080   2.457   1.228  16.086  0.4937 -0.5343 -0.1327
11222TIP3    H155081   2.546   1.262  16.077  0.6222 -1.4442 -3.1679
11222TIP3    H255082   2.455   1.153  16.026 -2.4360 -0.2915 -0.3958
11223TIP3   OH255083   5.896   1.542   0.791  0.3127  0.0067 -0.2821
11223TIP3    H155084   5.861   1.619   0.836  1.0924  0.4650 -0.4394
11223TIP3    H255085   5.857   1.546   0.704  0.2481  0.1588 -0.2465
11224TIP3   OH255086   0.486   4.907  16.409 -0.1344  0.6223 -0.4708
11224TIP3    H155087   0.492   4.857  16.490  0.0291  1.8851  0.3071
11224TIP3    H255088   0.572   4.898  16.369 -0.1667  0.1184 -0.4299
11225TIP3   OH255089   0.172   2.611   1.006 -0.0220 -0.0294  0.1752
11225TIP3    H155090   0.123   2.542   1.050  1.8831 -0.4716  1.6953
11225TIP3    H255091   0.123   2.691   1.023 -0.2266 -0.4550  1.6734
11226TIP3   OH255092   1.186   3.328   0.969 -0.1668  0.6901  0.4928
11226TIP3    H155093   1.126   3.253   0.965  2.6995 -1.6858  0.0726
11226TIP3    H255094   1.261   3.301   0.917  1.9659  2.9455  2.2862
11227TIP3   OH255095   5.977   1.944  16.385 -0.1781  0.3821  0.3749
11227TIP3    H155096   6.034   1.956  16.309 -0.8467  0.1169 -0.1738
11227TIP3    H255097   5.977   2.028  16.430 -1.5257  1.2080 -1.1336
11228TIP3   OH255098   3.181   3.265   2.922 -0.0245  0.0589  0.9160
11228TIP3    H155099   3.245   3.276   2.851  0.5922  1.1954  1.6401
11228TIP3    H255100   3.100   3.241   2.877  0.2232  1.2867 -0.2122
11229TIP3   OH255101   1.227   1.673   3.712 -0.1486 -0.0493 -0.6418
11229TIP3    H155102   1.273   1.750   3.677  0.1809 -0.2710 -0.6899
11229TIP3    H255103   1.296   1.614   3.740 -0.4077 -0.0988 -0.0917
11230TIP3   OH255104   3.193   0.749   0.824 -0.2843  0.2216  0.3640
11230TIP3    H155105   3.230   0.793   0.747  1.3270  1.2202  1.6858
11230TIP3    H255106   3.098   0.759   0.814  0.0099  4.0485  0.6243
11231TIP3   OH255107   4.198   0.848   1.430 -0.3508 -0.1322  0.4298
11231TIP3    H155108   4.145   0.786   1.380 -1.8647  1.4616 -0.0167
11231TIP3    H255109   4.239   0.903   1.364 -0.1175  0.2024  0.8545
11232TIP3   OH255110   4.174   0.402   0.813  0.7043 -0.1379 -0.2296
11232TIP3    H155111   4.215   0.425   0.896  1.5310  0.9656 -0.9352
11232TIP3    H255112   4.117   0.328   0.835  1.2400 -0.1448  1.2277
11233TIP3   OH255113   2.611   5.485  15.472 -0.1538  0.0943 -0.5104
11233TIP3    H155114   2.707   5.480  15.470  0.0218  2.3814  0.4625
11233TIP3    H255115   2.588   5.469  15.563 -0.6104  0.5405 -0.5433
11234TIP3   OH255116   1.792   5.447  16.303 -0.3363  0.3553 -0.0702
11234TIP3    H155117   1.858   5.490  16.247 -0.3897 -0.8419 -1.0725
11234TIP3    H255118   1.740   5.519  16.338  0.3516  1.1946 -0.7410
11235TIP3   OH255119   3.258   3.533   5.803  0.4803 -0.1677 -0.1822
11235TIP3    H155120   3.247   3.459   5.744 -0.7675  0.7297 -1.1269
11235TIP3    H255121   3.344   3.568   5.782  0.1437 -0.0049 -1.3327
11236TIP3   OH255122   2.356   4.509   0.225  0.1055 -0.2875 -0.2809
11236TIP3    H155123   2.274   4.547   0.194  0.6247  0.1492 -1.1443
11236TIP3    H255124   2.424   4.554   0.175  0.9187 -0.1426  0.9267
11237TIP3   OH255125   1.383   1.663   2.134  0.3640  0.7807 -0.6312
11237TIP3    H155126   1.343   1.750   2.128  0.2719  0.6250 -2.4568
11237TIP3    H255127   1.474   1.676   2.109 -0.2487 -0.0575 -3.4284
11238TIP3   OH255128   6.458   0.349   3.948  0.5636  0.2511  0.2041
11238TIP3    H155129   6.473   0.420   4.011  2.7397  0.4200 -0.4613
11238TIP3    H255130   6.522   0.282   3.972  0.6231 -0.1730 -1.0796
11239TIP3   OH255131   0.569   5.417  11.180 -0.0710  0.0941  0.0314
11239TIP3    H155132   0.520   5.336  11.166 -1.2742  0.8799 -0.4220
11239TIP3    H255133   0.594   5.445  11.092  2.0766 -0.8312  0.3389
11240TIP3   OH255134   6.558   5.837   0.136  0.2952 -0.8778 -1.0335
11240TIP3    H155135   6.620   5.844   0.208  0.6861  1.4929 -1.5519
11240TIP3    H255136   6.483   5.790   0.172 -0.5698  2.3681  1.6785
11241TIP3   OH255137   4.150   5.891   5.145  0.1568  0.1353  0.6069
11241TIP3    H155138   4.134   5.928   5.059  2.1955 -2.0064 -0.7418
11241TIP3    H255139   4.094   5.813   5.149  1.4471 -0.8155  0.4656
11242TIP3   OH255140   5.980   2.557   6.051 -0.2148 -0.4132 -0.6699
11242TIP3    H155141   5.976   2.590   6.141 -1.0464 -2.8088  0.2273
11242TIP3    H255142   6.068   2.521   6.042  0.3997  1.2246 -1.3583
11243TIP3   OH255143   2.224   4.954   5.587  0.4456 -0.0546 -0.6411
11243TIP3    H155144   2.138   4.924   5.618 -0.4928  1.1819 -1.9927
11243TIP3    H255145   2.220   5.049   5.593  2.0349 -0.0169  0.0426
11244TIP3   OH255146   5.366   3.138   3.616  0.5896 -0.0197 -0.8625
11244TIP3    H155147   5.298   3.194   3.579  0.6164 -0.5012 -1.6402
11244TIP3    H255148   5.395   3.186   3.694  0.0512  0.6619 -1.0665
11245TIP3   OH255149   4.509   1.751  16.501  0.4134  0.6841  0.7700
11245TIP3    H155150   4.512   1.684  16.570 -1.2830 -1.0958 -0.8161
11245TIP3    H255151   4.585   1.732  16.445 -0.3879 -0.3010  0.0008
11246TIP3   OH255152   2.021   6.512  16.800  0.5371  0.2516 -0.1779
11246TIP3    H155153   2.075   6.567  16.857  0.2678 -0.6371  0.9315
11246TIP3    H255154   1.982   6.447  16.858  0.1749 -0.6008 -1.3524
11247TIP3   OH255155   4.053   0.075  10.545  0.3541 -0.5235  0.0635
11247TIP3    H155156   4.039  -0.011  10.584  0.4815 -0.4493  0.2739
11247TIP3    H255157   4.112   0.059  10.471  1.0773 -0.4977  0.6270
11248TIP3   OH255158   2.302   4.460  16.981  0.1367  0.2549 -0.0480
11248TIP3    H155159   2.312   4.480  16.888  0.3868  0.9008  0.1110
11248TIP3    H255160   2.344   4.534  17.026 -1.5145  0.8208  0.6012
11249TIP3   OH255161   6.704   5.222   4.094 -0.1409 -0.5050 -1.0717
11249TIP3    H155162   6.722   5.316   4.091  0.3337 -0.4920  1.2424
11249TIP3    H255163   6.791   5.182   4.086 -0.0478 -0.6571  0.4489
11250TIP3   OH255164   2.277   6.714   3.331 -0.0620  0.2139 -0.4348
11250TIP3    H155165   2.256   6.800   3.295 -1.0057 -0.1555 -0.8020
11250TIP3    H255166   2.202   6.659   3.307 -0.4029 -0.2117  1.5408
11251TIP3   OH255167   3.589   3.261  16.938 -0.3772  0.4087  0.1353
11251TIP3    H155168   3.550   3.286  17.022  1.1257  0.1935  0.9113
11251TIP3    H255169   3.662   3.204  16.962 -2.1600 -2.6856 -1.4768
11252TIP3   OH255170   6.467   4.224   1.465  0.1439  0.5670  0.1648
11252TIP3    H155171   6.406   4.159   1.432  1.2003 -0.5776  0.4437
11252TIP3    H255172   6.415   4.304   1.472 -0.9578 -0.0363 -0.9506
11253TIP3   OH255173   6.525   0.839   2.816 -0.4609 -0.4576 -0.1314
11253TIP3    H155174   6.572   0.897   2.875 -0.7261 -0.5973  0.2202
11253TIP3    H255175   6.517   0.888   2.735 -0.1456 -0.2419 -0.0337
11254TIP3   OH255176   3.289   0.124  15.499  0.4214 -0.6819  0.0318
11254TIP3    H155177   3.230   0.123  15.575  0.2698  1.3471 -0.0301
11254TIP3    H255178   3.249   0.186  15.438  1.5597 -0.8163 -0.8797
11255TIP3   OH255179   3.696   6.653   4.839  0.0458 -0.0886  0.1347
11255TIP3    H155180   3.763   6.600   4.797  0.3646 -0.5142  1.1645
11255TIP3    H255181   3.662   6.598   4.909 -1.0586  0.3016 -0.0817
11256TIP3   OH255182   5.169   5.603  13.305  0.3327  0.0568 -0.3919
11256TIP3    H155183   5.127   5.689  13.307 -1.5033 -0.8130  0.8435
11256TIP3    H255184   5.108   5.547  13.257  0.0820 -1.2091  1.3176
11257TIP3   OH255185   5.282   0.661  12.441 -0.2059 -0.4299 -0.0886
11257TIP3    H155186   5.250   0.718  12.511 -1.1863 -0.4934 -0.4766
11257TIP3    H255187   5.246   0.575  12.461  2.2933 -1.2183  1.1704
11258TIP3   OH255188   6.589   5.091  11.615 -0.5169 -0.5801  0.4394
11258TIP3    H155189   6.672   5.046  11.599 -0.2281  0.6778 -1.7561
11258TIP3    H255190   6.605   5.146  11.692  0.5720 -0.6304  0.2484
11259TIP3   OH255191   4.310   1.556  14.910 -0.5964  0.2611 -0.5478
11259TIP3    H155192   4.350   1.476  14.943  0.6033  1.8320  1.9395
11259TIP3    H255193   4.321   1.550  14.815  4.0602 -0.1916 -0.1065
11260TIP3   OH255194   1.259   5.207  14.292  0.4545  0.7512 -0.1064
11260TIP3    H155195   1.167   5.183  14.302  0.6178  0.1569 -0.0246
11260TIP3    H255196   1.302   5.126  14.263  0.8919  1.1134 -0.4750
11261TIP3   OH255197   2.282   6.529  12.215 -0.2058  0.1550 -0.5254
11261TIP3    H155198   2.324   6.585  12.150 -2.2301  1.9845 -0.2956
11261TIP3    H255199   2.322   6.443  12.202  2.2045  1.3904 -1.5831
11262TIP3   OH255200   5.986   6.706   5.388  0.3417 -0.3597  0.3345
11262TIP3    H155201   5.938   6.693   5.470 -0.2392  0.7066  0.1648
11262TIP3    H255202   6.065   6.753   5.414  0.8776 -1.3155  0.4808
11263TIP3   OH255203   5.951   0.080  13.636 -0.1973  0.6726  0.9459
11263TIP3    H155204   6.005   0.123  13.703 -0.3843  0.5018  1.2081
11263TIP3    H255205   6.005   0.007  13.605 -0.0643  0.8204  0.8251
11264TIP3   OH255206   2.173   5.947   0.824  0.0001 -0.1616 -0.1454
11264TIP3    H155207   2.241   5.880   0.815  0.2430  0.2750 -1.6899
11264TIP3    H255208   2.217   6.029   0.801 -0.9520  0.1784 -0.7837
11265TIP3   OH255209   0.409   4.190   5.694 -0.1022  0.2850 -0.0632
11265TIP3    H155210   0.438   4.151   5.775  0.1016  0.4694 -0.0475
11265TIP3    H255211   0.454   4.274   5.689 -1.0232  0.8079  0.2219
11266TIP3   OH255212   0.288   4.423   5.377 -0.1038 -0.2567 -0.0603
11266TIP3    H155213   0.261   4.495   5.320  1.5127  0.3972 -0.0197
11266TIP3    H255214   0.308   4.464   5.461 -1.2741 -1.0582  0.6381
11267TIP3   OH255215   3.968   6.494  14.780  0.6929 -0.5335  0.2991
11267TIP3    H155216   3.894   6.454  14.826 -0.1991  2.9518  2.0985
11267TIP3    H255217   4.044   6.474  14.835  0.5437 -1.0786  0.3158
11268TIP3   OH255218   3.405   6.086   3.385  0.1880  0.0003  0.4666
11268TIP3    H155219   3.361   6.002   3.403  2.1989 -1.4232 -1.0060
11268TIP3    H255220   3.333   6.149   3.377 -1.5331 -2.0146 -0.5594
11269TIP3   OH255221   0.136   4.518  13.795 -0.6643 -0.1833  0.2150
11269TIP3    H155222   0.119   4.542  13.703  1.5675 -1.0817 -0.4894
11269TIP3    H255223   0.077   4.446  13.813 -1.7880  0.6205 -0.2087
11270TIP3   OH255224   0.131   2.736   1.783  0.0912 -0.0824 -0.0746
11270TIP3    H155225   0.044   2.723   1.821  0.1461  0.3501  0.1952
11270TIP3    H255226   0.164   2.816   1.824  1.2451 -1.0833  0.9705
11271TIP3   OH255227   6.306   1.556   2.948 -0.3634  0.1301  0.6180
11271TIP3    H155228   6.343   1.481   2.994  0.6674  1.7832  2.5985
11271TIP3    H255229   6.237   1.588   3.006 -0.3662  1.0886  0.0978
11272TIP3   OH255230   5.397   0.075  16.209 -0.1837 -0.1033  0.5429
11272TIP3    H155231   5.387   0.019  16.132 -1.2216 -0.6245  1.0552
11272TIP3    H255232   5.452   0.148  16.178  1.3424 -1.4860 -0.0647
11273TIP3   OH255233   1.726   0.936   6.287  0.1948  0.7502 -0.1674
11273TIP3    H155234   1.671   0.900   6.356  1.4588  1.7779  1.4217
11273TIP3    H255235   1.679   1.015   6.257 -0.4525  0.1903 -0.6410
11274TIP3   OH255236   4.925   0.981   3.659  0.3873 -0.4975  0.2365
11274TIP3    H155237   4.974   1.054   3.698  1.1747 -1.3856  0.9147
11274TIP3    H255238   4.991   0.916   3.638 -0.3240 -1.0495 -0.3277
11275TIP3   OH255239   4.235   1.308   4.425 -0.2777 -0.3911  0.4576
11275TIP3    H155240   4.226   1.214   4.441 -2.3432 -0.1079  0.9869
11275TIP3    H255241   4.200   1.320   4.337  1.6317 -0.3633 -0.3293
11276TIP3   OH255242   2.268   1.727  11.103  0.4207  0.3275  0.2480
11276TIP3    H155243   2.335   1.792  11.086  0.6060  0.0011 -0.3043
11276TIP3    H255244   2.240   1.699  11.016 -0.1940  0.2220  0.4753
11277TIP3   OH255245   2.324   3.963  11.878 -0.7666  0.2387 -0.0595
11277TIP3    H155246   2.328   3.868  11.874 -1.0181  0.2641 -1.0265
11277TIP3    H255247   2.414   3.992  11.863 -0.9948  0.1997 -1.6164
11278TIP3   OH255248   4.098   4.670   5.668  0.2417 -0.0689  0.3374
11278TIP3    H155249   4.059   4.703   5.587 -1.1790 -1.0559  0.6024
11278TIP3    H255250   4.035   4.694   5.736 -0.7802 -3.1585  0.5480
11279TIP3   OH255251   1.621   2.807  15.723 -0.1407  0.1666 -0.4105
11279TIP3    H155252   1.645   2.764  15.642  0.6065  0.3911 -0.3127
11279TIP3    H255253   1.538   2.850  15.704 -0.5354 -0.7242 -0.7121
11280TIP3   OH255254   0.435   0.662   0.019 -0.2413  0.0894 -0.0873
11280TIP3    H155255   0.429   0.737   0.078 -1.5501 -0.1387  0.0698
11280TIP3    H255256   0.525   0.630   0.031  0.1062  1.2092  0.3465
11281TIP3   OH255257   1.150   1.168  15.997 -0.1393 -0.4399  0.3734
11281TIP3    H155258   1.217   1.112  15.958  1.2412  0.1503  1.8392
11281TIP3    H255259   1.187   1.194  16.082 -1.1143  1.9667  0.0941
11282TIP3   OH255260   3.291   3.358   6.511 -0.1350  0.0764  0.3485
11282TIP3    H155261   3.198   3.336   6.504  0.2110 -1.5914  0.8942
11282TIP3    H255262   3.304   3.428   6.447 -1.9131  0.7913  0.7585
11283TIP3   OH255263   4.313   3.544  11.877  0.2640  0.4961  0.1412
11283TIP3    H155264   4.223   3.561  11.849  0.2316  2.4211  1.3335
11283TIP3    H255265   4.367   3.593  11.816  0.4613  0.1714  0.0537
11284TIP3   OH255266   0.457   1.725  11.796  0.1403  0.2647  0.8347
11284TIP3    H155267   0.403   1.730  11.717  1.7596  0.1007 -0.3168
11284TIP3    H255268   0.436   1.639  11.834 -0.9201  0.4991  0.7994
11285TIP3   OH255269   1.797   4.663  13.781  0.0521 -0.3674  0.4428
11285TIP3    H155270   1.878   4.696  13.742  0.0271  0.8011  1.3279
11285TIP3    H255271   1.815   4.662  13.875 -1.3956  1.2105  0.7693
11286TIP3   OH255272   2.531   5.697   5.936  0.2495 -0.1651  0.1187
11286TIP3    H155273   2.469   5.703   5.863 -1.6720  1.9565  1.8270
11286TIP3    H255274   2.488   5.638   5.999  0.9352 -0.3540  0.4167
11287TIP3   OH255275   2.780   6.216   6.520  0.3037  0.3176 -0.1368
11287TIP3    H155276   2.740   6.135   6.487  1.1349 -1.5905  3.2737
11287TIP3    H255277   2.707   6.277   6.530 -0.9541 -1.2944  0.7609
11288TIP3   OH255278   3.867   3.138  16.316 -0.0656 -0.1932 -0.2213
11288TIP3    H155279   3.914   3.076  16.260  0.2976 -0.8168  0.7690
11288TIP3    H255280   3.792   3.089  16.347  0.0954 -0.0603  0.3747
11289TIP3   OH255281   3.061   0.286  11.767  0.0806  0.6681 -0.2003
11289TIP3    H155282   2.987   0.227  11.751 -0.1773  0.5970  1.1406
11289TIP3    H255283   3.122   0.233  11.819 -0.2168  1.6148  1.1469
11290TIP3   OH255284   0.750   2.384  10.579  0.5093  0.1034 -0.0298
11290TIP3    H155285   0.793   2.430  10.650 -2.5778 -0.8084  2.5452
11290TIP3    H255286   0.819   2.328  10.542  2.5435  1.7262  1.1689
11291TIP3   OH255287   1.554   2.623  16.296  0.0093  0.4034  0.0562
11291TIP3    H155288   1.529   2.691  16.359 -0.7081  0.5366 -0.3670
11291TIP3    H255289   1.649   2.618  16.303  0.1046  1.6900 -0.1572
11292TIP3   OH255290   0.147   6.092  17.055 -0.0386  0.1619  0.7719
11292TIP3    H155291   0.098   6.065  17.132  0.7011 -0.5041  1.0114
11292TIP3    H255292   0.184   6.011  17.020  1.9649  0.8084  1.3413
11293TIP3   OH255293   6.130   3.834  12.418 -0.3898 -0.0390 -0.1292
11293TIP3    H155294   6.225   3.840  12.410 -0.3097 -0.1795  0.6982
11293TIP3    H255295   6.109   3.744  12.393 -0.4168  0.2968 -1.3405
11294TIP3   OH255296   6.439   5.988   1.688 -0.2388  0.5506 -0.3521
11294TIP3    H155297   6.524   6.030   1.697  0.1375  0.0839 -1.5742
11294TIP3    H255298   6.376   6.057   1.710  0.4163  1.3010 -0.7723
11295TIP3   OH255299   0.434   3.717   5.954  0.2736 -0.2040 -0.0377
11295TIP3    H155300   0.509   3.769   5.982  0.2698 -0.2767  0.1075
11295TIP3    H255301   0.399   3.680   6.035  1.3208 -1.8685 -0.3195
11296TIP3   OH255302   4.679   3.085  14.715 -0.2800 -0.0609  0.0620
11296TIP3    H155303   4.629   3.024  14.660 -0.6961 -1.3082  1.7790
11296TIP3    H255304   4.617   3.153  14.738 -0.1914  0.3002 -0.7544
11297TIP3   OH255305   0.352   1.609  14.075  0.3420 -0.9057 -0.0884
11297TIP3    H155306   0.375   1.701  14.063 -1.4957 -0.1869  1.7383
11297TIP3    H255307   0.280   1.593  14.015  1.4369 -1.5119 -1.2813
11298TIP3   OH255308   0.004   1.702  11.927 -0.3122  0.1321  0.4342
11298TIP3    H155309   0.074   1.764  11.949 -1.3755  0.2240  3.7377
11298TIP3    H255310   0.049   1.632  11.880  1.7216  0.9624  1.0762
11299TIP3   OH255311   4.865   1.077  12.814 -0.4114  0.1373  0.1010
11299TIP3    H155312   4.863   1.129  12.894 -1.0384  2.1002 -1.1504
11299TIP3    H255313   4.805   1.004  12.831  1.1337 -0.6906  2.1902
11300TIP3   OH255314   4.764   3.558  12.297 -0.2423 -0.3326  0.3188
11300TIP3    H155315   4.831   3.561  12.365 -0.5886 -0.6198  0.6741
11300TIP3    H255316   4.758   3.648  12.265 -1.0775  0.0970  1.6419
11301TIP3   OH255317   4.944   2.554  15.667  0.0659  0.2576 -1.1342
11301TIP3    H155318   4.890   2.604  15.729 -0.2231 -1.3611 -0.0600
11301TIP3    H255319   4.881   2.501  15.618  0.6361 -1.3640 -0.1297
11302TIP3   OH255320   2.122   5.524   3.631  0.7514  0.2976  0.0832
11302TIP3    H155321   2.042   5.537   3.682  2.3443 -0.7389  2.9641
11302TIP3    H255322   2.171   5.606   3.641 -0.0505  1.0619 -1.9553
11303TIP3   OH255323   3.460   0.827   5.460  0.0212 -0.0333  0.2231
11303TIP3    H155324   3.499   0.908   5.427  0.7603 -0.4062  0.1670
11303TIP3    H255325   3.410   0.793   5.386 -0.3246  0.3802  0.2578
11304TIP3   OH255326   4.037   3.423  15.068 -0.1576  0.3580  0.3694
11304TIP3    H155327   4.079   3.507  15.088  0.6729 -0.4515  2.1164
11304TIP3    H255328   4.042   3.374  15.150 -4.2204  0.0780  0.5120
11305TIP3   OH255329   2.351   2.170   6.079  0.1959  0.2673 -0.2531
11305TIP3    H155330   2.368   2.264   6.091  2.5722 -0.1222 -0.3417
11305TIP3    H255331   2.347   2.134   6.167 -0.8472  0.4636 -0.2157
11306TIP3   OH255332   2.209   6.129  16.821 -0.4324  0.1432 -0.1038
11306TIP3    H155333   2.209   6.055  16.881 -1.1886  0.1840 -0.0494
11306TIP3    H255334   2.221   6.206  16.877  0.4301  0.0635 -0.1664
11307TIP3   OH255335   0.396   6.440  10.595  0.1812 -0.0244 -0.2602
11307TIP3    H155336   0.489   6.457  10.611  0.3337  0.2106 -1.3311
11307TIP3    H255337   0.358   6.527  10.583  0.5279 -0.2555 -3.4554
11308TIP3   OH255338   3.895   5.518   3.603 -0.2113  0.1427 -0.0445
11308TIP3    H155339   3.895   5.501   3.509 -0.5789 -0.9414  0.1476
11308TIP3    H255340   3.804   5.505   3.629  0.3812 -2.2374  0.9363
11309TIP3   OH255341   6.669   4.793  16.725  0.0453  0.5222  0.5223
11309TIP3    H155342   6.597   4.809  16.786 -1.4435  1.5958 -1.4376
11309TIP3    H255343   6.726   4.870  16.733 -0.2823  0.7793  0.3880
11310TIP3   OH255344   4.194   1.749   3.185  0.8121 -0.2414 -0.3246
11310TIP3    H155345   4.122   1.686   3.190  1.0524 -0.9199 -3.9718
11310TIP3    H255346   4.271   1.695   3.168  1.6193  0.7887  0.0464
11311TIP3   OH255347   3.985   4.943   3.248 -0.3975  0.1347 -0.0637
11311TIP3    H155348   4.064   4.934   3.301 -0.0443 -0.6572 -0.7194
11311TIP3    H255349   3.914   4.920   3.307 -0.2619  2.1873  0.9256
11312TIP3   OH255350   3.211   1.464  13.487  0.0091 -0.2039  0.6163
11312TIP3    H155351   3.142   1.504  13.432 -0.8837 -0.6175  1.4183
11312TIP3    H255352   3.212   1.372  13.461  0.0531 -0.2575  0.8068
11313TIP3   OH255353   0.484   0.699  14.039  0.3617  0.3785 -0.5618
11313TIP3    H155354   0.450   0.614  14.064 -0.2642  0.4322 -1.2124
11313TIP3    H255355   0.555   0.716  14.102 -0.8181  0.2801  0.8194
11314TIP3   OH255356   3.771   1.591   0.542  0.1000  0.0087  0.3494
11314TIP3    H155357   3.830   1.523   0.507  1.2525 -0.5845  3.2997
11314TIP3    H255358   3.820   1.672   0.530  0.3058 -0.1395  0.1632
11315TIP3   OH255359   5.785   0.483  11.352  0.4270  0.1204 -0.2275
11315TIP3    H155360   5.783   0.567  11.306  0.6486 -0.0026 -0.4620
11315TIP3    H255361   5.772   0.418  11.283  0.8754 -0.0707 -0.1274
11316TIP3   OH255362   2.476   6.133   1.925  0.4636 -0.4177 -0.2019
11316TIP3    H155363   2.537   6.067   1.957  1.1922 -0.0215 -0.7698
11316TIP3    H255364   2.390   6.092   1.934  0.5621 -0.0432  2.9262
11317TIP3   OH255365   0.760   5.930  16.781 -0.1066 -0.2134  0.2829
11317TIP3    H155366   0.673   5.950  16.815 -0.3051 -0.0587 -0.3003
11317TIP3    H255367   0.774   5.838  16.803 -1.1442 -0.7269 -1.1315
11318TIP3   OH255368   0.305   4.556  14.926  0.0905 -0.7426 -0.2891
11318TIP3    H155369   0.227   4.604  14.899 -0.2389  0.0049  1.9169
11318TIP3    H255370   0.273   4.489  14.987  1.0477 -1.1415 -0.2067
11319TIP3   OH255371   4.278   0.037  17.215 -0.2818 -0.3832 -0.4237
11319TIP3    H155372   4.262   0.054  17.122 -0.3820  0.7483 -0.2041
11319TIP3    H255373   4.193   0.051  17.257 -0.2817 -1.0710 -0.1768
11320TIP3   OH255374   5.656   5.934  12.144  0.5493 -0.3760  0.6478
11320TIP3    H155375   5.696   5.863  12.194  2.5327 -0.4161 -0.9339
11320TIP3    H255376   5.730   5.985  12.111 -0.7899  1.3488  0.1899
11321TIP3   OH255377   6.425   3.437   5.437 -0.3544  0.0327 -0.4161
11321TIP3    H155378   6.390   3.450   5.348 -1.5693 -1.3514 -0.1738
11321TIP3    H255379   6.418   3.523   5.479 -2.0760  0.1424 -0.8823
11322TIP3   OH255380   5.199   5.892  16.644  0.4931  0.0220 -0.1885
11322TIP3    H155381   5.280   5.923  16.603  0.7271 -0.1874  0.1076
11322TIP3    H255382   5.159   5.835  16.579  0.0461  0.9610 -0.7461
11323TIP3   OH255383   3.596   3.086   4.967  0.4761 -0.0364 -0.2772
11323TIP3    H155384   3.504   3.060   4.955  0.8978 -1.1627 -1.1568
11323TIP3    H255385   3.596   3.181   4.958 -0.8918  0.1793  1.5844
11324TIP3   OH255386   4.673   5.418  12.018  0.2390 -0.1298  0.1161
11324TIP3    H155387   4.659   5.508  11.988  1.1619  0.6125  1.8167
11324TIP3    H255388   4.719   5.375  11.946  0.3279  0.9265 -0.4699
11325TIP3   OH255389   5.685   4.828  15.051  0.4778 -0.0410  0.2438
11325TIP3    H155390   5.655   4.915  15.078  0.4248 -0.8578  2.9842
11325TIP3    H255391   5.746   4.802  15.120  1.5539 -1.6190 -1.2719
11326TIP3   OH255392   5.961   4.530   4.360 -0.5013 -0.4497  0.2850
11326TIP3    H155393   5.972   4.533   4.455  0.6308  0.8845  0.1259
11326TIP3    H255394   6.039   4.573   4.326 -1.3901 -0.0155 -1.2212
11327TIP3   OH255395   2.278   3.095   2.452  0.2850  0.2222  0.3146
11327TIP3    H155396   2.251   3.012   2.493  1.7370  0.8425  2.6365
11327TIP3    H255397   2.302   3.151   2.526  1.4490  1.9587 -1.3434
11328TIP3   OH255398   5.400   4.513   2.364  0.2198  0.1221  0.1332
11328TIP3    H155399   5.419   4.589   2.418 -0.6893 -0.3470  1.1514
11328TIP3    H255400   5.383   4.443   2.427 -0.8720 -0.4346 -0.7594
11329TIP3   OH255401   3.686   0.424  14.755 -0.4735 -0.1285 -0.2759
11329TIP3    H155402   3.739   0.485  14.805 -0.6649 -0.3787  0.2267
11329TIP3    H255403   3.595   0.449  14.773 -0.5358  0.7589 -1.7000
11330TIP3   OH255404   1.932   0.225  14.408 -0.0760  0.5621  0.2054
11330TIP3    H155405   1.871   0.274  14.353  0.2378 -0.1150 -0.7599
11330TIP3    H255406   1.901   0.239  14.497 -2.4645 -0.8688 -0.3532
11331TIP3   OH255407   0.458   1.201  15.547 -0.4103 -0.5447 -0.5327
11331TIP3    H155408   0.543   1.165  15.571 -0.1121 -0.8151 -1.9748
11331TIP3    H255409   0.476   1.261  15.475 -1.0993  1.4298  0.8825
11332TIP3   OH255410   0.821   1.011  13.276  0.0247  0.0931 -0.0878
11332TIP3    H155411   0.852   0.953  13.207  1.3079  1.0231 -0.3106
11332TIP3    H255412   0.862   1.095  13.257 -0.1787  0.5405  1.3988
11333TIP3   OH255413   3.543   1.756   1.476 -0.0243  0.7367  0.0149
11333TIP3    H155414   3.476   1.691   1.498 -0.2706  0.9080 -0.2251
11333TIP3    H255415   3.493   1.833   1.448  0.2830  0.7338 -0.5398
11334TIP3   OH255416   3.334   6.293   3.150  0.6210  0.1476  0.2334
11334TIP3    H155417   3.307   6.207   3.181  1.0713  0.8250  2.5567
11334TIP3    H255418   3.419   6.309   3.191  1.9220  0.4971 -2.4604
11335TIP3   OH255419   3.729   0.184   2.351 -0.1469 -0.1565  0.1642
11335TIP3    H155420   3.747   0.097   2.315 -0.0433 -0.5261  1.0857
11335TIP3    H255421   3.650   0.173   2.403  0.2764  0.1289  0.8760
11336TIP3   OH255422   5.273   2.412  15.564  0.2706 -0.0491  0.4041
11336TIP3    H155423   5.195   2.361  15.584 -0.2032  0.5511  0.1233
11336TIP3    H255424   5.257   2.497  15.606  0.7949  0.0637  0.3806
11337TIP3   OH255425   4.513   0.439   2.129  0.1749 -0.1911  0.1478
11337TIP3    H155426   4.501   0.464   2.037  0.1879  0.7339  0.3894
11337TIP3    H255427   4.535   0.521   2.173  1.7037 -0.8943  0.7075
11338TIP3   OH255428   3.118   4.963  13.847 -0.4493 -0.4565 -0.5915
11338TIP3    H155429   3.161   4.981  13.931 -0.3216 -0.0597 -0.7413
11338TIP3    H255430   3.069   4.882  13.863  2.0118 -2.0883 -1.0329
11339TIP3   OH255431   0.224   3.452   2.909 -0.2623 -0.0876 -0.0811
11339TIP3    H155432   0.244   3.385   2.974 -1.2404  0.4202  0.7521
11339TIP3    H255433   0.237   3.408   2.825 -0.8923 -1.3284  0.4603
11340TIP3   OH255434   5.328   2.651   3.299  0.2319 -0.3299 -0.0638
11340TIP3    H155435   5.363   2.705   3.370  0.4087 -1.2481  0.5579
11340TIP3    H255436   5.405   2.621   3.252  0.1170  0.2381 -0.6276
11341TIP3   OH255437   1.545   6.072  15.780  0.0547 -0.9663  0.0258
11341TIP3    H155438   1.505   5.987  15.799  1.8776 -2.3034 -1.8051
11341TIP3    H255439   1.638   6.059  15.798  0.2099  1.0129  0.8064
11342TIP3   OH255440   3.817   1.010  14.128 -0.1613 -0.2836  0.3441
11342TIP3    H155441   3.779   0.970  14.206 -1.0124  0.6250  0.4145
11342TIP3    H255442   3.851   1.094  14.158  2.6205 -1.3889  0.4375
11343TIP3   OH255443   1.462   0.550   6.323  0.4993  0.1825  0.6396
11343TIP3    H155444   1.394   0.501   6.369 -0.0780  0.0763 -0.2959
11343TIP3    H255445   1.543   0.504   6.343 -0.1014 -1.4921 -0.6494
11344TIP3   OH255446   2.013   1.821  13.242 -0.2801 -0.0664 -0.0610
11344TIP3    H155447   1.949   1.881  13.204 -0.3360  0.1474  0.3668
11344TIP3    H255448   1.966   1.737  13.247  0.3497 -0.5757 -2.2271
11345TIP3   OH255449   0.027   3.424  13.722  0.2722  0.0322  0.0584
11345TIP3    H155450   0.062   3.440  13.810 -0.9178 -0.5950  0.6592
11345TIP3    H255451   0.065   3.340  13.696 -0.9982 -0.8026  0.8389
11346TIP3   OH255452   0.699   3.449  15.068 -0.2975  0.3851 -0.1703
11346TIP3    H155453   0.792   3.469  15.061 -0.2957 -0.3914 -3.7001
11346TIP3    H255454   0.694   3.354  15.068 -1.1316  0.4082 -1.5381
11347TIP3   OH255455   5.578   5.038   1.867 -0.1615  0.0958 -0.2898
11347TIP3    H155456   5.542   5.114   1.913 -0.0206  0.2454 -0.4279
11347TIP3    H255457   5.510   4.971   1.874 -0.3796  0.3109 -0.3718
11348TIP3   OH255458   3.629   2.972  11.470 -0.3228 -1.1493 -0.5774
11348TIP3    H155459   3.631   3.068  11.466  0.9607 -1.1673 -0.7492
11348TIP3    H255460   3.645   2.952  11.562  0.2944 -1.2000 -0.6894
11349TIP3   OH255461   3.253   4.442  15.923 -0.4599  0.1700 -0.4226
11349TIP3    H155462   3.243   4.508  15.854 -0.1231  1.0989  0.4065
11349TIP3    H255463   3.163   4.419  15.947 -0.5752 -0.4010 -1.3974
11350TIP3   OH255464   3.672   0.244  11.270  0.3546 -0.2302  0.4695
11350TIP3    H155465   3.703   0.306  11.337 -1.3520 -0.1879  1.2416
11350TIP3    H255466   3.699   0.284  11.187  1.9170  0.0427  1.0941
11351TIP3   OH255467   0.766   2.335  11.435 -0.1233 -0.0807 -0.4777
11351TIP3    H155468   0.687   2.283  11.425 -0.0658  0.0226 -1.5206
11351TIP3    H255469   0.807   2.301  11.515 -1.0640 -0.3221 -0.0915
11352TIP3   OH255470   1.158   0.417  15.390 -0.3025  0.1110 -0.2853
11352TIP3    H155471   1.228   0.412  15.456 -0.2080 -2.2657 -0.5220
11352TIP3    H255472   1.204   0.427  15.307 -0.3536  1.0982 -0.2020
11353TIP3   OH255473   6.027   1.514  12.320  0.1504 -0.0765  0.3709
11353TIP3    H155474   5.948   1.461  12.332  0.6255 -0.6708  0.9181
11353TIP3    H255475   6.092   1.453  12.285  0.0053  0.6990 -1.3194
11354TIP3   OH255476   5.578   0.628   3.888 -1.2972  0.2389 -0.6767
11354TIP3    H155477   5.482   0.629   3.897 -1.2673  1.2432 -0.4519
11354TIP3    H255478   5.607   0.569   3.958 -1.8678 -1.6849 -2.0127
11355TIP3   OH255479   4.185   4.891   3.454 -0.1597  0.4855  0.1797
11355TIP3    H155480   4.148   4.809   3.487  0.5942  0.4982  1.1038
11355TIP3    H255481   4.197   4.945   3.533 -0.8708  1.5720 -0.4479
11356TIP3   OH255482   5.244   6.532   1.003 -0.0710  0.5273 -0.3209
11356TIP3    H155483   5.281   6.593   0.939 -2.0484  1.1698 -0.8984
11356TIP3    H255484   5.271   6.566   1.088  0.8441  0.8269 -0.7243
11357TIP3   OH255485   3.577   1.058  16.472 -0.2144 -0.2237  0.0431
11357TIP3    H155486   3.522   1.080  16.548 -0.3824 -1.8842  0.4432
11357TIP3    H255487   3.666   1.076  16.501 -0.2508 -1.1631  0.7745
11358TIP3   OH255488   2.455   6.743  16.927 -0.3921 -0.5604  0.2491
11358TIP3    H155489   2.520   6.797  16.972 -1.6793  0.7941  0.5307
11358TIP3    H255490   2.461   6.769  16.835 -0.2985 -0.6627  0.2267
11359TIP3   OH255491   6.083   6.329  15.170  0.1662  0.3810 -0.3043
11359TIP3    H155492   6.054   6.312  15.081  0.0039 -1.4262  0.0678
11359TIP3    H255493   6.160   6.384  15.161  1.4917 -1.6488 -1.6615
11360TIP3   OH255494   5.096   3.412  14.769  0.3242 -0.2353 -0.3708
11360TIP3    H155495   5.178   3.458  14.787 -0.1242 -0.2472  1.8977
11360TIP3    H255496   5.029   3.479  14.782 -0.4472 -1.7643  4.4768
11361TIP3   OH255497   3.607   0.716   1.205  0.3471  0.8652  0.0900
11361TIP3    H155498   3.531   0.726   1.262  0.3697  1.4508  0.0256
11361TIP3    H255499   3.575   0.741   1.118  0.7809  1.7904  0.1843
11362TIP3   OH255500   5.851   2.529   3.047  0.1294  0.0618 -0.3664
11362TIP3    H155501   5.887   2.604   3.001 -0.4892 -0.7646 -2.2260
11362TIP3    H255502   5.763   2.556   3.073 -0.6524 -0.5004 -2.3280
11363TIP3   OH255503   5.444   0.618   3.061 -0.0355  0.3430 -0.1863
11363TIP3    H155504   5.451   0.644   2.969 -0.9900 -1.5762 -0.8208
11363TIP3    H255505   5.350   0.608   3.076  0.1405  0.2628  0.8896
11364TIP3   OH255506   4.699   0.661   5.556 -0.1816  0.1944  0.2481
11364TIP3    H155507   4.682   0.650   5.463 -1.2617  1.0007  0.3437
11364TIP3    H255508   4.682   0.574   5.594  0.9885 -0.3190 -0.4082
11365TIP3   OH255509   3.033   4.244  12.331 -0.1631  0.3456  0.0901
11365TIP3    H155510   2.986   4.294  12.264 -0.9773  3.3777  2.8027
11365TIP3    H255511   3.013   4.152  12.312 -1.7652  1.2413 -2.7461
11366TIP3   OH255512   3.273   3.307   5.005 -0.2955  0.1503 -0.6506
11366TIP3    H155513   3.182   3.278   4.997  0.4394 -2.3136 -0.6172
11366TIP3    H255514   3.298   3.336   4.918 -0.9551  0.3273 -0.7780
11367TIP3   OH255515   5.045   6.027  12.097 -0.3475  0.0480  0.4888
11367TIP3    H155516   5.082   6.104  12.141 -0.4395 -0.1187  0.8569
11367TIP3    H255517   4.963   6.059  12.058  0.2337  0.4385 -0.4082
11368TIP3   OH255518   0.361   0.421  14.028 -0.3369 -0.1306  0.5439
11368TIP3    H155519   0.308   0.371  13.967  1.7062 -0.8137 -0.7300
11368TIP3    H255520   0.393   0.356  14.092  1.1179 -0.2298 -0.2589
11369TIP3   OH255521   2.446   6.563   1.433  0.1874 -0.2564 -0.0481
11369TIP3    H155522   2.430   6.475   1.398  1.1339  0.4242 -2.2850
11369TIP3    H255523   2.363   6.608   1.424  0.5777  0.0997 -2.0534
11370TIP3   OH255524   3.228   3.026   1.386  0.1830 -0.0976  0.3912
11370TIP3    H155525   3.267   2.998   1.304 -0.5505 -1.0676  0.3665
11370TIP3    H255526   3.137   2.996   1.381 -0.7285  2.5237  0.2403
11371TIP3   OH255527   5.632   1.787   1.556 -0.3630  0.7776 -0.3836
11371TIP3    H155528   5.600   1.874   1.579 -0.0449  0.5128  1.1355
11371TIP3    H255529   5.554   1.732   1.557 -0.2547  0.6303  0.8098
11372TIP3   OH255530   4.580   2.962   5.302 -0.9126 -0.6076 -0.3124
11372TIP3    H155531   4.605   2.950   5.210 -1.5889 -0.9704 -0.4480
11372TIP3    H255532   4.493   2.924   5.308  0.1973 -3.0694  1.0931
11373TIP3   OH255533   0.654   6.250   5.107  0.0378 -0.0818  0.6092
11373TIP3    H155534   0.660   6.251   5.011 -0.3481  2.6720  0.5691
11373TIP3    H255535   0.582   6.190   5.126 -1.4692  1.1454 -0.9707
11374TIP3   OH255536   3.844   5.367   0.543  0.5436 -0.5400 -0.4461
11374TIP3    H155537   3.939   5.368   0.530  0.3040 -0.5973 -2.3268
11374TIP3    H255538   3.819   5.274   0.536  0.4821 -0.6737  1.2410
11375TIP3   OH255539   1.304   5.968  11.367  0.8924  0.0285 -0.5188
11375TIP3    H155540   1.240   5.966  11.439  1.6125  1.5013  0.1838
11375TIP3    H255541   1.382   5.925  11.404  0.8401 -0.3638 -0.8587
11376TIP3   OH255542   5.079   2.678   2.953 -0.1194  0.0098 -0.4596
11376TIP3    H155543   5.051   2.676   2.861  0.2847 -1.2441 -0.5731
11376TIP3    H255544   5.093   2.586   2.975  1.2121  0.4177  0.4242
11377TIP3   OH255545   4.266   0.389   5.993 -0.3468 -0.2597 -0.0391
11377TIP3    H155546   4.279   0.361   5.902 -1.2155 -0.2219 -0.1789
11377TIP3    H255547   4.220   0.473   5.987  2.0029  1.1182  0.3893
11378TIP3   OH255548   4.452   2.072  13.955  0.1361 -0.0982  0.0551
11378TIP3    H155549   4.434   2.107  13.868  0.0631  0.2466  0.2084
11378TIP3    H255550   4.524   2.011  13.942  0.3149  0.1665 -0.1994
11379TIP3   OH255551   3.484   1.288   5.578  0.5040  0.0809  0.8374
11379TIP3    H155552   3.419   1.219   5.594 -0.2512  0.5879  0.0163
11379TIP3    H255553   3.502   1.283   5.484  1.7987 -0.1668  1.0893
11380TIP3   OH255554   6.487   4.642  11.222  0.4250 -0.1953 -0.2618
11380TIP3    H155555   6.469   4.563  11.171  1.8125 -0.3131 -0.5992
11380TIP3    H255556   6.534   4.699  11.162  2.0505 -0.3150  0.8471
11381TIP3   OH255557   6.494   6.690  14.365 -0.3981 -0.5650 -0.0933
11381TIP3    H155558   6.528   6.601  14.354  1.4342  0.3485 -2.4986
11381TIP3    H255559   6.409   6.689  14.321  1.2159 -0.2605 -3.3652
11382TIP3   OH255560   1.201   4.963  14.695 -0.2656 -0.3051 -0.1548
11382TIP3    H155561   1.190   4.880  14.741 -1.0908 -0.2201 -0.2018
11382TIP3    H255562   1.261   4.943  14.624  0.6775 -0.5377  0.6885
11383TIP3   OH255563   2.249   5.023  14.770 -0.1937 -0.2761 -0.2670
11383TIP3    H155564   2.162   5.029  14.809  0.4599 -0.7232  1.3493
11383TIP3    H255565   2.284   5.112  14.776  0.4277 -0.6115  1.5129
11384TIP3   OH255566   5.422   6.599   3.456 -0.2526 -0.0711 -0.3003
11384TIP3    H155567   5.470   6.669   3.413 -1.1700  0.9003  0.2500
11384TIP3    H255568   5.335   6.601   3.416 -0.4111 -0.6425  0.0045
11385TIP3   OH255569   1.231   1.036  12.923  0.0833 -0.4628  0.2833
11385TIP3    H155570   1.208   0.981  12.848  1.5200  1.7320 -1.8545
11385TIP3    H255571   1.186   1.119  12.906 -0.8651 -0.4568  2.6965
11386TIP3   OH255572   5.591   0.760  13.819  0.2520 -0.9618  0.9860
11386TIP3    H155573   5.524   0.817  13.857  0.5614  0.4520 -0.5074
11386TIP3    H255574   5.548   0.676  13.807 -0.9758 -0.3316  0.9146
11387TIP3   OH255575   2.342   4.332  16.518  0.4108 -0.2247  0.2329
11387TIP3    H155576   2.377   4.421  16.512  0.9317 -0.4230  0.2785
11387TIP3    H255577   2.409   4.277  16.477  1.3565 -0.9218  2.6032
11388TIP3   OH255578   5.291   6.504   5.718 -0.3320 -0.4615 -0.8144
11388TIP3    H155579   5.363   6.550   5.676  0.9632 -1.5151  0.1831
11388TIP3    H255580   5.313   6.411   5.707 -0.8550 -0.7677  0.6635
11389TIP3   OH255581   4.642   0.028  12.586  0.1889  0.1857 -0.0954
11389TIP3    H155582   4.653   0.102  12.526 -1.0078 -0.1000 -0.6701
11389TIP3    H255583   4.548   0.028  12.607 -0.0617 -1.9916 -1.1499
11390TIP3   OH255584   4.085   1.749   1.081 -0.8621 -0.3418  0.6614
11390TIP3    H155585   4.161   1.736   1.138 -1.0899  0.3286  1.1165
11390TIP3    H255586   4.077   1.666   1.034  0.8442 -0.0402 -0.2172
11391TIP3   OH255587   0.309   2.762  12.253  0.5858  0.0440 -0.3126
11391TIP3    H155588   0.214   2.762  12.238  0.6652  1.3954 -0.8955
11391TIP3    H255589   0.329   2.673  12.283 -1.0404  0.0596  0.8706
11392TIP3   OH255590   5.389   5.581  13.135  0.5666 -0.9591 -0.1954
11392TIP3    H155591   5.444   5.660  13.140  0.9056 -1.1925 -0.1771
11392TIP3    H255592   5.313   5.601  13.188  0.5686 -0.5753 -0.3326
11393TIP3   OH255593   0.562   0.353  12.233  0.1579  0.8454 -0.1410
11393TIP3    H155594   0.538   0.328  12.143 -0.2583  1.4884 -0.2143
11393TIP3    H255595   0.490   0.320  12.287  0.2503  0.7399 -0.0820
11394TIP3   OH255596   1.137   3.734  11.782  0.8162  0.0352  0.6018
11394TIP3    H155597   1.130   3.677  11.705  1.4385  1.6417 -0.6495
11394TIP3    H255598   1.055   3.720  11.829 -0.0336 -0.1634 -0.9037
11395TIP3   OH255599   5.153   3.692  12.491 -0.1001  0.0245 -0.2987
11395TIP3    H155600   5.158   3.598  12.477 -1.3265 -0.0954 -0.0317
11395TIP3    H255601   5.240   3.717  12.522 -0.1889 -1.2855  1.1004
11396TIP3   OH255602   1.227   6.349  14.195  0.6267  0.2361  0.3300
11396TIP3    H155603   1.311   6.396  14.195  1.6354 -1.4768 -1.2561
11396TIP3    H255604   1.244   6.271  14.247 -0.1942  0.1998  0.5499
11397TIP3   OH255605   4.785   0.129  13.736  0.2879  0.1159 -0.1789
11397TIP3    H155606   4.785   0.140  13.831 -0.2525  0.6464 -0.2409
11397TIP3    H255607   4.786   0.034  13.723  1.6071  0.0415  0.3501
11398TIP3   OH255608   1.889   5.929   3.411  0.0194  0.0008 -0.4255
11398TIP3    H155609   1.956   5.861   3.413  0.5974  0.5852  0.1654
11398TIP3    H255610   1.868   5.939   3.318  2.0388  1.0536 -0.8078
11399TIP3   OH255611   5.316   0.720  11.865  0.2685 -0.0486  0.0665
11399TIP3    H155612   5.339   0.714  11.958  0.3393 -1.4645 -0.0316
11399TIP3    H255613   5.237   0.667  11.857 -0.0022  0.4569 -0.5966
11400TIP3   OH255614   6.638   4.442   3.433  0.5721 -0.1398  0.6309
11400TIP3    H155615   6.548   4.423   3.458  0.2598  0.4337 -0.0625
11400TIP3    H255616   6.685   4.361   3.451 -0.0067 -0.3224  1.3471
11401TIP3   OH255617   4.086   2.770   3.910 -0.2334  0.4304  0.1679
11401TIP3    H155618   4.159   2.708   3.904  1.3020  1.9504  2.4656
11401TIP3    H255619   4.113   2.844   3.857 -0.1529  0.9288  0.8978
11402TIP3   OH255620   5.425   4.271   0.451 -0.2966  0.0324  0.4913
11402TIP3    H155621   5.333   4.268   0.425 -0.0135  0.1803 -0.5368
11402TIP3    H255622   5.471   4.218   0.385  0.2340 -0.8403  1.5438
11403TIP3   OH255623   0.199   2.672   5.602 -0.6721 -0.3568 -0.5655
11403TIP3    H155624   0.193   2.761   5.568 -2.4760 -0.1229  0.2691
11403TIP3    H255625   0.117   2.630   5.575  0.0269 -1.6623 -0.6930
11404TIP3   OH255626   1.228   1.826  11.278 -0.3762 -0.0931  1.2397
11404TIP3    H155627   1.155   1.770  11.252 -0.6946  1.0809 -0.4905
11404TIP3    H255628   1.196   1.873  11.354 -2.5587  2.5752 -1.2235
11405TIP3   OH255629   4.615   2.512   1.465  0.2649  0.4071 -0.1544
11405TIP3    H155630   4.602   2.506   1.370 -0.3139 -0.7371 -0.0095
11405TIP3    H255631   4.528   2.524   1.501  0.3601 -0.2832  0.3136
11406TIP3   OH255632   4.829   5.711  13.453  0.0006  0.4755 -0.5339
11406TIP3    H155633   4.742   5.687  13.418  0.0667  1.3612 -1.3403
11406TIP3    H255634   4.887   5.706  13.377  0.6417 -0.0099 -0.0149
11407TIP3   OH255635   1.889   0.141   1.917  0.0813  0.0368 -0.4285
11407TIP3    H155636   1.933   0.204   1.975 -2.9353  2.4087 -0.5904
11407TIP3    H255637   1.800   0.175   1.909 -1.6966 -4.3632 -0.4587
11408TIP3   OH255638   0.803   0.802   4.521 -0.9477  0.5320 -0.5445
11408TIP3    H155639   0.874   0.741   4.540  0.1677  1.2462 -2.2880
11408TIP3    H255640   0.801   0.808   4.426 -2.4008  1.6335 -0.4600
11409TIP3   OH255641   0.801   4.405  16.551  0.2132  0.0991 -0.2941
11409TIP3    H155642   0.766   4.421  16.464  1.5772 -0.0177 -0.8712
11409TIP3    H255643   0.740   4.449  16.610 -1.1917 -0.5456 -1.2397
11410TIP3   OH255644   5.278   4.515   5.180  0.3313 -0.2499 -0.8233
11410TIP3    H155645   5.219   4.560   5.120 -2.1791  1.9205  3.0520
11410TIP3    H255646   5.243   4.426   5.186 -0.1374 -0.1242 -1.6155
11411TIP3   OH255647   2.553   2.248  13.936  0.1532 -0.2778 -0.5075
11411TIP3    H155648   2.587   2.159  13.928  0.0130 -0.7847  3.4719
11411TIP3    H255649   2.518   2.252  14.026  0.4721  3.8916 -0.4870
11412TIP3   OH255650   2.339   1.986  15.058  0.4396  0.3004  0.3834
11412TIP3    H155651   2.276   2.009  14.990  1.7514  1.9930 -0.2752
11412TIP3    H255652   2.304   1.906  15.096 -0.8026 -0.1602 -1.6473
11413TIP3   OH255653   3.975   1.731  11.607  0.7196  0.2340 -0.8009
11413TIP3    H155654   4.026   1.786  11.667  1.4923 -1.5577  0.2050
11413TIP3    H255655   3.885   1.741  11.638  0.9801  0.1464 -0.0033
11414TIP3   OH255656   3.771   4.948   4.600 -0.3254 -0.0391 -0.2651
11414TIP3    H155657   3.681   4.913   4.604  0.0977 -1.1032  0.1893
11414TIP3    H255658   3.824   4.881   4.643  0.4496  1.3965  1.0263
11415TIP3   OH255659   0.050   0.991   5.715 -0.3057  0.1293  0.1401
11415TIP3    H155660   0.025   0.905   5.747 -1.3073  0.5402  0.4620
11415TIP3    H255661   0.054   1.046   5.793  0.7542  0.2825 -0.0104
11416TIP3   OH255662   3.200   6.714   3.580 -0.4168 -0.0871  0.1997
11416TIP3    H155663   3.173   6.745   3.494  3.8156  1.4182 -0.7528
11416TIP3    H255664   3.204   6.793   3.634 -0.1665 -0.5902  0.9299
11417TIP3   OH255665   3.717   4.434   2.616  0.7859  0.1119  0.2271
11417TIP3    H155666   3.782   4.470   2.557  0.3002  1.8000  0.6958
11417TIP3    H255667   3.654   4.505   2.629  0.1374 -0.7006  1.6628
11418TIP3   OH255668   1.072   4.380   0.281 -0.3355 -0.6591 -0.1563
11418TIP3    H155669   0.996   4.335   0.320  0.2919 -1.4481  0.1811
11418TIP3    H255670   1.143   4.362   0.342 -0.2457  1.4920  0.4004
11419TIP3   OH255671   1.650   6.381   1.046 -0.5947 -0.1167  0.4703
11419TIP3    H155672   1.682   6.370   0.956 -1.0150  0.6016  0.2228
11419TIP3    H255673   1.560   6.348   1.043 -1.0319  1.0753  0.3171
11420TIP3   OH255674   0.196   1.679  14.640 -0.1764 -0.7519  0.0170
11420TIP3    H155675   0.251   1.641  14.571 -0.7590 -2.1103  0.2882
11420TIP3    H255676   0.259   1.711  14.705  0.3336 -2.8084  0.5992
11421TIP3   OH255677   4.536   3.871  10.413 -0.8863 -0.1472  0.3498
11421TIP3    H155678   4.547   3.964  10.396 -3.2904  0.3020  1.0396
11421TIP3    H255679   4.519   3.832  10.327 -1.0875  0.2487  0.2101
11422TIP3   OH255680   0.222   4.224  13.614 -0.4289 -0.4639 -0.4200
11422TIP3    H155681   0.152   4.286  13.635 -0.2359 -0.6137  0.6739
11422TIP3    H255682   0.177   4.154  13.566 -0.3998  1.2244 -3.0370
11423TIP3   OH255683   4.717   4.192  10.686  0.3274  0.6775  0.1121
11423TIP3    H155684   4.702   4.286  10.673 -0.1748  0.8427  1.8075
11423TIP3    H255685   4.785   4.188  10.754  2.4076 -0.1697 -1.9260
11424TIP3   OH255686   0.120   1.114   5.472  0.1925  0.7020 -0.5428
11424TIP3    H155687   0.157   1.038   5.428 -1.1075  0.5518 -1.4067
11424TIP3    H255688   0.089   1.081   5.556 -2.8174 -0.3167 -2.0158
11425TIP3   OH255689   6.411   2.152  14.369  0.2888  0.1173  0.0080
11425TIP3    H155690   6.410   2.246  14.383  1.0822  0.4261 -1.9749
11425TIP3    H255691   6.363   2.138  14.288  0.2613 -1.1763  0.2289
11426TIP3   OH255692   4.999   6.057  13.917  0.2722 -0.6143  0.0591
11426TIP3    H155693   4.958   6.070  13.831  1.5219  0.4867 -0.3868
11426TIP3    H255694   5.090   6.038  13.898  0.9233  1.2140  1.1736
11427TIP3   OH255695   0.152   5.763  11.439  0.4343 -0.3406 -0.1274
11427TIP3    H155696   0.169   5.677  11.400  1.2639 -0.4481  0.4587
11427TIP3    H255697   0.186   5.825  11.375  1.1112 -0.4955  0.0739
11428TIP3   OH255698   4.106   5.831   0.800  0.3805 -0.0268 -0.3498
11428TIP3    H155699   4.038   5.897   0.787  0.6588  0.0876 -1.2129
11428TIP3    H255700   4.057   5.751   0.821  0.0358  0.3674  0.3790
11429TIP3   OH255701   6.271   1.167  14.538 -0.6049  0.1252  0.1940
11429TIP3    H155702   6.303   1.152  14.627 -0.8695  3.8052  0.9908
11429TIP3    H255703   6.347   1.201  14.490 -1.5208  2.3730  0.2631
11430TIP3   OH255704   0.089   5.319  16.879 -0.3869  0.8587  0.7162
11430TIP3    H155705   0.042   5.402  16.867  0.0366  1.0206  0.1154
11430TIP3    H255706   0.162   5.325  16.818  0.0666  0.3528  1.2086
11431TIP3   OH255707   5.090   3.038  14.202  0.2538  0.1170  0.2778
11431TIP3    H155708   5.072   3.108  14.266 -1.8315  1.6144 -1.8704
11431TIP3    H255709   5.175   3.061  14.165 -0.4630  1.6226 -0.4853
11432TIP3   OH255710   3.662   1.078  14.773  0.5199 -0.3789 -0.0209
11432TIP3    H155711   3.720   1.069  14.849  0.5786  1.0731  0.1179
11432TIP3    H255712   3.722   1.077  14.698  0.6079 -0.2413  0.0472
11433TIP3   OH255713   5.658   6.279  12.399 -0.5096  0.1673  0.0861
11433TIP3    H155714   5.621   6.364  12.424  0.6668  0.1810  1.8563
11433TIP3    H255715   5.749   6.298  12.374 -1.4862  0.0877 -3.9261
11434TIP3   OH255716   2.392   6.143   1.620  0.0602  0.3265 -0.4150
11434TIP3    H155717   2.403   6.170   1.711 -0.0634  1.7316 -0.8031
11434TIP3    H255718   2.432   6.057   1.616 -1.0600 -0.2959  1.2561
11435TIP3   OH255719   2.113   5.223  12.871  0.3707  0.0260 -0.1903
11435TIP3    H155720   2.040   5.183  12.919 -1.0522  0.6800 -1.7223
11435TIP3    H255721   2.116   5.174  12.788  2.2228 -0.5233  0.1858
11436TIP3   OH255722   6.176   6.209   1.945 -0.5131 -0.3298 -0.1894
11436TIP3    H155723   6.219   6.290   1.919  0.6750 -0.9754 -0.2749
11436TIP3    H255724   6.178   6.210   2.040 -2.5509  0.8076 -0.1249
11437TIP3   OH255725   6.663   5.123   3.066 -0.4353 -0.2528 -0.5624
11437TIP3    H155726   6.577   5.083   3.054 -0.0076 -1.2614 -0.3064
11437TIP3    H255727   6.675   5.126   3.160 -0.3794  0.2889 -0.5895
11438TIP3   OH255728   1.579   4.787   2.655 -0.0294 -0.1640  0.1648
11438TIP3    H155729   1.591   4.692   2.653 -1.5308 -0.3945  1.3123
11438TIP3    H255730   1.485   4.799   2.646 -0.0688  1.1315  2.1207
11439TIP3   OH255731   6.408   5.232   4.517 -0.5230  0.7044  0.8822
11439TIP3    H155732   6.383   5.174   4.589  0.1755  0.7302  1.1494
11439TIP3    H255733   6.460   5.177   4.459 -1.6763  0.4952  0.0261
11440TIP3   OH255734   2.972   0.914  11.243  0.7892 -0.2983 -0.1326
11440TIP3    H155735   2.933   0.895  11.158  0.1546  1.4945 -0.2842
11440TIP3    H255736   3.066   0.925  11.225  0.2249  3.5625 -1.3146
11441TIP3   OH255737   1.473   0.182   3.389 -0.2752 -0.1989  0.2225
11441TIP3    H155738   1.568   0.187   3.373 -0.1023 -1.5118  0.7727
11441TIP3    H255739   1.464   0.116   3.458 -1.5838  0.0495  0.2945
11442TIP3   OH255740   0.397   1.590  15.646 -0.3336  0.3749 -0.8622
11442TIP3    H155741   0.465   1.573  15.581 -0.9414 -0.5356 -1.2734
11442TIP3    H255742   0.445   1.610  15.727  0.4168  0.7449 -1.3903
11443TIP3   OH255743   5.709   2.849   0.682 -0.3755 -0.0109  0.0135
11443TIP3    H155744   5.748   2.788   0.621  0.1654 -0.2214  0.5680
11443TIP3    H255745   5.615   2.830   0.679 -0.0932 -1.5729  0.9653
11444TIP3   OH255746   1.889   4.245  13.701 -0.0452  0.3484  0.2516
11444TIP3    H155747   1.956   4.277  13.761  0.1601  1.1927 -0.4082
11444TIP3    H255748   1.819   4.310  13.705 -1.3480 -1.0939  1.7703
11445TIP3   OH255749   6.341   5.863   4.444  0.7367  0.0945  0.4426
11445TIP3    H155750   6.348   5.953   4.475  0.0267  0.1539  0.4287
11445TIP3    H255751   6.247   5.846   4.441  0.8369 -0.2570 -0.6790
11446TIP3   OH255752   2.334   1.880  11.762 -0.2368 -0.3704  0.5415
11446TIP3    H155753   2.422   1.881  11.797 -0.1475  0.3243  0.3156
11446TIP3    H255754   2.299   1.967  11.782  0.6678  0.9348 -3.1276
11447TIP3   OH255755   0.841   5.554  13.727  0.7266  0.2406  0.2404
11447TIP3    H155756   0.747   5.553  13.709  0.7878 -0.2376 -0.0717
11447TIP3    H255757   0.862   5.462  13.747  1.3989  0.1011 -1.1028
11448TIP3   OH255758   0.528   3.630   2.363 -0.6627 -1.0199  0.1857
11448TIP3    H155759   0.510   3.541   2.332 -1.1761 -0.5507 -0.9036
11448TIP3    H255760   0.456   3.648   2.424 -2.4393 -0.1405 -2.1282
11449TIP3   OH255761   4.259   0.665   5.419 -0.7289  0.2903  0.2435
11449TIP3    H155762   4.201   0.608   5.369  0.5522 -0.7383 -0.1096
11449TIP3    H255763   4.257   0.628   5.508 -0.2002 -0.0736  0.1059
11450TIP3   OH255764   2.572   3.052  16.586  0.0116 -0.1215  0.3905
11450TIP3    H155765   2.515   2.999  16.531 -0.5871 -0.1877  1.0601
11450TIP3    H255766   2.624   3.104  16.524  1.0125 -1.8989 -0.2766
11451TIP3   OH255767   5.284   0.880   2.902  0.2685 -0.1658 -0.7620
11451TIP3    H155768   5.258   0.795   2.865  0.1646 -0.6688  0.4415
11451TIP3    H255769   5.322   0.927   2.828  1.0165 -1.5503 -1.2923
11452TIP3   OH255770   2.348   3.196   3.941 -0.3214  0.1792  0.2663
11452TIP3    H155771   2.340   3.290   3.957  0.6304  0.1085  1.1993
11452TIP3    H255772   2.290   3.156   4.006  0.9144  0.0425  1.3140
11453TIP3   OH255773   0.837   2.179   5.815  0.5958 -0.1664 -0.5714
11453TIP3    H155774   0.831   2.116   5.887  3.5119  0.4508  0.2767
11453TIP3    H255775   0.746   2.192   5.787 -0.3748 -2.1195  1.5049
11454TIP3   OH255776   1.847   3.285  12.328  0.4529  0.3538 -0.0055
11454TIP3    H155777   1.814   3.199  12.303  2.6757 -0.8995  1.2227
11454TIP3    H255778   1.873   3.325  12.245  1.6762 -1.1449 -0.3652
11455TIP3   OH255779   2.465   4.125  12.197  0.3329 -0.0181 -0.3405
11455TIP3    H155780   2.421   4.148  12.116  1.3419 -0.8379 -1.1555
11455TIP3    H255781   2.544   4.179  12.197 -1.0658  2.0778  1.5328
11456TIP3   OH255782   0.207   1.049   6.559 -0.2656 -1.1011 -0.3191
11456TIP3    H155783   0.181   0.968   6.602 -0.3389 -0.4033  0.9708
11456TIP3    H255784   0.140   1.063   6.493 -1.7478 -0.6894  1.2421
11457TIP3   OH255785   4.525   4.031  10.812 -0.0559 -0.5619  0.2294
11457TIP3    H155786   4.616   4.056  10.795  0.1102 -0.1825  1.6172
11457TIP3    H255787   4.475   4.070  10.740  0.7105  0.3981  0.2134
11458TIP3   OH255788   2.183   5.197   1.923  0.5915  0.1758  0.5211
11458TIP3    H155789   2.174   5.116   1.972  1.2556 -0.2850 -0.1058
11458TIP3    H255790   2.097   5.211   1.883  0.8840 -0.9885 -0.5438
11459TIP3   OH255791   5.445   2.629   5.636  0.0237 -0.1384  0.5790
11459TIP3    H155792   5.473   2.718   5.612 -2.1979  0.2901 -0.6458
11459TIP3    H255793   5.467   2.621   5.729  2.4186  0.7968  0.1425
11460TIP3   OH255794   2.782   1.582  11.732 -0.3681  0.3402 -0.1281
11460TIP3    H155795   2.825   1.591  11.647  0.1649  1.8888  0.2870
11460TIP3    H255796   2.689   1.598  11.714 -0.1534  1.4178 -0.2952
11461TIP3   OH255797   3.440   5.674  12.324  0.0435 -0.0734 -0.4464
11461TIP3    H155798   3.427   5.764  12.296  2.0423  0.5932  0.6326
11461TIP3    H255799   3.449   5.624  12.243  0.5924  0.9853 -1.0487
11462TIP3   OH255800   4.851   3.146  10.988  0.0408  0.3016 -0.1362
11462TIP3    H155801   4.896   3.136  10.904 -1.4195 -0.2948 -0.8492
11462TIP3    H255802   4.781   3.209  10.971  0.0107  0.5077  0.7388
11463TIP3   OH255803   3.827   0.922   4.071 -0.1209  0.1147 -0.0435
11463TIP3    H155804   3.784   0.981   4.133 -0.3095  1.9808 -1.8971
11463TIP3    H255805   3.764   0.850   4.059 -0.0583 -0.2896  1.9251
11464TIP3   OH255806   4.468   4.904  13.503 -0.3359 -0.5380 -0.2388
11464TIP3    H155807   4.452   4.815  13.535  0.4120 -0.0320  1.6041
11464TIP3    H255808   4.396   4.956  13.540  0.4657  0.0264  0.5411
11465TIP3   OH255809   5.354   4.879   2.215 -0.6259 -0.2271 -0.2768
11465TIP3    H155810   5.354   4.936   2.138 -0.0388 -1.0781 -0.9131
11465TIP3    H255811   5.403   4.927   2.281  0.1437 -0.1345 -0.9137
11466TIP3   OH255812   0.486   1.423  17.000  0.1088 -0.0554 -0.0484
11466TIP3    H155813   0.426   1.354  16.972 -0.8108  0.3307  0.9211
11466TIP3    H255814   0.565   1.376  17.027 -0.3155 -0.6977  0.0982
11467TIP3   OH255815   0.738   2.240   3.649 -0.2748  0.2325 -0.0094
11467TIP3    H155816   0.653   2.198   3.665  0.3988 -1.4922 -0.9270
11467TIP3    H255817   0.799   2.168   3.636  1.2392  1.4754  0.0609
11468TIP3   OH255818   3.192   3.785   4.156  0.8461  0.4056  0.0947
11468TIP3    H155819   3.259   3.778   4.225  1.3949  0.4593 -0.4276
11468TIP3    H255820   3.141   3.862   4.181 -0.3972 -0.8926  1.6771
11469TIP3   OH255821   4.024   6.290   4.692 -0.6139 -0.4129 -0.3148
11469TIP3    H155822   3.938   6.259   4.721 -0.3282 -0.1814  0.8034
11469TIP3    H255823   4.035   6.252   4.605 -1.7922 -0.5531 -0.4174
11470TIP3   OH255824   4.432   0.656   4.060  0.0193  0.5448 -0.4054
11470TIP3    H155825   4.385   0.724   4.012 -2.6289 -1.6895 -1.0588
11470TIP3    H255826   4.501   0.628   4.000 -1.1904  0.0938 -1.6044
11471TIP3   OH255827   5.496   3.935  14.930 -0.4241 -0.1280  0.3987
11471TIP3    H155828   5.471   3.939  15.022 -1.9649  0.4696 -0.0357
11471TIP3    H255829   5.504   4.027  14.903  2.3993 -0.2901  0.5536
11472TIP3   OH255830   0.305   4.871   5.328 -0.1603  1.0555  0.2410
11472TIP3    H155831   0.266   4.826   5.403 -1.4751  0.4504 -0.7794
11472TIP3    H255832   0.266   4.828   5.252 -0.5063  3.1052 -0.7641
11473TIP3   OH255833   5.598   6.201  12.134 -0.3082 -0.2569 -0.3274
11473TIP3    H155834   5.597   6.110  12.163  0.7552 -0.1107  0.2178
11473TIP3    H255835   5.684   6.233  12.160 -0.2822  0.6133 -1.4243
11474TIP3   OH255836   0.551   3.706  15.813 -0.3249  0.2393 -0.4111
11474TIP3    H155837   0.539   3.761  15.891  1.4583  2.5572 -1.7105
11474TIP3    H255838   0.621   3.645  15.837  0.5013  1.2164 -0.3296
11475TIP3   OH255839   6.536   6.015  16.890 -0.1643  0.3005  0.1224
11475TIP3    H155840   6.514   6.030  16.799  1.3159 -2.1272 -0.6800
11475TIP3    H255841   6.470   5.952  16.921  1.1337 -1.2524 -0.1856
11476TIP3   OH255842   6.170   0.524   5.442 -0.6465 -0.1203  0.2932
11476TIP3    H155843   6.107   0.457   5.418  0.2887 -1.4697  1.5265
11476TIP3    H255844   6.130   0.571   5.515  0.9991 -2.9880  3.1757
11477TIP3   OH255845   4.238   1.653  16.866  0.1182 -0.0405  0.2037
11477TIP3    H155846   4.332   1.670  16.855  0.1145 -0.0333  0.1852
11477TIP3    H255847   4.234   1.563  16.896  0.2617  0.6697  2.4438
11478TIP3   OH255848   5.732   4.593   1.691  0.0539  0.0458 -0.2621
11478TIP3    H155849   5.742   4.499   1.675  2.2678 -0.1404  2.0124
11478TIP3    H255850   5.638   4.609   1.676 -0.4408 -2.5879 -0.2898
11479TIP3   OH255851   2.014   2.609   0.653 -0.2215 -0.1839 -0.2320
11479TIP3    H155852   1.984   2.678   0.593  0.3333 -0.0116 -0.3106
11479TIP3    H255853   2.046   2.656   0.730  0.9991 -0.3082 -0.6540
11480TIP3   OH255854   0.206   1.344  10.456  1.1929  0.5611  0.1954
11480TIP3    H155855   0.299   1.359  10.475  1.1319 -0.2809  1.1844
11480TIP3    H255856   0.196   1.249  10.463  0.7873  0.3849 -2.3220
11481TIP3   OH255857   3.150   3.338  11.759 -0.4353 -0.4263 -0.7890
11481TIP3    H155858   3.229   3.320  11.810  0.2691  0.4707 -1.5524
11481TIP3    H255859   3.134   3.431  11.771  0.5585  0.0977 -3.3422
11482TIP3   OH255860   2.885   0.822  15.248 -0.1268 -0.3269 -0.4498
11482TIP3    H155861   2.925   0.896  15.292  0.9505 -1.7832  1.1067
11482TIP3    H255862   2.824   0.785  15.312 -1.3470 -0.2270 -1.5397
11483TIP3   OH255863   5.010   3.479  12.966 -0.0705 -0.2694 -0.0459
11483TIP3    H155864   5.014   3.418  13.040  1.7500  0.3206  0.3687
11483TIP3    H255865   5.090   3.531  12.974 -0.0860  0.1112 -2.1877
11484TIP3   OH255866   6.184   2.378   0.591  0.0717 -0.2864  0.2096
11484TIP3    H155867   6.188   2.285   0.612 -0.7766 -0.4706 -0.4161
11484TIP3    H255868   6.271   2.399   0.557  0.2301 -0.8749  0.2569
11485TIP3   OH255869   4.492   3.264  14.822  0.1725  0.2580  0.5501
11485TIP3    H155870   4.473   3.344  14.773  0.4944  1.5965  2.5504
11485TIP3    H255871   4.457   3.280  14.909  1.1227 -1.3964  1.2686
11486TIP3   OH255872   4.664   6.639   5.341  0.3543  0.4694 -0.0367
11486TIP3    H155873   4.663   6.650   5.436  0.6579 -1.0504  0.1500
11486TIP3    H255874   4.756   6.647   5.316  0.0923  2.4962 -0.4140
11487TIP3   OH255875   4.017   4.235  16.430 -0.0765  0.2617  0.0566
11487TIP3    H155876   3.963   4.315  16.427 -1.0872 -0.3816  0.8975
11487TIP3    H255877   3.970   4.173  16.374 -0.3514 -0.3880  1.0077
11488TIP3   OH255878   0.578   1.210   0.045  0.3742  0.2958  0.0373
11488TIP3    H155879   0.581   1.202   0.141  1.0530  1.3903  0.1126
11488TIP3    H255880   0.615   1.297   0.027  2.1859 -0.7188 -1.3308
11489TIP3   OH255881   6.755   0.052  16.262  0.9076  0.1262  0.0643
11489TIP3    H155882   6.848   0.035  16.273  0.7835 -1.3688 -1.0421
11489TIP3    H255883   6.728   0.092  16.345  2.5565  0.7638  0.3231
11490TIP3   OH255884   0.877   2.318   1.461  0.4177  0.1244  0.0781
11490TIP3    H155885   0.895   2.398   1.510  2.0795  1.0985 -2.0197
11490TIP3    H255886   0.798   2.338   1.411 -1.2932 -0.8786  2.2956
11491TIP3   OH255887   5.635   0.623   1.245  0.1147  0.5848 -0.6262
11491TIP3    H155888   5.692   0.567   1.193 -0.4350 -1.7426  1.1918
11491TIP3    H255889   5.560   0.641   1.188 -0.2786 -1.5701 -0.8413
11492TIP3   OH255890   5.230   1.150  11.279 -0.2060  0.2973 -0.6345
11492TIP3    H155891   5.150   1.179  11.322 -0.0555  2.1057 -1.4917
11492TIP3    H255892   5.266   1.230  11.240  2.4221 -0.3121  0.4010
11493TIP3   OH255893   3.091   5.283   0.322 -0.3461 -0.1598 -0.3172
11493TIP3    H155894   3.154   5.288   0.394 -0.5751  0.7652 -0.1737
11493TIP3    H255895   3.035   5.209   0.345  0.7148 -1.0253 -0.4745
11494TIP3   OH255896   1.210   5.749   2.352 -0.1927  0.2072 -0.1458
11494TIP3    H155897   1.230   5.655   2.358 -0.0816  0.3441  2.2966
11494TIP3    H255898   1.157   5.767   2.430  2.1777  2.7210  0.9909
11495TIP3   OH255899   4.910   4.435  16.951  0.2731 -0.8519 -0.0594
11495TIP3    H155900   4.942   4.477  17.030  1.1707 -0.3653 -0.6738
11495TIP3    H255901   4.815   4.441  16.957  0.3360 -0.9426  1.0429
11496TIP3   OH255902   5.099   0.667   2.542  0.2800  0.0838 -0.0341
11496TIP3    H155903   5.147   0.696   2.620 -0.7860 -0.9157  1.0181
11496TIP3    H255904   5.098   0.571   2.548 -1.8732  0.0657  0.0258
11497TIP3   OH255905   4.616   4.884  17.045 -0.4742 -0.9682  0.5059
11497TIP3    H155906   4.569   4.803  17.066  0.7955 -1.6533  0.7350
11497TIP3    H255907   4.708   4.864  17.062 -0.2018  0.6867  1.0314
11498TIP3   OH255908   3.385   0.778   1.337  0.0936 -0.3925  0.0717
11498TIP3    H155909   3.339   0.697   1.316 -0.5901 -0.1632  0.6782
11498TIP3    H255910   3.327   0.847   1.306 -0.0347 -0.0990  0.9659
11499TIP3   OH255911   2.969   0.166   3.773 -0.7104 -0.6260 -0.1910
11499TIP3    H155912   2.896   0.174   3.834 -1.2719  0.6852 -1.0051
11499TIP3    H255913   3.031   0.107   3.817 -2.0865 -1.4690  0.6551
11500TIP3   OH255914   5.120   0.112  15.342 -0.3542 -0.0052  0.0278
11500TIP3    H155915   5.207   0.148  15.321 -0.7326 -0.0538 -1.7374
11500TIP3    H255916   5.126   0.020  15.317 -1.5605  0.4771 -2.2126
11501TIP3   OH255917   2.912   5.699   4.547  0.1622  0.1615 -0.3327
11501TIP3    H155918   2.943   5.670   4.633 -0.6785  2.2257  0.6779
11501TIP3    H255919   2.937   5.791   4.541 -0.6014  0.2914 -1.9187
11502TIP3   OH255920   1.680   1.420  16.179 -0.3597  0.6520 -0.3411
11502TIP3    H155921   1.738   1.496  16.179 -2.1565  2.0640 -0.0031
11502TIP3    H255922   1.621   1.436  16.253 -1.8323 -0.2331 -1.3105
11503TIP3   OH255923   4.612   4.791  14.572 -0.1527  0.0555 -0.5067
11503TIP3    H155924   4.672   4.816  14.642 -1.4445  1.2451  0.2002
11503TIP3    H255925   4.630   4.854  14.502 -0.2373  0.1084 -0.4808
11504TIP3   OH255926   1.584   5.976  12.189 -0.0463  0.4845  0.0130
11504TIP3    H155927   1.524   5.953  12.118  1.6967 -1.2425 -0.9530
11504TIP3    H255928   1.531   5.969  12.268 -1.3168 -0.3041 -0.8824
11505TIP3   OH255929   3.045   5.694  15.793 -0.7025 -0.0180 -0.4521
11505TIP3    H155930   3.138   5.677  15.809 -1.0189 -2.3225 -1.0119
11505TIP3    H255931   3.040   5.789  15.781  1.3648  0.2985  0.9808
11506TIP3   OH255932   6.416   5.785  13.200  0.3484  0.6681  0.2982
11506TIP3    H155933   6.426   5.715  13.264  1.8579  1.4223  0.9186
11506TIP3    H255934   6.504   5.795  13.163 -0.7314 -0.6155 -2.8220
11507TIP3   OH255935   3.910   0.997   1.186  0.1007  0.4862 -0.1136
11507TIP3    H155936   3.972   0.975   1.116  0.8775 -0.8294  0.9539
11507TIP3    H255937   3.888   1.089   1.171  1.3633  0.6164 -1.2414
11508TIP3   OH255938   1.808   2.124   4.974 -0.5905 -0.1357 -0.5244
11508TIP3    H155939   1.717   2.112   5.001 -0.4210  0.7322  0.4478
11508TIP3    H255940   1.839   2.035   4.956 -0.6874 -0.8131  2.3102
11509TIP3   OH255941   4.798   2.956  16.528  0.1526  0.0980  0.1729
11509TIP3    H155942   4.853   2.974  16.604 -0.3021  0.9416  0.3099
11509TIP3    H255943   4.728   2.900  16.562  0.2561  0.0211  0.2568
11510TIP3   OH255944   5.844   3.951  13.237 -0.1139 -0.1595 -0.2021
11510TIP3    H155945   5.912   3.931  13.173 -0.4577 -0.9453 -0.3322
11510TIP3    H255946   5.887   4.003  13.304  0.4088  0.0874 -0.7293
11511TIP3   OH255947   5.839   6.567  12.371  0.1476 -0.3973  0.6463
11511TIP3    H155948   5.861   6.629  12.441 -0.8054  0.5233  0.1359
11511TIP3    H255949   5.744   6.564  12.370  0.1839 -1.8168  0.6068
11512TIP3   OH255950   1.858   0.390   3.922  0.0079  0.0107 -0.2511
11512TIP3    H155951   1.865   0.336   3.843 -1.5845 -1.4830  0.6094
11512TIP3    H255952   1.769   0.425   3.920 -0.2813 -0.5925  1.2073
11513TIP3   OH255953   5.236   1.063  13.723  0.0446 -0.2882 -0.2061
11513TIP3    H155954   5.297   0.991  13.739  0.8042  0.8036  1.9245
11513TIP3    H255955   5.293   1.137  13.702 -0.7238 -0.2001 -2.0717
11514TIP3   OH255956   6.658   4.085  15.609 -0.7586 -0.0979  0.0072
11514TIP3    H155957   6.602   4.161  15.623  1.3322  1.1278  2.0184
11514TIP3    H255958   6.724   4.091  15.678  2.0362 -1.3216 -2.4579
11515TIP3   OH255959   3.710   6.410   5.497  0.4753 -0.2476  0.4057
11515TIP3    H155960   3.759   6.482   5.537 -2.6976  1.2536  1.6958
11515TIP3    H255961   3.716   6.338   5.561  2.1132 -0.5923 -0.0864
11516TIP3   OH255962   2.934   2.968   2.145  0.6228 -0.0111  0.1689
11516TIP3    H155963   2.898   3.052   2.176 -0.8286 -0.5098 -0.1121
11516TIP3    H255964   3.029   2.982   2.143  0.5589  0.9080  2.2406
11517TIP3   OH255965   3.710   2.214   5.637 -0.6802  0.3155 -0.2579
11517TIP3    H155966   3.689   2.296   5.592 -0.0727  0.6275  0.0105
11517TIP3    H255967   3.668   2.223   5.723 -1.3541 -0.0334 -0.5475
11518TIP3   OH255968   4.842   0.162   1.458 -0.3439  0.0804 -0.3186
11518TIP3    H155969   4.935   0.137   1.459  0.2440  2.0623 -1.9834
11518TIP3    H255970   4.814   0.152   1.549  1.3664 -1.0326  0.1194
11519TIP3   OH255971   2.778   3.000   5.644 -0.3792  0.8650  0.1339
11519TIP3    H155972   2.743   2.914   5.668 -0.2883  0.5404 -0.8502
11519TIP3    H255973   2.809   2.988   5.554 -0.9348  2.1001 -0.2294
11520TIP3   OH255974   3.252   2.619  16.254 -0.0872 -0.0192 -0.3106
11520TIP3    H155975   3.170   2.648  16.294 -0.5507 -0.5524 -0.8612
11520TIP3    H255976   3.252   2.661  16.168 -0.1084 -0.5550 -0.5730
11521TIP3   OH255977   3.269   5.531  11.247  0.0825 -0.3235  0.1561
11521TIP3    H155978   3.187   5.495  11.214  0.6127 -1.2597 -0.1749
11521TIP3    H255979   3.286   5.607  11.191  0.8117 -1.7226 -1.5435
11522TIP3   OH255980   3.099   5.350  12.911 -0.0673  0.1332  0.3012
11522TIP3    H155981   3.119   5.271  12.860  0.8176  0.0741  0.7396
11522TIP3    H255982   3.119   5.326  13.001  0.4918  0.9606  0.4035
11523TIP3   OH255983   5.902   2.908  14.268 -0.7368  0.3931 -0.5676
11523TIP3    H155984   5.877   2.976  14.331 -1.5010  1.0120 -1.5247
11523TIP3    H255985   5.828   2.847  14.267  0.1457 -0.7243  0.6375
11524TIP3   OH255986   6.506   4.289  12.012 -0.1636  0.0651 -0.1894
11524TIP3    H155987   6.536   4.276  12.102  1.1766 -1.8649 -0.8664
11524TIP3    H255988   6.543   4.215  11.964  1.4804  2.4885 -2.8663
11525TIP3   OH255989   4.781   4.605   5.839  0.0498 -0.5461 -0.1990
11525TIP3    H155990   4.710   4.647   5.887 -0.7513 -0.2432 -1.6196
11525TIP3    H255991   4.779   4.513   5.867  0.4469 -0.0877  1.3283
11526TIP3   OH255992   1.862   4.432   0.004  0.2314  0.0841 -0.7910
11526TIP3    H155993   1.874   4.397  -0.084  2.2603  1.0166 -0.9143
11526TIP3    H255994   1.893   4.362   0.062  0.9237  0.2934 -0.9046
11527TIP3   OH255995   4.488   2.218   5.856 -0.5807 -0.1459 -0.1192
11527TIP3    H155996   4.568   2.232   5.907 -2.5579 -0.7007  3.2098
11527TIP3    H255997   4.443   2.147   5.901 -1.7867 -1.6055 -3.4545
11528TIP3   OH255998   2.644   0.023  11.439 -0.1342 -0.1114 -0.2343
11528TIP3    H155999   2.615   0.044  11.350  0.3653  1.7422  0.0178
11528TIP3    H256000   2.726  -0.025  11.427 -0.7398 -1.0248 -0.8005
11529TIP3   OH256001   4.875   4.904  16.748 -0.3124  0.0484  0.3227
11529TIP3    H156002   4.800   4.958  16.775  1.6754  1.3184  3.6026
11529TIP3    H256003   4.942   4.967  16.722  1.0188 -0.8943  1.3633
11530TIP3   OH256004   4.973   0.418  14.513 -0.6294 -0.0122 -0.0132
11530TIP3    H156005   4.980   0.370  14.596 -0.7811  1.4643  0.8775
11530TIP3    H256006   5.048   0.478  14.513 -1.0100  0.4736 -0.6328
11531TIP3   OH256007   4.196   2.486  15.271 -0.5806  0.0558  0.8293
11531TIP3    H156008   4.148   2.425  15.215 -0.1407  1.4366 -1.1362
11531TIP3    H256009   4.203   2.442  15.355 -0.7606 -2.3348 -0.3739
11532TIP3   OH256010   6.300   0.078   5.295  0.1745  0.4510  0.7508
11532TIP3    H156011   6.216   0.117   5.318 -1.0330 -1.8207  0.2951
11532TIP3    H256012   6.306   0.088   5.200  0.4456  0.6700  0.7913
11533TIP3   OH256013   6.431   6.321   3.081  0.2851 -0.2321  0.4574
11533TIP3    H156014   6.483   6.309   3.161 -0.0446  0.2491  0.7513
11533TIP3    H256015   6.372   6.394   3.102 -0.6722 -0.9269  0.2119
11534TIP3   OH256016   2.249   4.467  12.449 -0.2935  0.0242 -0.2205
11534TIP3    H156017   2.206   4.428  12.525 -1.0454  1.1486 -0.0606
11534TIP3    H256018   2.269   4.557  12.475 -0.1901  0.2964 -1.1971
11535TIP3   OH256019   3.088   3.527   5.508 -0.0260 -0.2144 -0.4694
11535TIP3    H156020   3.170   3.485   5.533 -0.0121 -0.7783 -1.4665
11535TIP3    H256021   3.084   3.606   5.562  0.4540 -0.9393  0.6631
11536TIP3   OH256022   2.248   5.031  15.923  0.2302 -0.2760  0.0991
11536TIP3    H156023   2.339   5.014  15.946  0.3200  1.4415  1.1393
11536TIP3    H256024   2.204   4.946  15.931  1.0858 -0.5197  2.7457
11537TIP3   OH256025   0.944   5.599   0.249  0.2759 -0.3521 -0.3517
11537TIP3    H156026   0.901   5.682   0.269  0.6751 -0.5109  1.2396
11537TIP3    H256027   0.883   5.554   0.190 -2.0892 -0.8370  2.3285
11538TIP3   OH256028   1.748   6.328   3.117 -0.5675 -0.2744  0.1730
11538TIP3    H156029   1.689   6.277   3.171  0.4341 -0.9693  0.6192
11538TIP3    H256030   1.692   6.366   3.049 -2.0758  1.7193  2.4635
11539TIP3   OH256031   1.352   6.306  15.125  0.3912  0.0865 -0.5037
11539TIP3    H156032   1.403   6.370  15.174 -0.6907 -0.1272  0.9233
11539TIP3    H256033   1.304   6.358  15.060  0.0285  0.6634  0.2197
11540TIP3   OH256034   0.818   2.160  12.845 -0.1801 -0.1015  0.0669
11540TIP3    H156035   0.756   2.231  12.830 -3.1004 -2.8523 -1.4309
11540TIP3    H256036   0.892   2.181  12.787 -0.3910  2.3172  0.5916
11541TIP3   OH256037   5.393   5.593  13.704 -0.0151 -0.2140  0.0344
11541TIP3    H156038   5.467   5.615  13.761  0.5951  1.8809 -1.5020
11541TIP3    H256039   5.325   5.656  13.728 -0.4252 -0.5476 -0.2492
11542TIP3   OH256040   4.152   4.398  15.997  0.5429 -0.1318  0.0230
11542TIP3    H156041   4.073   4.348  16.018 -0.6039  2.0146  0.9883
11542TIP3    H256042   4.131   4.444  15.916  0.4648  1.1091  0.7323
11543TIP3   OH256043   4.029   1.671  15.823 -0.3773 -0.2384  0.2688
11543TIP3    H156044   4.006   1.639  15.736  0.9781 -0.8218  0.1151
11543TIP3    H256045   4.124   1.687  15.819 -0.7845  2.6381  0.7023
11544TIP3   OH256046   1.831   5.316  15.701 -0.1792  0.1392  0.2704
11544TIP3    H156047   1.817   5.375  15.775  0.6152 -0.7547  1.1307
11544TIP3    H256048   1.831   5.229  15.739 -1.5068 -0.4462 -1.0223
11545TIP3   OH256049   1.001   1.614  13.962 -0.9957  0.0063  0.5069
11545TIP3    H156050   1.029   1.654  13.880 -0.3030 -1.8485 -0.1649
11545TIP3    H256051   0.938   1.677  13.998 -0.6094  1.2746 -0.9736
11546TIP3   OH256052   5.767   5.009  16.169  0.0159 -0.1469 -0.2378
11546TIP3    H156053   5.827   5.059  16.114  0.1533  1.0260  0.9498
11546TIP3    H256054   5.734   4.939  16.112  0.8873  0.4683 -1.5092
11547TIP3   OH256055   6.286   4.013  14.603  0.0532 -0.3990  0.0301
11547TIP3    H156056   6.291   4.049  14.691  0.2476 -2.2569  0.8011
11547TIP3    H256057   6.210   4.057  14.563 -0.5976 -0.2293  1.4245
11548TIP3   OH256058   1.682   4.409  12.105  0.5274 -0.1541 -0.1534
11548TIP3    H156059   1.760   4.353  12.097  0.0217 -0.8972  0.0786
11548TIP3    H256060   1.653   4.397  12.196 -0.7525 -1.0933 -0.6655
11549TIP3   OH256061   0.667   4.032   1.181 -0.3211 -0.1838 -0.4837
11549TIP3    H156062   0.638   4.108   1.232 -2.1320  0.5721 -2.5670
11549TIP3    H256063   0.627   3.957   1.226 -0.8386  0.3419 -0.0470
11550TIP3   OH256064   3.432   3.022  13.809 -0.6063 -0.1677  0.1717
11550TIP3    H156065   3.389   3.074  13.878 -0.1975 -0.4268  0.6210
11550TIP3    H256066   3.387   2.938  13.811  0.0697 -0.5146  0.7911
11551TIP3   OH256067   1.337   0.161  16.010 -0.0925 -0.3067 -0.0868
11551TIP3    H156068   1.263   0.170  15.950  1.1586  1.1145 -1.4847
11551TIP3    H256069   1.355   0.067  16.013 -2.3244 -0.7445  0.7872
11552TIP3   OH256070   4.294   6.268  14.769  0.0023 -0.0126 -0.4711
11552TIP3    H156071   4.233   6.316  14.826  0.1676  3.4965 -3.0552
11552TIP3    H256072   4.242   6.248  14.691  1.4926  0.9771 -1.7396
11553TIP3   OH256073   5.631   5.374  12.431  0.3346 -0.0309  0.3364
11553TIP3    H156074   5.558   5.403  12.377  0.8111 -0.5484 -0.6123
11553TIP3    H256075   5.668   5.454  12.467 -0.6877  0.2310  0.8028
11554TIP3   OH256076   0.981   2.711   2.612 -0.1738  0.0698 -0.0083
11554TIP3    H156077   0.984   2.616   2.619  0.3614  0.0674 -0.2487
11554TIP3    H256078   1.036   2.742   2.684 -1.0935  0.2259  0.6495
11555TIP3   OH256079   6.404   6.018  12.691 -0.0291  0.0979  0.2243
11555TIP3    H156080   6.472   6.065  12.739  0.5476 -0.6108  0.0931
11555TIP3    H256081   6.445   5.937  12.662 -0.4311  0.4050 -1.2777
11556TIP3   OH256082   4.774   3.487  12.692  0.1529  0.4548  0.0393
11556TIP3    H156083   4.814   3.562  12.648 -0.7915 -0.0399 -1.7247
11556TIP3    H256084   4.845   3.423  12.698  0.7521  1.1754  0.8314
11557TIP3   OH256085   5.884   6.469  16.581  0.7963 -0.1139 -0.1166
11557TIP3    H156086   5.807   6.514  16.614 -0.0746 -1.2652 -0.5664
11557TIP3    H256087   5.956   6.532  16.594 -0.3718  1.3596 -0.6633
11558TIP3   OH256088   2.422   3.708  13.140  0.4107  0.0101  0.0274
11558TIP3    H156089   2.470   3.630  13.168  1.6275  0.7265 -0.0113
11558TIP3    H256090   2.466   3.736  13.059 -0.0667  0.6876 -0.0077
11559TIP3   OH256091   4.381   6.195  12.125  0.2536 -0.8299  0.5774
11559TIP3    H156092   4.339   6.199  12.210  1.7164  0.3697  1.2642
11559TIP3    H256093   4.309   6.197  12.062 -0.7745 -0.5604  1.7648
11560TIP3   OH256094   4.787   0.795   2.148  0.2201  0.0386 -0.0493
11560TIP3    H156095   4.880   0.803   2.169 -0.2707 -0.7052  2.5927
11560TIP3    H256096   4.753   0.884   2.153  0.6072  0.1875 -0.0843
11561TIP3   OH256097   0.782   1.522  15.086 -0.3955  0.1761 -0.0206
11561TIP3    H156098   0.717   1.463  15.125 -1.0274  1.7964  1.4021
11561TIP3    H256099   0.739   1.607  15.082  0.1702  0.3837 -2.9646
11562TIP3   OH256100   0.110   6.074   4.698  0.0267  0.1401 -0.5204
11562TIP3    H156101   0.050   6.054   4.770  0.4492  2.0663  0.4076
11562TIP3    H256102   0.059   6.060   4.619 -0.9168 -0.4883  0.1900
11563TIP3   OH256103   3.150   4.157   5.588 -0.0458  0.3700 -0.0712
11563TIP3    H156104   3.238   4.145   5.625 -0.3385  0.0267  0.5216
11563TIP3    H256105   3.136   4.081   5.533  0.3055  0.7744 -0.7293
11564TIP3   OH256106   5.962   2.529   1.432  0.0407 -0.1793  0.8078
11564TIP3    H156107   6.027   2.566   1.373 -0.9665 -0.5398 -0.5296
11564TIP3    H256108   6.014   2.486   1.500  1.2245 -1.7675 -1.0623
11565TIP3   OH256109   3.456   6.026  14.576  0.7202 -0.1626  0.1084
11565TIP3    H156110   3.381   6.064  14.529 -0.6070 -0.0943  2.2116
11565TIP3    H256111   3.524   6.017  14.509 -0.7983  0.7842 -1.6183
11566TIP3   OH256112   0.973   6.577  13.468  0.2762 -0.1682 -0.6114
11566TIP3    H156113   1.000   6.644  13.532  2.8337 -0.4836 -1.2808
11566TIP3    H256114   0.955   6.627  13.388 -0.7417 -0.0008 -0.2879
11567TIP3   OH256115   4.508   2.161   3.980  0.5011 -0.1157  0.2239
11567TIP3    H156116   4.466   2.138   3.897  1.3935  0.1363 -0.3076
11567TIP3    H256117   4.484   2.091   4.040  1.1499 -1.1332 -0.6941
11568TIP3   OH256118   1.743   3.997  11.252 -0.0031 -0.5101  0.0378
11568TIP3    H156119   1.778   3.963  11.169  1.5268  1.5717 -0.2169
11568TIP3    H256120   1.719   4.088  11.232 -0.2026 -0.1835  1.7203
11569TIP3   OH256121   2.118   5.305  11.755  0.0554 -0.2143  0.1161
11569TIP3    H156122   2.202   5.349  11.763  0.2216 -0.6784  1.0722
11569TIP3    H256123   2.101   5.270  11.843 -0.5982 -1.0927 -0.3519
11570TIP3   OH256124   5.381   2.884   0.120  0.1936  0.3811 -0.2897
11570TIP3    H156125   5.402   2.971   0.153 -2.1318  0.6717  0.4907
11570TIP3    H256126   5.420   2.824   0.184  0.1857  0.8687  0.1738
11571TIP3   OH256127   5.536   4.697  12.788  0.7319  0.7767 -0.4920
11571TIP3    H156128   5.593   4.731  12.857  0.8714 -3.4514  1.6451
11571TIP3    H256129   5.447   4.713  12.819  0.7820  1.8139 -0.8860
11572TIP3   OH256130   4.139   6.598   0.850 -0.1699  0.5530  0.0328
11572TIP3    H156131   4.214   6.651   0.822  0.7722  0.4344  2.2133
11572TIP3    H256132   4.063   6.642   0.812  1.0120  0.4228 -2.5857
11573TIP3   OH256133   0.451   6.107   5.558 -0.5296  0.8844 -0.2342
11573TIP3    H156134   0.535   6.108   5.511  0.2567 -0.2827  1.1166
11573TIP3    H256135   0.475   6.115   5.650 -1.7196 -1.9009  0.3716
11574TIP3   OH256136   5.857   5.715   5.043 -0.3253 -0.2700 -0.2485
11574TIP3    H156137   5.881   5.750   5.128 -0.3917 -1.8239  0.4208
11574TIP3    H256138   5.894   5.778   4.980 -0.8517  1.2227  0.9156
11575TIP3   OH256139   2.307   1.318  17.032 -0.4289  0.4825 -0.2350
11575TIP3    H156140   2.249   1.391  17.054 -0.0961  0.8387 -0.5360
11575TIP3    H256141   2.292   1.254  17.102 -1.1406  0.5965 -0.2826
11576TIP3   OH256142   5.113   1.870   4.071  0.1231  0.1974  0.4568
11576TIP3    H156143   5.077   1.844   4.156 -0.7433  1.3138  0.4482
11576TIP3    H256144   5.058   1.943   4.043  1.9800  1.5323  0.1388
11577TIP3   OH256145   6.453   6.399   3.994  0.2163 -0.2573  0.6625
11577TIP3    H156146   6.446   6.361   3.906  1.3014 -1.3461  1.0491
11577TIP3    H256147   6.501   6.481   3.981  1.6672 -1.1330  0.4424
11578TIP3   OH256148   0.155   5.063   4.612 -0.0119  0.0177  0.0852
11578TIP3    H156149   0.082   5.006   4.587  0.4944 -0.8570  0.5635
11578TIP3    H256150   0.140   5.079   4.706 -0.6348  1.3951 -0.2413
11579TIP3   OH256151   1.498   3.361  12.311  0.6021  0.6914 -0.6122
11579TIP3    H156152   1.428   3.410  12.355 -0.4174 -0.6091 -0.7695
11579TIP3    H256153   1.566   3.353  12.377 -0.7916 -0.9899  0.6584
11580TIP3   OH256154   2.874   0.968   3.818 -0.5516 -0.0556 -0.6308
11580TIP3    H156155   2.945   1.032   3.807  0.7264 -1.1941  0.6829
11580TIP3    H256156   2.901   0.893   3.764 -1.3646 -0.0226 -1.0873
11581TIP3   OH256157   3.093   5.313   3.800 -0.1446  0.6366 -0.2491
11581TIP3    H156158   3.163   5.317   3.865 -0.6758  1.0167  0.3065
11581TIP3    H256159   3.138   5.318   3.715  0.4427  1.6525  0.1146
11582TIP3   OH256160   3.697   0.769   1.753 -0.2360 -0.0733 -0.2225
11582TIP3    H156161   3.610   0.773   1.712 -0.5130  1.9430  0.5297
11582TIP3    H256162   3.702   0.680   1.790 -2.2635  0.0371  0.3664
11583TIP3   OH256163   4.741   6.348  13.451  0.3553 -0.0091  0.4480
11583TIP3    H156164   4.807   6.388  13.508  0.1672  0.7421  0.1486
11583TIP3    H256165   4.789   6.325  13.371  0.8256 -1.9299  1.2424
11584TIP3   OH256166   6.003   0.368   0.459  0.3045  0.1493  0.0982
11584TIP3    H156167   6.057   0.429   0.408  0.3156 -0.5886 -0.7883
11584TIP3    H256168   5.990   0.293   0.401  1.1874 -1.1804  1.5656
11585TIP3   OH256169   4.389   0.476  12.973  0.5004 -0.2080 -0.3529
11585TIP3    H156170   4.403   0.532  12.897  1.1338 -0.2104 -0.2425
11585TIP3    H256171   4.444   0.400  12.957 -1.4640 -1.5020 -1.2056
11586TIP3   OH256172   3.544   4.312   3.467  0.1921 -0.3052 -0.2000
11586TIP3    H156173   3.520   4.339   3.556 -0.5593  1.7182 -0.9905
11586TIP3    H256174   3.640   4.315   3.466  0.1620  1.0874  0.1316
11587TIP3   OH256175   4.586   6.289   1.351  0.5599 -0.0778 -0.0593
11587TIP3    H156176   4.539   6.371   1.335 -1.6926 -0.9690  1.7066
11587TIP3    H256177   4.655   6.313   1.413  0.5671  0.6774 -0.3506
11588TIP3   OH256178   0.883   2.179  17.198 -0.9661  0.0063 -0.3154
11588TIP3    H156179   0.863   2.118  17.269 -1.2238 -0.7416 -1.0245
11588TIP3    H256180   0.977   2.195  17.205 -1.3167  1.5234  1.4423
11589TIP3   OH256181   4.728   4.527   3.012  0.1258  0.8004 -0.5908
11589TIP3    H156182   4.745   4.516   2.919  1.1508  0.1053 -0.3251
11589TIP3    H256183   4.643   4.483   3.025 -0.4553  1.6820 -1.3508
11590TIP3   OH256184   2.635   6.544  15.939 -0.0252  0.9257 -0.2898
11590TIP3    H156185   2.580   6.517  15.865  0.9287  0.3738 -0.8165
11590TIP3    H256186   2.645   6.639  15.928 -0.5703  0.9700 -0.4013
11591TIP3   OH256187   2.472   0.439   2.561 -0.5710  0.4406 -0.2060
11591TIP3    H156188   2.456   0.387   2.482 -0.2650  0.5954 -0.3692
11591TIP3    H256189   2.393   0.491   2.572  1.0729  3.6881 -2.9097
11592TIP3   OH256190   5.236   3.822   4.214 -0.3509 -0.5577 -0.4934
11592TIP3    H156191   5.165   3.766   4.246  1.8169 -2.0573  1.8851
11592TIP3    H256192   5.296   3.830   4.289  2.2017  0.3492 -2.5507
11593TIP3   OH256193   6.265   4.031  16.823 -0.0940 -0.0943  0.0657
11593TIP3    H156194   6.248   4.122  16.849 -1.5341 -0.6958  1.2971
11593TIP3    H256195   6.296   3.989  16.903 -0.8713 -1.0519 -0.1335
11594TIP3   OH256196   4.181   3.232   0.835 -0.1585  0.3653  0.4241
11594TIP3    H156197   4.216   3.300   0.776 -1.7131 -0.1523 -1.1252
11594TIP3    H256198   4.228   3.153   0.810  0.3644  0.4861  1.0141
11595TIP3   OH256199   5.589   1.590  11.339 -0.6306 -0.2406  0.1720
11595TIP3    H156200   5.669   1.598  11.287 -0.5426 -0.5162  0.2628
11595TIP3    H256201   5.541   1.517  11.299 -1.1212  0.3153 -0.2595
11596TIP3   OH256202   0.430   5.275   0.268 -0.1842 -0.2922  0.1334
11596TIP3    H156203   0.356   5.232   0.310  0.7790 -1.6961  0.4087
11596TIP3    H256204   0.400   5.294   0.179 -0.0294 -3.2174 -0.5947
11597TIP3   OH256205   2.294   5.100  16.749  0.2815  0.1033  0.0396
11597TIP3    H156206   2.336   5.017  16.770 -0.3689 -0.6319 -1.4826
11597TIP3    H256207   2.228   5.112  16.818 -0.5882 -1.3587 -0.5062
11598TIP3   OH256208   5.988   6.231   2.299  0.0656 -0.1539  0.3807
11598TIP3    H156209   6.005   6.162   2.364 -0.6207 -0.8224 -0.1354
11598TIP3    H256210   6.071   6.239   2.251  1.0473  1.3598  2.2546
11599TIP3   OH256211   5.615   1.348  10.531 -0.1548 -0.3034  0.0862
11599TIP3    H156212   5.538   1.291  10.535  0.4371 -1.1033  0.0870
11599TIP3    H256213   5.581   1.431  10.499 -0.8175 -1.0168 -1.0972
11600TIP3   OH256214   3.690   6.238   5.724  0.2028 -0.8234 -0.1865
11600TIP3    H156215   3.682   6.307   5.791  0.4525  1.6327 -2.5935
11600TIP3    H256216   3.656   6.160   5.767 -0.3995  0.8474  2.5541
11601TIP3   OH256217   5.272   6.489   0.194  0.0710 -0.1688 -0.1612
11601TIP3    H156218   5.313   6.446   0.119 -0.0070 -1.1136  0.3327
11601TIP3    H256219   5.294   6.582   0.183  2.7592 -0.6882  0.3297
11602TIP3   OH256220   3.328   2.933   1.619  0.0448 -0.1281  0.2512
11602TIP3    H156221   3.278   2.964   1.544 -0.8626  0.1955  0.9745
11602TIP3    H256222   3.391   2.870   1.583 -2.6023 -2.5227 -0.3686
11603TIP3   OH256223   4.072   4.916   0.634 -0.4687  0.1998 -0.3007
11603TIP3    H156224   4.148   4.868   0.667  0.3514  2.1612  0.7546
11603TIP3    H256225   4.013   4.848   0.602  0.6420 -1.5118  1.1678
11604TIP3   OH256226   0.095   1.819  13.230  0.4217  0.4451  0.1187
11604TIP3    H156227   0.087   1.844  13.138 -0.9535 -0.2794  0.0236
11604TIP3    H256228   0.146   1.738  13.228  0.1064  0.2492 -0.0378
11605TIP3   OH256229   0.794   6.626  17.025  0.2129  0.2858 -0.1425
11605TIP3    H156230   0.751   6.555  16.978  1.3638 -0.4858 -0.0716
11605TIP3    H256231   0.887   6.618  17.002  0.2927  2.1209 -0.5773
11606TIP3   OH256232   3.652   6.765  16.896  0.3169 -0.8095 -0.0163
11606TIP3    H156233   3.676   6.780  16.987  2.3025 -0.0714 -0.6397
11606TIP3    H256234   3.585   6.831  16.878 -0.0712 -0.9494  0.8973
11607TIP3   OH256235   3.776   0.535   4.583 -0.6708 -0.0062 -0.0473
11607TIP3    H156236   3.695   0.486   4.571 -0.1835 -0.7405 -0.3826
11607TIP3    H256237   3.774   0.602   4.514 -1.3905  0.5274  0.4845
11608TIP3   OH256238   0.438   2.680   2.264  0.1325  0.2619  0.2022
11608TIP3    H156239   0.412   2.597   2.223  2.7617 -0.5778  0.1672
11608TIP3    H256240   0.450   2.658   2.356 -1.1992  1.1038  0.5889
11609TIP3   OH256241   0.387   0.872  10.884  0.1704 -0.1200 -0.0616
11609TIP3    H156242   0.389   0.961  10.918 -2.3033 -0.5280  1.2837
11609TIP3    H256243   0.310   0.868  10.828  0.0815 -1.4937  0.1211
11610TIP3   OH256244   0.929   6.723  13.220  0.0168  0.0510  0.2137
11610TIP3    H156245   0.955   6.784  13.151  0.5178  0.3478  0.6612
11610TIP3    H256246   0.919   6.639  13.175  0.0355  0.3057 -0.2731
11611TIP3   OH256247   2.087   5.624  16.682 -0.3862 -0.4333 -0.3450
11611TIP3    H156248   2.132   5.599  16.601  0.9683  2.0151 -0.3967
11611TIP3    H256249   2.129   5.572  16.750 -0.1266 -0.9959 -0.9372
11612TIP3   OH256250   2.645   4.460  11.317 -0.4487  0.0669  0.4219
11612TIP3    H156251   2.627   4.493  11.405  0.1798 -1.1702  1.0314
11612TIP3    H256252   2.690   4.531  11.273  0.2459  0.2925  1.4792
11613TIP3   OH256253   1.846   2.413  16.357 -0.4795  0.3752  0.0282
11613TIP3    H156254   1.801   2.334  16.389 -0.7892  0.6641  0.3036
11613TIP3    H256255   1.938   2.398  16.378 -0.5480  0.1169  0.1486
11614TIP3   OH256256   6.425   4.673  16.563  0.1168 -0.2682  0.0169
11614TIP3    H156257   6.409   4.674  16.658  0.5731 -0.2977  0.0969
11614TIP3    H256258   6.338   4.665  16.524 -0.1343  0.4429  0.4172
11615TIP3   OH256259   2.097   4.753   5.042  0.1065 -0.1228  0.7206
11615TIP3    H156260   2.164   4.821   5.035 -0.1384  0.1415  0.8835
11615TIP3    H256261   2.075   4.752   5.135 -1.4438  1.0920  0.3884
11616TIP3   OH256262   3.429   1.472  11.556 -0.1035  0.4065 -0.2866
11616TIP3    H156263   3.370   1.514  11.494 -2.0039  0.5712  1.5750
11616TIP3    H256264   3.501   1.534  11.567 -0.8088  1.3099 -0.7168
11617TIP3   OH256265   5.352   1.955  16.850 -0.7295  0.2227  0.2378
11617TIP3    H156266   5.292   2.028  16.859 -2.7438 -1.4617  1.0380
11617TIP3    H256267   5.315   1.886  16.906  1.0908 -1.4051 -0.4749
11618TIP3   OH256268   1.161   5.880   3.890 -0.1068  0.1417 -0.7752
11618TIP3    H156269   1.079   5.899   3.937 -0.9459 -0.4671 -1.9769
11618TIP3    H256270   1.170   5.952   3.828  0.5032  0.4327 -0.3572
11619TIP3   OH256271   2.405   3.825   0.603 -0.5687  0.1505  0.1366
11619TIP3    H156272   2.499   3.808   0.609 -0.7970 -1.6515 -1.1007
11619TIP3    H256273   2.394   3.867   0.518 -0.9801 -0.4542 -0.1140
11620TIP3   OH256274   1.457   1.094  15.191  0.1792  0.2165  0.6259
11620TIP3    H156275   1.431   1.136  15.273 -1.4617  0.5025 -0.0144
11620TIP3    H256276   1.446   1.162  15.124  0.2403 -0.3874 -0.0083
11621TIP3   OH256277   1.941   2.621  12.095  0.1286 -0.0601  0.1287
11621TIP3    H156278   1.952   2.711  12.124 -1.5700  0.6469 -1.3084
11621TIP3    H256279   1.948   2.568  12.174  1.3138  1.3001  0.9497
11622TIP3   OH256280   6.762   1.505   5.270  0.8280 -0.3981  0.4703
11622TIP3    H156281   6.826   1.486   5.201  0.9097  0.3187  0.3485
11622TIP3    H256282   6.714   1.581   5.238 -0.0984 -0.9298  0.5565
11623TIP3   OH256283   4.652   6.095   5.788 -0.5755 -0.7296 -0.0940
11623TIP3    H156284   4.708   6.170   5.805 -0.9463 -0.6949  1.0503
11623TIP3    H256285   4.653   6.084   5.693 -1.1028  1.1634 -0.3315
11624TIP3   OH256286   5.643   6.650  14.989  0.0955  0.7746 -1.3058
11624TIP3    H156287   5.737   6.662  14.986  0.1671  0.7420  0.3243
11624TIP3    H256288   5.608   6.713  14.925  1.2168  0.5962 -2.0990
11625TIP3   OH256289   4.270   5.073  12.592 -0.0451 -0.8811 -0.1737
11625TIP3    H156290   4.305   5.008  12.531  2.8111 -0.0637  0.5330
11625TIP3    H256291   4.193   5.031  12.630 -1.7107 -1.5595 -4.0283
11626TIP3   OH256292   0.324   4.699   1.843 -0.4251  0.2319  0.5474
11626TIP3    H156293   0.351   4.686   1.934 -0.0530  0.1917  0.4329
11626TIP3    H256294   0.283   4.786   1.842 -1.2214 -0.1387  0.9297
11627TIP3   OH256295   4.344   3.820  16.094 -0.4323  0.8779 -0.0170
11627TIP3    H156296   4.414   3.762  16.064 -0.2330  0.1580  1.7933
11627TIP3    H256297   4.279   3.818  16.024  0.2922 -0.2712 -0.6670
11628TIP3   OH256298   6.647   2.308   5.064 -0.0300  0.3287 -0.1447
11628TIP3    H156299   6.735   2.286   5.092  0.3023  0.9298 -0.7136
11628TIP3    H256300   6.606   2.223   5.044  0.5876  0.0913 -0.3906
11629TIP3   OH256301   0.041   0.978   0.162  0.4681 -0.0424  0.1504
11629TIP3    H156302  -0.042   0.932   0.148 -0.4658  1.1194  1.6886
11629TIP3    H256303   0.028   1.063   0.121  1.1952 -0.1461 -0.2935
11630TIP3   OH256304   4.111   5.724   3.834  0.0071 -0.3062 -0.1920
11630TIP3    H156305   4.043   5.693   3.894  1.0375  0.0531  1.1730
11630TIP3    H256306   4.193   5.697   3.875  0.7924  1.4715 -0.5507
11631TIP3   OH256307   3.516   1.924  14.168  0.0492  0.4532 -0.0497
11631TIP3    H156308   3.498   1.887  14.081  1.2074 -0.8714  0.2565
11631TIP3    H256309   3.607   1.951  14.164 -0.0241  0.8004  0.6151
11632TIP3   OH256310   4.452   0.628   6.587 -0.3960  0.0524  0.0741
11632TIP3    H156311   4.380   0.580   6.546  0.1815 -1.1157  0.3837
11632TIP3    H256312   4.501   0.664   6.513 -0.1331 -0.9075 -0.2396
11633TIP3   OH256313   6.715   0.454   2.498  0.4484 -0.6194  0.4047
11633TIP3    H156314   6.726   0.494   2.584  1.7102 -1.8736  0.8582
11633TIP3    H256315   6.712   0.360   2.516 -4.0894 -0.7628 -0.4405
11634TIP3   OH256316   0.026   6.309   2.759  0.1545  0.0894 -0.0405
11634TIP3    H156317   0.005   6.386   2.706  1.2089  0.0048 -0.6075
11634TIP3    H256318  -0.045   6.247   2.741  0.0104  0.4219 -0.6304
11635TIP3   OH256319   6.001   2.535  13.803  0.1842  0.2577  0.5499
11635TIP3    H156320   5.995   2.553  13.897  1.1806 -0.1636  0.7070
11635TIP3    H256321   5.918   2.566  13.766  0.4262  1.8488  1.3369
11636TIP3   OH256322   5.107   5.753   0.596 -0.3042 -0.1123 -0.4099
11636TIP3    H156323   5.124   5.763   0.503 -0.0132 -0.6983 -0.4208
11636TIP3    H256324   5.117   5.841   0.632  0.4536 -0.0391 -0.7883
11637TIP3   OH256325   0.142   3.185   4.624 -1.0439  0.7870 -0.2453
11637TIP3    H156326   0.060   3.151   4.662 -1.9716  3.2283  0.0102
11637TIP3    H256327   0.160   3.126   4.551 -3.7305  0.9130 -1.0800
11638TIP3   OH256328   0.299   4.697   4.754 -0.2932 -0.5735 -0.1420
11638TIP3    H156329   0.258   4.670   4.672 -0.0477 -0.0302 -0.4437
11638TIP3    H256330   0.258   4.780   4.776  0.5984 -0.0436 -0.4263
11639TIP3   OH256331   2.297   5.791   3.989 -0.3337 -0.3317  0.5356
11639TIP3    H156332   2.363   5.772   3.922 -0.8115  0.5289 -0.1847
11639TIP3    H256333   2.320   5.879   4.020 -0.2135 -0.6604  1.3932
11640TIP3   OH256334   5.695   2.495   6.205  0.5233  0.0041 -0.2238
11640TIP3    H156335   5.778   2.521   6.244  0.6159 -0.1363 -0.3284
11640TIP3    H256336   5.664   2.573   6.158  0.4001  0.1796  0.1512
11641TIP3   OH256337   5.780   2.631   3.656  0.0939 -0.5400 -0.4044
11641TIP3    H156338   5.764   2.656   3.747 -0.4136 -2.0311 -0.0747
11641TIP3    H256339   5.773   2.713   3.607 -2.7776 -0.2161  0.4864
11642TIP3   OH256340   4.783   4.624   2.209 -0.6761  0.1236 -0.1137
11642TIP3    H156341   4.844   4.553   2.192 -0.5779  0.6133 -1.8865
11642TIP3    H256342   4.827   4.678   2.275  0.4992  0.0884 -0.8559
11643TIP3   OH256343   3.247   3.063  12.400  0.2500  0.4855 -0.6389
11643TIP3    H156344   3.322   3.044  12.456  0.2684  0.3884 -0.6979
11643TIP3    H256345   3.261   3.009  12.323  0.6117  1.1786 -1.0665
11644TIP3   OH256346   6.698   5.370  13.236  0.2731 -0.5580  0.2952
11644TIP3    H156347   6.675   5.277  13.247 -1.6254 -0.1842 -0.2367
11644TIP3    H256348   6.724   5.399  13.323 -0.6122 -1.2207  0.7859
11645TIP3   OH256349   1.618   6.620   5.194 -0.4752 -0.4034  0.2119
11645TIP3    H156350   1.586   6.710   5.199 -0.3838 -0.4458  1.6396
11645TIP3    H256351   1.703   6.622   5.237 -0.0454 -0.9852 -0.6007
11646TIP3   OH256352   4.828   1.312   5.486  0.7631 -0.2314  0.2094
11646TIP3    H156353   4.796   1.336   5.399  0.6246  0.2775  0.3979
11646TIP3    H256354   4.857   1.221   5.477 -1.7348 -1.0612  0.2944
11647TIP3   OH256355   0.323   5.033  11.441 -0.3680 -0.3140  0.1593
11647TIP3    H156356   0.324   4.937  11.438 -0.2938 -0.4012  2.0825
11647TIP3    H256357   0.297   5.060  11.353 -3.7909 -2.1638  0.5167
11648TIP3   OH256358   0.893   4.062  14.220 -0.0729  0.4488  0.3916
11648TIP3    H156359   0.971   4.079  14.167  1.5191 -1.4833  2.0442
11648TIP3    H256360   0.822   4.055  14.156  1.3304  0.9014 -1.2514
11649TIP3   OH256361   6.514   5.084   5.250 -0.2739 -0.8052 -0.3102
11649TIP3    H156362   6.508   5.033   5.331  0.7822  0.1102  0.3399
11649TIP3    H256363   6.560   5.164   5.274 -0.4090 -0.2889 -1.7056
11650TIP3   OH256364   4.910   4.129  16.564 -0.5242 -0.3528 -0.4704
11650TIP3    H156365   4.922   4.083  16.480  1.0556 -0.0446 -0.4332
11650TIP3    H256366   4.898   4.059  16.628  0.5974 -0.6786 -0.6091
11651TIP3   OH256367   1.608   0.928   2.837  0.4149  0.0682  0.1206
11651TIP3    H156368   1.660   0.929   2.756 -0.1029  0.4269 -0.2153
11651TIP3    H256369   1.536   0.868   2.818  1.7975 -2.0388  1.2984
11652TIP3   OH256370   5.839   4.623   0.014  0.3677 -0.0741 -0.7548
11652TIP3    H156371   5.921   4.658   0.049 -0.1399  1.4073 -1.0056
11652TIP3    H256372   5.856   4.531  -0.001  1.6656  0.0070  0.1885
11653TIP3   OH256373   2.359   5.721  13.689  0.1360  0.3926 -0.2523
11653TIP3    H156374   2.272   5.690  13.715 -0.4656  0.8437 -1.6644
11653TIP3    H256375   2.342   5.786  13.621  1.6116 -0.0264 -1.0466
11654TIP3   OH256376   0.752   0.021   6.208  0.3614 -0.5268  0.4322
11654TIP3    H156377   0.732   0.105   6.250 -0.6787 -1.1217  1.1357
11654TIP3    H256378   0.669  -0.008   6.170  0.3532 -1.9797  1.5264
11655TIP3   OH256379   1.025   0.469   5.834 -0.0200  0.6261  0.6160
11655TIP3    H156380   1.113   0.438   5.857 -0.5342 -2.0358 -0.9160
11655TIP3    H256381   1.041   0.540   5.772  1.0378 -0.2753 -0.1641
11656TIP3   OH256382   3.763   6.632   3.337  0.1862 -0.2322 -0.7921
11656TIP3    H156383   3.833   6.567   3.334  0.1713 -0.2789 -0.1563
11656TIP3    H256384   3.779   6.688   3.261  1.1657  0.0254 -0.4039
11657TIP3   OH256385   2.472   2.385  11.261  0.3144  0.1999 -0.3776
11657TIP3    H156386   2.520   2.435  11.195 -0.4182  0.9395 -0.3624
11657TIP3    H256387   2.423   2.320  11.211  0.5531  0.0941 -0.4768
11658TIP3   OH256388   3.657   5.498   3.759  0.0016 -0.2977 -0.0977
11658TIP3    H156389   3.717   5.537   3.823  2.3203 -0.9108 -1.8026
11658TIP3    H256390   3.653   5.406   3.785 -1.0425 -0.0572  0.6215
11659TIP3   OH256391   2.074   5.966   1.811  0.5863 -0.3087  0.0026
11659TIP3    H156392   2.136   5.933   1.876  2.2617 -0.6270 -1.7000
11659TIP3    H256393   2.019   5.891   1.789  1.3772 -0.7590 -0.4618
11660TIP3   OH256394   6.003   3.598   0.662 -0.2800  0.0811 -0.2714
11660TIP3    H156395   5.931   3.653   0.693  1.3233  1.7280  0.6689
11660TIP3    H256396   5.962   3.534   0.604 -2.5539  0.6303  0.6962
11661TIP3   OH256397   6.159   2.937  10.520 -0.5385 -0.1308 -0.1134
11661TIP3    H156398   6.208   3.008  10.478 -0.1469 -0.1301  0.3314
11661TIP3    H256399   6.105   2.981  10.585  0.8273 -0.3641  1.2162
11662TIP3   OH256400   3.226   5.758   1.627 -0.0892 -0.1108  0.1212
11662TIP3    H156401   3.293   5.724   1.568  0.1782 -0.5415  0.6669
11662TIP3    H256402   3.181   5.679   1.659 -0.8235  0.1693 -0.1971
11663TIP3   OH256403   0.099   3.302   2.057  0.6165 -0.2243 -0.4432
11663TIP3    H156404   0.187   3.266   2.052 -0.4181 -2.9142 -0.1373
11663TIP3    H256405   0.108   3.383   2.106  3.0851  0.1430 -1.4576
11664TIP3   OH256406   3.656   4.024   3.454  0.2850  0.0643 -0.6541
11664TIP3    H156407   3.649   3.929   3.448 -2.3317  0.1723  0.1046
11664TIP3    H256408   3.750   4.041   3.451  0.7589 -2.4763 -1.5901
11665TIP3   OH256409   6.047   5.104   4.113  0.1294  0.2853 -0.1658
11665TIP3    H156410   6.120   5.142   4.064  0.0324  0.3065 -0.2929
11665TIP3    H256411   6.012   5.037   4.056 -0.5828  0.9562 -0.5236
11666TIP3   OH256412   3.697   0.692   0.750  0.5822 -0.5776 -0.0713
11666TIP3    H156413   3.742   0.777   0.747  0.0420 -0.3013 -0.5216
11666TIP3    H256414   3.671   0.683   0.842  0.4786 -0.1590 -0.0550
11667TIP3   OH256415   0.838   1.089   5.786 -0.7951  0.1386  0.1988
11667TIP3    H156416   0.932   1.107   5.793 -0.8935  0.4837  0.6272
11667TIP3    H256417   0.798   1.175   5.770 -1.1659  0.1810  1.3058
11668TIP3   OH256418   4.838   2.529  16.476  0.2112  0.0314 -0.1857
11668TIP3    H156419   4.866   2.566  16.559  0.9965 -1.2514  0.1336
11668TIP3    H256420   4.853   2.599  16.412  1.7610  0.2357  0.3897
11669TIP3   OH256421   4.774   3.571   1.896 -0.5310  0.1912 -0.5020
11669TIP3    H156422   4.713   3.596   1.827  0.5581 -1.1267 -1.9900
11669TIP3    H256423   4.825   3.650   1.913 -0.7853  0.5226 -1.2426
11670TIP3   OH256424   2.782   6.784   2.326  0.1987  0.5131  0.0652
11670TIP3    H156425   2.739   6.701   2.348 -1.4554  0.6738 -2.3452
11670TIP3    H256426   2.821   6.768   2.240  0.1704  2.1213 -0.2485
11671TIP3   OH256427   0.550   4.047   5.140  0.9378 -0.7247 -0.0016
11671TIP3    H156428   0.622   4.028   5.201  0.6285  0.1619  0.6482
11671TIP3    H256429   0.533   4.140   5.152 -1.6785 -1.3357  1.3081
11672TIP3   OH256430   1.078   1.704  11.894 -0.3641 -0.0755 -0.2159
11672TIP3    H156431   1.049   1.795  11.900  0.5785  0.1722  0.6782
11672TIP3    H256432   1.007   1.653  11.932  0.5988  0.5673  2.5246
11673TIP3   OH256433   4.552   4.506  12.599  0.5591  0.9268  0.3680
11673TIP3    H156434   4.525   4.463  12.680  0.4322 -1.4301 -0.8773
11673TIP3    H256435   4.521   4.597  12.608 -1.0396  0.2354  2.1855
11674TIP3   OH256436   3.428   5.230   0.251 -0.1544  0.2238 -0.4903
11674TIP3    H156437   3.437   5.206   0.344  0.6389 -1.1391 -0.8968
11674TIP3    H256438   3.416   5.325   0.252  0.9772  0.3815  0.9394
11675TIP3   OH256439   2.906   0.374   6.465  0.1425  0.0529 -0.3935
11675TIP3    H156440   2.901   0.435   6.539  2.0010 -0.8177  0.5211
11675TIP3    H256441   2.818   0.370   6.430 -1.0130 -0.2380  2.4160
11676TIP3   OH256442   3.047   3.599  12.378  0.3044 -0.7320 -0.6183
11676TIP3    H156443   3.002   3.650  12.446  0.5125 -0.9567 -0.3114
11676TIP3    H256444   3.093   3.530  12.426 -0.8553 -1.8702 -1.1183
11677TIP3   OH256445   0.482   0.586   6.109 -0.7470 -0.2278 -0.2427
11677TIP3    H156446   0.457   0.522   6.044 -0.6453 -0.4241 -0.0891
11677TIP3    H256447   0.411   0.650   6.109 -1.1213 -0.6406  0.0102
11678TIP3   OH256448   6.603   1.378  16.105 -0.0108 -0.7427  0.0146
11678TIP3    H156449   6.587   1.295  16.060 -0.9839  0.1386 -1.3141
11678TIP3    H256450   6.691   1.404  16.075  0.3226 -1.3090  0.4836
11679TIP3   OH256451   6.645   1.748  14.910  0.4561 -0.6546 -0.3018
11679TIP3    H156452   6.675   1.752  14.819  0.9660 -1.3143 -0.1700
11679TIP3    H256453   6.654   1.655  14.934 -2.4085 -1.0114 -0.4858
11680TIP3   OH256454   5.918   5.965   1.701 -0.2763  0.3914  0.3059
11680TIP3    H156455   5.906   6.038   1.762  2.1568  1.3184 -0.2917
11680TIP3    H256456   5.864   5.895   1.737 -0.1156  1.4371  2.6435
11681TIP3   OH256457   0.463   5.914   0.363 -0.8056 -0.2870 -0.3757
11681TIP3    H156458   0.424   5.983   0.416 -0.4101 -0.9669  0.8420
11681TIP3    H256459   0.390   5.856   0.342 -1.1397  0.4913 -1.4085
11682TIP3   OH256460   3.077   0.082  15.691  0.6426  0.0326 -0.5947
11682TIP3    H156461   2.995   0.034  15.679  0.8129 -0.4473  0.1544
11682TIP3    H256462   3.141   0.016  15.715  0.8378  0.6453  0.6426
11683TIP3   OH256463   1.048   5.489   2.636 -0.1494 -0.0165  0.3231
11683TIP3    H156464   0.978   5.555   2.638 -0.3643 -0.2714  2.5692
11683TIP3    H256465   1.047   5.456   2.546 -1.9973  0.9710 -0.0537
11684TIP3   OH256466   3.382   3.880   1.067  0.2802  0.3878  0.8609
11684TIP3    H156467   3.345   3.797   1.036  2.0055  0.0720 -0.4346
11684TIP3    H256468   3.308   3.939   1.073 -0.9810 -1.2572  1.8224
11685TIP3   OH256469   3.709   1.502  14.575 -0.1510  0.2118  0.3346
11685TIP3    H156470   3.798   1.530  14.551 -0.8009  1.9992 -0.0441
11685TIP3    H256471   3.684   1.442  14.505  0.7876 -0.3789  0.4880
11686TIP3   OH256472   3.595   2.601   2.205  0.7363 -0.4682  0.0777
11686TIP3    H156473   3.560   2.686   2.233 -0.8000 -1.5520  1.5289
11686TIP3    H256474   3.540   2.575   2.131  1.4959 -0.0108 -0.6606
11687TIP3   OH256475   0.723   3.961   3.275  0.2921  0.4476  0.0658
11687TIP3    H156476   0.674   3.944   3.356  0.4749  2.0238  0.5304
11687TIP3    H256477   0.698   3.890   3.216 -1.2970  0.3319  0.8558
11688TIP3   OH256478   0.855   3.429  16.417  0.1490 -1.4126 -0.1257
11688TIP3    H156479   0.879   3.415  16.508 -0.6483 -0.0552  0.2947
11688TIP3    H256480   0.938   3.424  16.370  0.6565 -1.4024  0.7567
11689TIP3   OH256481   6.774   0.152  14.378 -0.3276  0.0080  0.2484
11689TIP3    H156482   6.830   0.157  14.300 -1.0032 -0.8848 -0.2891
11689TIP3    H256483   6.699   0.208  14.357  0.0294  0.6714  0.7093
11690TIP3   OH256484   3.414   0.554  14.902 -0.8099 -0.2493 -0.0194
11690TIP3    H156485   3.319   0.566  14.908 -0.3816  2.8593  1.0826
11690TIP3    H256486   3.451   0.632  14.943  2.2630 -3.2481  3.2385
11691TIP3   OH256487   5.671   4.301  11.340 -0.0346  0.0390  0.1020
11691TIP3    H156488   5.689   4.376  11.397 -1.8828  1.0907 -0.6652
11691TIP3    H256489   5.594   4.259  11.377  0.5865 -1.1082  0.1352
11692TIP3   OH256490   6.621   3.080  13.927  0.5640  0.3616 -0.1181
11692TIP3    H156491   6.714   3.097  13.911  0.5926  1.3924  1.0855
11692TIP3    H256492   6.602   3.125  14.009 -1.0809  0.4060 -0.5052
11693TIP3   OH256493   1.320   6.120  14.303 -0.0963  0.3932  0.2611
11693TIP3    H156494   1.306   6.113  14.398 -1.1469 -0.0881  0.0764
11693TIP3    H256495   1.383   6.051  14.283 -1.1036 -0.5684  0.3617
11694TIP3   OH256496   2.343   5.726   2.676  0.2793 -0.1849 -0.0970
11694TIP3    H156497   2.356   5.706   2.768  0.4238  1.4923  0.2639
11694TIP3    H256498   2.274   5.665   2.648  0.9062 -1.3570  0.8565
11695TIP3   OH256499   0.769   3.803  15.332 -0.1647  0.3190  0.4166
11695TIP3    H156500   0.709   3.854  15.387 -1.3256  1.3618 -1.7293
11695TIP3    H256501   0.739   3.713  15.340 -2.8681  0.9739 -1.5738
11696TIP3   OH256502   2.276   4.026  15.547  0.1815  0.4839  0.3078
11696TIP3    H156503   2.211   4.006  15.615 -0.6184  1.3267 -0.1875
11696TIP3    H256504   2.242   4.105  15.505  1.4084  0.7839 -0.1318
11697TIP3   OH256505   2.369   6.646   0.289 -0.4704  0.8908 -0.2088
11697TIP3    H156506   2.392   6.556   0.268  1.7632  1.4858 -0.3858
11697TIP3    H256507   2.435   6.699   0.245 -2.0046  2.6567 -0.4731
11698TIP3   OH256508   2.354   5.025  11.846 -1.0730  0.1754 -0.0831
11698TIP3    H156509   2.348   5.038  11.751  1.3706 -0.5751 -0.3815
11698TIP3    H256510   2.442   5.056  11.868 -0.9561 -1.3515  1.6405
11699TIP3   OH256511   4.836   0.720  15.938  0.3225 -0.6206 -0.4333
11699TIP3    H156512   4.859   0.804  15.897  1.1384  0.2769  1.7555
11699TIP3    H256513   4.749   0.700  15.904 -0.5324  1.8972  0.1473
11700TIP3   OH256514   0.953   5.657  12.844  0.0884  0.0894  0.1897
11700TIP3    H156515   0.986   5.613  12.922 -0.7352 -0.1905  0.3866
11700TIP3    H256516   0.862   5.628  12.836 -0.4614  1.6885  0.2901
11701TIP3   OH256517   6.253   5.980   5.357  0.4364  0.2971 -0.5558
11701TIP3    H156518   6.217   6.069   5.366  0.0485  0.1615 -0.7737
11701TIP3    H256519   6.293   5.979   5.270  0.5220  0.2830 -0.5174
11702TIP3   OH256520   4.922   5.296   1.888 -0.5774  0.2711 -0.0030
11702TIP3    H156521   4.891   5.373   1.841  0.5833 -0.2988 -1.7571
11702TIP3    H256522   4.935   5.230   1.820 -2.6368 -1.8725  1.5937
11703TIP3   OH256523   4.231   0.144   4.536 -0.3322  0.0839  0.6368
11703TIP3    H156524   4.212   0.237   4.523  2.0364  0.5684  0.4399
11703TIP3    H256525   4.227   0.131   4.631  0.3438  0.6304  0.7454
11704TIP3   OH256526   1.036   6.572  16.938  0.0151  0.3090  0.0193
11704TIP3    H156527   1.027   6.487  16.895  0.0897  0.1454  0.3259
11704TIP3    H256528   1.128   6.575  16.967  0.5695  1.3300 -1.7455
11705TIP3   OH256529   1.588   1.116   0.600 -0.0366  0.4731  0.2468
11705TIP3    H156530   1.640   1.036   0.606 -1.0278 -0.2339 -0.5122
11705TIP3    H256531   1.652   1.185   0.579  0.3708 -0.6663 -2.3485
11706TIP3   OH256532   3.687   2.351  15.111 -0.5718 -0.1071 -0.8364
11706TIP3    H156533   3.764   2.349  15.055 -1.1363  2.6502 -1.8100
11706TIP3    H256534   3.644   2.267  15.097  2.4221 -1.8508  0.0302
11707TIP3   OH256535   0.409   0.025   2.159  0.5260  0.3101 -0.8832
11707TIP3    H156536   0.450   0.087   2.100  1.0290 -0.7010 -1.6154
11707TIP3    H256537   0.315   0.034   2.143  0.7704 -2.8075 -4.8709
11708TIP3   OH256538   6.637   0.418  13.880  0.1785 -0.4508 -0.4753
11708TIP3    H156539   6.642   0.500  13.927 -0.3745 -1.7441  1.9191
11708TIP3    H256540   6.727   0.389  13.872  0.4483  0.7899 -2.0965
11709TIP3   OH256541   2.993   0.428   1.870  0.6412  0.0578  0.2535
11709TIP3    H156542   2.936   0.500   1.842  1.1683  0.0665 -0.8494
11709TIP3    H256543   3.064   0.470   1.918 -0.2860  0.0439  1.6584
11710TIP3   OH256544   3.622   4.009   1.018 -0.1512 -0.1422 -0.2353
11710TIP3    H156545   3.533   3.984   1.041  0.0939 -0.4115  0.4245
11710TIP3    H256546   3.668   4.015   1.102  0.2923  0.5960 -0.5292
11711TIP3   OH256547   1.879   2.939   0.908  0.1613  0.2651 -0.7786
11711TIP3    H156548   1.871   2.964   0.816  1.2787 -0.3370 -1.0556
11711TIP3    H256549   1.833   3.008   0.956  1.5072  1.8117 -1.6418
11712TIP3   OH256550   5.769   0.950   0.467 -0.1215 -0.1658 -0.0147
11712TIP3    H156551   5.850   0.901   0.455 -0.2509 -0.7690  1.4150
11712TIP3    H256552   5.730   0.913   0.546 -0.9202  1.2914  0.3075
11713TIP3   OH256553   4.558   5.459   0.854 -0.4457 -0.8156  0.1256
11713TIP3    H156554   4.622   5.486   0.789  0.0133 -0.6926  0.6222
11713TIP3    H256555   4.475   5.452   0.806 -0.2073 -0.2609 -0.3622
11714TIP3   OH256556   5.046   3.749  13.588  0.2899 -0.6582  0.3852
11714TIP3    H156557   5.128   3.723  13.628  1.1726  1.1803 -0.1939
11714TIP3    H256558   5.058   3.730  13.494  0.0347 -0.4241  0.3048
11715TIP3   OH256559   1.439   0.123  11.903  0.0468 -0.6519 -0.6568
11715TIP3    H156560   1.461   0.215  11.917  0.1476 -0.8011  0.2053
11715TIP3    H256561   1.418   0.117  11.810 -0.3180  0.3184 -0.6411
11716TIP3   OH256562   5.163   3.310   3.967 -0.8473  0.1173 -0.6977
11716TIP3    H156563   5.104   3.351   4.030 -0.8403 -0.2043 -0.4821
11716TIP3    H256564   5.244   3.361   3.972 -1.2024  0.7428 -1.2037
11717TIP3   OH256565   0.819   4.614  12.611  0.4782 -0.0546  0.2374
11717TIP3    H156566   0.899   4.579  12.650  0.5923  0.3768  0.3930
11717TIP3    H256567   0.801   4.693  12.662  0.3404  0.2292 -0.2547
11718TIP3   OH256568   2.285   2.030  15.748  0.4221 -0.0997  0.1153
11718TIP3    H156569   2.333   2.014  15.829  0.4959  1.1366  0.3214
11718TIP3    H256570   2.353   2.032  15.680  0.6768  1.6413  0.4065
11719TIP3   OH256571   3.764   0.864   2.185 -0.1769 -0.2127  0.1374
11719TIP3    H156572   3.702   0.798   2.214 -0.0110 -1.4250 -2.1394
11719TIP3    H256573   3.843   0.815   2.162  1.5648  1.2770  2.7318
11720TIP3   OH256574   1.326   2.590   3.528 -0.2377 -0.0131 -0.0613
11720TIP3    H156575   1.379   2.591   3.448  0.4125 -0.0760  0.3599
11720TIP3    H256576   1.256   2.528   3.510 -0.1495  0.0426 -0.6158
11721TIP3   OH256577   4.954   1.226   2.980  0.1169  0.1384 -0.2489
11721TIP3    H156578   5.007   1.211   3.058  1.1170 -0.5178 -1.0333
11721TIP3    H256579   4.864   1.209   3.007  0.5634 -1.0057  0.5126
11722TIP3   OH256580   1.187   0.153  12.131  0.2455 -0.3036  0.0772
11722TIP3    H156581   1.159   0.072  12.088 -4.0316  1.0562  0.0541
11722TIP3    H256582   1.212   0.211  12.059 -0.4953 -0.3050 -0.1918
11723TIP3   OH256583   5.436   5.172   4.607  0.2657  0.0062  0.4450
11723TIP3    H156584   5.522   5.212   4.614  0.3116  0.3377 -1.7392
11723TIP3    H256585   5.374   5.242   4.628  0.4933 -0.0954  1.4807
11724TIP3   OH256586   1.353   0.664  16.966  0.6030 -0.0162 -0.3793
11724TIP3    H156587   1.261   0.689  16.970  0.6579  0.4672 -1.8080
11724TIP3    H256588   1.401   0.745  16.985  0.7392 -0.0231 -0.6863
11725TIP3   OH256589   2.644   3.646   0.114  0.5703  0.7126 -0.1227
11725TIP3    H156590   2.687   3.568   0.079  0.1873  1.0386 -1.3428
11725TIP3    H256591   2.641   3.632   0.208  1.9774 -0.0027 -0.1805
11726TIP3   OH256592   3.858   5.105  13.298 -0.8809 -0.4379  0.1114
11726TIP3    H156593   3.890   5.053  13.372 -0.3008 -0.5260 -0.1988
11726TIP3    H256594   3.860   5.195  13.329  0.2646 -0.3809 -0.1182
11727TIP3   OH256595   2.190   3.659   1.315 -0.0811 -0.1428 -0.2082
11727TIP3    H156596   2.169   3.655   1.222  0.6236  0.5098 -0.3964
11727TIP3    H256597   2.180   3.751   1.338  0.5144 -0.1788  0.1824
11728TIP3   OH256598   5.042   1.879  12.136  0.3953  0.0351 -0.8094
11728TIP3    H156599   5.023   1.960  12.183 -1.2065 -1.4552  1.1769
11728TIP3    H256600   5.084   1.908  12.055 -0.9898  2.8904 -0.5576
11729TIP3   OH256601   5.980   4.114  14.118  0.0394 -0.0342  0.0264
11729TIP3    H156602   6.058   4.157  14.151  0.8033 -1.0233 -0.4418
11729TIP3    H256603   5.907   4.162  14.157  0.8882 -0.2773  1.9689
11730TIP3   OH256604   0.274   1.015  13.949 -0.0496 -0.8301  0.0466
11730TIP3    H156605   0.249   0.976  13.866 -0.4426  0.4509 -0.4471
11730TIP3    H256606   0.354   1.064  13.930 -0.1361 -0.5402  0.4269
11731TIP3   OH256607   2.477   4.876   3.486 -0.2745  0.4378  0.5818
11731TIP3    H156608   2.440   4.872   3.574  1.0884 -0.1327  1.1487
11731TIP3    H256609   2.492   4.785   3.462  0.7498  0.6545  0.3651
11732TIP3   OH256610   3.488   1.324   5.302 -0.4298  0.3367 -0.0818
11732TIP3    H156611   3.466   1.306   5.211  0.6497  0.5163 -0.3877
11732TIP3    H256612   3.508   1.418   5.304 -1.2425  0.5056  0.5097
11733TIP3   OH256613   6.168   1.678  10.489 -0.0024 -0.5152  0.2370
11733TIP3    H156614   6.235   1.736  10.452  0.7816  0.3245  2.8469
11733TIP3    H256615   6.201   1.590  10.473 -0.4471 -0.2531 -2.3821
11734TIP3   OH256616   1.841   3.664  11.290 -0.1121  0.1694 -0.5792
11734TIP3    H156617   1.857   3.570  11.280 -2.7543 -0.3757 -0.1280
11734TIP3    H256618   1.880   3.704  11.213  0.6803 -1.3384 -0.9818
11735TIP3   OH256619   1.602   6.456  11.249 -0.4438 -0.5172 -0.4506
11735TIP3    H156620   1.581   6.393  11.180 -2.8720 -0.0592 -0.1507
11735TIP3    H256621   1.571   6.540  11.215  1.1842  0.2560 -0.1056
11736TIP3   OH256622   0.961   1.162  13.881 -0.0895 -0.1999 -0.1534
11736TIP3    H156623   0.948   1.233  13.944  0.9593 -2.5830  2.8650
11736TIP3    H256624   1.056   1.154  13.872 -0.1878 -1.1951 -0.4638
11737TIP3   OH256625   0.723   0.424   6.504  0.5013  1.1272  0.5850
11737TIP3    H156626   0.673   0.389   6.578  1.8768  2.2584  2.0859
11737TIP3    H256627   0.684   0.383   6.427 -1.1754  0.1721  1.9097
11738TIP3   OH256628   3.165   6.446  13.160 -0.3817  0.2697  0.0618
11738TIP3    H156629   3.091   6.386  13.156 -0.1462  0.0888 -4.2213
11738TIP3    H256630   3.241   6.392  13.143  0.4586  0.9343  1.6093
11739TIP3   OH256631   3.852   0.623   2.356  0.0362  0.3978 -0.4302
11739TIP3    H156632   3.786   0.581   2.410 -0.0813 -0.1331 -0.9813
11739TIP3    H256633   3.906   0.551   2.323 -0.8407  0.5469 -2.2772
11740TIP3   OH256634   2.897   0.580  15.046 -0.0499 -0.4457  0.2191
11740TIP3    H156635   2.858   0.512  14.991 -1.6035 -0.6784  1.5607
11740TIP3    H256636   2.897   0.542  15.134  0.6240  0.6564  0.7076
11741TIP3   OH256637   2.959   1.800   0.970 -0.1631 -0.2374 -0.2097
11741TIP3    H156638   2.944   1.766   0.881 -1.0651  1.1199 -0.5829
11741TIP3    H256639   3.020   1.872   0.958 -0.7273  0.3124  0.2056
11742TIP3   OH256640   3.460   6.585   1.298 -0.5992  0.4586  0.3780
11742TIP3    H156641   3.445   6.604   1.206  0.9038  0.7395  0.1913
11742TIP3    H256642   3.465   6.671   1.340  0.1836  0.3543  0.4930
11743TIP3   OH256643   5.277   1.768   1.261  0.3014 -0.1966  0.1383
11743TIP3    H156644   5.297   1.721   1.180 -1.4553  2.1654 -1.6998
11743TIP3    H256645   5.312   1.856   1.248 -1.0389  0.5604  1.4839
11744TIP3   OH256646   4.456   2.217  16.740  0.2248 -0.4578 -0.1999
11744TIP3    H156647   4.373   2.236  16.784  0.6594 -0.0750  0.4727
11744TIP3    H256648   4.454   2.122  16.725  0.9392 -0.9672  2.5442
11745TIP3   OH256649   1.366   0.377   0.982  0.1315 -0.1706 -0.0414
11745TIP3    H156650   1.353   0.421   0.898 -0.2614 -0.8404 -0.3393
11745TIP3    H256651   1.349   0.444   1.048 -0.3135  0.1623 -0.4905
11746TIP3   OH256652   0.224   0.433   4.982  0.2527 -0.1827 -0.1161
11746TIP3    H156653   0.171   0.459   4.906  0.5650 -1.1138 -0.6544
11746TIP3    H256654   0.226   0.338   4.979 -0.9447 -0.3184  1.8859
11747TIP3   OH256655   0.637   2.661  11.971  0.1062 -0.4485  0.4802
11747TIP3    H156656   0.708   2.676  11.909  0.9953 -0.9034  1.3557
11747TIP3    H256657   0.632   2.566  11.978 -2.1336 -0.4922 -1.2883
11748TIP3   OH256658   1.983   6.154  11.042 -0.3235  0.7058  0.1076
11748TIP3    H156659   2.020   6.143  10.955 -1.2645  1.3528 -0.3782
11748TIP3    H256660   2.037   6.221  11.083  0.6722 -0.2211  0.3589
11749TIP3   OH256661   3.941   5.206   0.099 -0.7184 -0.0391 -0.2631
11749TIP3    H156662   3.984   5.265   0.160  0.3886 -0.4627 -0.6220
11749TIP3    H256663   3.853   5.241   0.089 -0.5294  0.7069  0.6570
11750TIP3   OH256664   4.503   1.923   3.609 -0.1384 -0.0929 -0.1898
11750TIP3    H156665   4.441   1.854   3.632  0.0058 -0.3444 -0.5313
11750TIP3    H256666   4.513   1.915   3.514  0.8640 -0.4436 -0.0616
11751TIP3   OH256667   4.843   6.410   5.438  0.6758  0.2323  0.2698
11751TIP3    H156668   4.870   6.449   5.355 -0.3158  1.1521  0.3707
11751TIP3    H256669   4.916   6.353   5.462  0.8549 -0.2483 -1.3551
11752TIP3   OH256670   0.105   3.824  15.631 -0.6186 -0.2766 -0.3544
11752TIP3    H156671   0.119   3.917  15.650 -2.5749 -0.4361  2.1516
11752TIP3    H256672   0.151   3.778  15.702 -0.8602 -1.1885 -0.7798
11753TIP3   OH256673   0.935   3.466   1.309 -1.2204  0.2888 -0.0800
11753TIP3    H156674   0.999   3.424   1.252 -0.8820  1.3612 -0.4928
11753TIP3    H256675   0.894   3.533   1.255 -0.3460  1.8483  1.1539
11754TIP3   OH256676   5.532   4.675   0.347 -0.1852 -0.1439  0.4753
11754TIP3    H156677   5.454   4.682   0.292 -0.2918  0.4264  0.6964
11754TIP3    H256678   5.585   4.751   0.325  1.0714 -1.3732 -0.8359
11755TIP3   OH256679   1.820   4.009  14.610 -0.2964  0.6836  0.0868
11755TIP3    H156680   1.814   3.979  14.701 -0.5162 -2.3362 -0.8761
11755TIP3    H256681   1.761   3.951  14.562  1.6551  0.6921 -2.3835
11756TIP3   OH256682   4.880   0.378   0.724  0.3480  0.6433  0.0369
11756TIP3    H156683   4.820   0.348   0.793  1.4783  0.8979  1.1532
11756TIP3    H256684   4.823   0.421   0.660 -0.7030  0.6233  0.9344
11757TIP3   OH256685   2.758   0.398   4.151 -0.5380 -0.1824  0.0329
11757TIP3    H156686   2.781   0.477   4.102 -1.5331 -1.1850 -2.1505
11757TIP3    H256687   2.724   0.430   4.234  2.7213  1.5187  0.7947
11758TIP3   OH256688   2.623   2.163  13.046 -0.3616  0.1672  0.1551
11758TIP3    H156689   2.643   2.198  13.133  0.0067 -1.7377  0.8646
11758TIP3    H256690   2.672   2.081  13.042  0.7674  0.9088 -2.4221
11759TIP3   OH256691   4.083   6.238   5.780 -0.3994  0.0799 -0.5129
11759TIP3    H156692   4.155   6.228   5.842 -1.4319 -1.2260  0.4957
11759TIP3    H256693   4.022   6.299   5.823 -0.0487  0.9595 -1.2416
11760TIP3   OH256694   6.314   6.311   3.750 -0.0015  0.1173 -1.0544
11760TIP3    H156695   6.330   6.238   3.809  0.9235 -0.0780 -1.5384
11760TIP3    H256696   6.270   6.273   3.674 -2.0687  0.5187 -0.1017
11761TIP3   OH256697   6.526   6.201  16.006 -0.0173  0.1878 -0.2300
11761TIP3    H156698   6.612   6.217  15.969  0.1871 -0.1196  0.1143
11761TIP3    H256699   6.465   6.236  15.941  0.3157 -1.2271 -1.3150
11762TIP3   OH256700   2.885   1.400  14.796 -0.1215 -0.8379 -0.2502
11762TIP3    H156701   2.878   1.305  14.804  2.1147 -1.0397 -0.3582
11762TIP3    H256702   2.918   1.415  14.707  1.5059 -0.1121  0.4426
11763TIP3   OH256703   6.543   4.636  16.333 -0.3253  0.4917  0.0890
11763TIP3    H156704   6.492   4.699  16.282 -0.2929  0.8672  0.5090
11763TIP3    H256705   6.512   4.648  16.423  0.4255  0.6664  0.3347
11764TIP3   OH256706   0.272   4.307  12.177  0.4147 -0.6970 -0.3874
11764TIP3    H156707   0.195   4.359  12.157  0.8684  0.7353  1.4522
11764TIP3    H256708   0.317   4.356  12.246  3.5324 -0.9606 -2.1374
11765TIP3   OH256709   0.212   0.540  12.327  0.2503 -0.2765  0.4663
11765TIP3    H156710   0.262   0.530  12.246  1.7724 -0.5330  1.4250
11765TIP3    H256711   0.174   0.627  12.321 -1.5836 -1.1626 -1.5743
11766TIP3   OH256712   0.668   2.310   0.452 -0.3145 -0.7598  0.3315
11766TIP3    H156713   0.639   2.229   0.412 -0.8727  0.6583 -2.2801
11766TIP3    H256714   0.588   2.351   0.485 -0.1124 -0.9592  1.0898
11767TIP3   OH256715   2.861   0.126   3.338  0.0008  0.1515  0.0086
11767TIP3    H156716   2.859   0.085   3.251  0.4559 -2.4290  1.1703
11767TIP3    H256717   2.813   0.066   3.394 -0.7470  2.0617  1.4594
11768TIP3   OH256718   5.249   4.637   2.171 -0.2540  0.2086  0.4178
11768TIP3    H156719   5.276   4.728   2.180 -1.5765  0.6854 -0.3917
11768TIP3    H256720   5.309   4.589   2.228  1.5849  1.3762 -0.4894
11769TIP3   OH256721   3.461   0.623   3.760 -0.4775  0.6397  0.0416
11769TIP3    H156722   3.381   0.638   3.710 -0.8383  0.6212  0.6028
11769TIP3    H256723   3.438   0.550   3.818 -0.2808  1.1016  0.7017
11770TIP3   OH256724   5.488   5.607   5.899 -0.0075  0.2398 -0.2603
11770TIP3    H156725   5.494   5.588   5.992 -1.0330  0.9907 -0.0286
11770TIP3    H256726   5.413   5.555   5.869 -0.0955  0.5170 -0.5239
11771TIP3   OH256727   4.004   6.601  14.251  0.4966  0.2851 -0.1993
11771TIP3    H156728   3.970   6.571  14.335  0.1986 -0.0890 -0.4497
11771TIP3    H256729   3.928   6.598  14.192  0.9131 -0.3381 -0.7044
11772TIP3   OH256730   3.780   3.656  16.749  0.3628  0.2142  0.0657
11772TIP3    H156731   3.823   3.725  16.698 -0.7628  1.6515  1.0064
11772TIP3    H256732   3.846   3.626  16.811  0.6670  0.9036  0.0746
11773TIP3   OH256733   1.754   5.873  15.413  0.3386  0.4893 -0.0734
11773TIP3    H156734   1.788   5.894  15.500 -1.6144  0.3438  0.7477
11773TIP3    H256735   1.829   5.885  15.355  1.3176  1.9434  1.4338
11774TIP3   OH256736   0.095   5.359   4.849  0.4233 -0.0212 -0.1089
11774TIP3    H156737   0.078   5.353   4.943  0.2917 -2.1190 -0.2428
11774TIP3    H256738   0.008   5.361   4.809  0.4804  0.8105 -0.2023
11775TIP3   OH256739   6.288   4.456   4.885  0.3398 -0.1999 -0.0158
11775TIP3    H156740   6.235   4.397   4.938  0.7376 -1.3060 -0.8314
11775TIP3    H256741   6.366   4.473   4.937 -0.0311  0.0520  0.4572
11776TIP3   OH256742   4.163   2.700  13.273  0.1556 -0.4914 -0.2638
11776TIP3    H156743   4.155   2.644  13.350  1.2917  1.4443  1.2910
11776TIP3    H256744   4.076   2.697  13.233 -0.5078 -1.3781  1.1938
11777TIP3   OH256745   5.983   5.745  14.544 -0.0963  0.1217 -0.2712
11777TIP3    H156746   6.011   5.717  14.457  0.1118  2.4779 -0.9856
11777TIP3    H256747   5.982   5.840  14.540 -0.2441  0.2660  2.2643
11778TIP3   OH256748   0.107   2.358  17.173  0.1775  0.0767 -0.0249
11778TIP3    H156749   0.163   2.310  17.111  0.5203  0.6008 -0.1211
11778TIP3    H256750   0.118   2.311  17.256 -2.1021 -2.0674 -0.8673
11779TIP3   OH256751   1.935   2.120   3.027 -0.3488 -0.4309 -0.0409
11779TIP3    H156752   1.971   2.075   2.950 -1.2263 -0.6319 -0.3379
11779TIP3    H256753   1.947   2.057   3.099 -1.0908 -0.9332 -0.3523
11780TIP3   OH256754   1.007   2.344   5.509 -0.3715  0.0011  0.2167
11780TIP3    H156755   0.968   2.347   5.422 -0.0308 -0.9221  0.0254
11780TIP3    H256756   1.034   2.253   5.521  0.7543  0.3859  0.7679
11781TIP3   OH256757   1.505   0.199  15.617  0.3041  0.4177  0.1170
11781TIP3    H156758   1.535   0.288  15.632  0.0114  0.2888  1.5446
11781TIP3    H256759   1.414   0.209  15.589  0.7913  0.6507 -1.4180
11782TIP3   OH256760   6.486   4.132   3.358 -0.4829  0.0719 -0.4944
11782TIP3    H156761   6.490   4.038   3.339 -0.1460  0.3416 -1.8587
11782TIP3    H256762   6.405   4.162   3.317 -1.9756 -0.0943  2.2646
11783TIP3   OH256763   6.054   3.584  10.693  0.6753  0.0538  0.6685
11783TIP3    H156764   5.996   3.508  10.691  0.8068 -0.0586 -2.9587
11783TIP3    H256765   6.002   3.654  10.734 -0.3733 -1.2553  1.6002
11784TIP3   OH256766   0.641   5.907  15.209 -0.8278  0.0608 -0.1386
11784TIP3    H156767   0.578   5.861  15.154  0.2189 -0.5929 -0.8193
11784TIP3    H256768   0.687   5.966  15.148  0.5350 -0.8766 -0.0292
11785TIP3   OH256769   2.920   5.143  12.919 -0.3377 -0.0936 -0.0908
11785TIP3    H156770   2.867   5.205  12.868  2.3598  3.2492  1.0108
11785TIP3    H256771   2.954   5.195  12.992  3.2074 -2.4827  0.0719
11786TIP3   OH256772   6.553   3.420  10.522  0.6138 -0.1359 -0.5854
11786TIP3    H156773   6.501   3.497  10.545  0.3423  0.1823 -2.1868
11786TIP3    H256774   6.527   3.400  10.432  1.9008 -1.1021 -0.7555
11787TIP3   OH256775   6.477   5.135   3.338 -0.5474 -0.3432  0.6334
11787TIP3    H156776   6.441   5.171   3.419 -0.4124  1.4722 -0.0848
11787TIP3    H256777   6.427   5.177   3.269  0.7656 -0.2479 -0.2766
11788TIP3   OH256778   1.806   3.967  12.615 -0.5414  0.2291  0.6996
11788TIP3    H156779   1.791   3.874  12.597 -1.0168  0.3334  0.5599
11788TIP3    H256780   1.729   3.995  12.664 -1.1130  0.9291 -0.5912
11789TIP3   OH256781   6.537   3.079   1.141  0.9191 -0.1678 -0.1728
11789TIP3    H156782   6.544   3.115   1.053 -0.0167  1.2701  0.3220
11789TIP3    H256783   6.443   3.068   1.154  1.0185  0.1689  0.8521
11790TIP3   OH256784   3.937   2.112  11.275  0.3975  0.0352  0.5018
11790TIP3    H156785   4.024   2.146  11.296  0.9176 -2.8944  3.4855
11790TIP3    H256786   3.953   2.024  11.242 -1.4133 -0.4437  0.8646
11791TIP3   OH256787   1.140   5.656   0.647  0.7415  0.6392 -0.2266
11791TIP3    H156788   1.138   5.627   0.738  1.0279 -1.4382 -0.8516
11791TIP3    H256789   1.061   5.708   0.636 -0.6077 -1.2054  0.5441
11792TIP3   OH256790   4.553   0.296   2.384  0.3610 -0.3852 -0.3405
11792TIP3    H156791   4.524   0.349   2.310  0.8247  1.4777  0.7948
11792TIP3    H256792   4.608   0.228   2.344  2.6418  2.0287 -1.5275
11793TIP3   OH256793   5.761   6.208   5.615 -0.4340  0.2558  0.2633
11793TIP3    H156794   5.726   6.273   5.676  0.9904  0.1891  1.1612
11793TIP3    H256795   5.739   6.124   5.655 -1.6350  0.1573 -0.5433
11794TIP3   OH256796   0.474   1.404   6.508  0.3759  0.5833  0.1828
11794TIP3    H156797   0.466   1.309   6.501 -3.0928  0.8396 -0.4280
11794TIP3    H256798   0.389   1.433   6.541  1.0619  3.5438 -0.4624
11795TIP3   OH256799   1.142   5.337  16.715  0.3827  0.4145  0.0815
11795TIP3    H156800   1.192   5.340  16.634  0.4587 -0.3114  0.1018
11795TIP3    H256801   1.181   5.266  16.765 -0.5859 -0.0851  0.1460
11796TIP3   OH256802   0.384   4.498  13.958 -0.0412 -0.5568 -0.5061
11796TIP3    H156803   0.438   4.519  13.883 -0.8404  3.2835 -0.0979
11796TIP3    H256804   0.305   4.459  13.920  0.6341 -1.0295 -1.4496
11797TIP3   OH256805   6.218   6.042  16.556 -0.0828  0.2586 -0.2182
11797TIP3    H156806   6.221   6.090  16.473  2.0527 -0.5813 -0.6431
11797TIP3    H256807   6.200   6.110  16.622 -0.0005  1.1994 -1.1549
11798TIP3   OH256808   5.248   4.961   3.027 -0.2391 -0.0075 -0.4125
11798TIP3    H156809   5.220   5.013   2.952 -0.8084 -1.7885 -1.4656
11798TIP3    H256810   5.331   5.001   3.054 -0.3516  1.0358 -1.5808
11799TIP3   OH256811   6.172   4.746  12.351 -0.3196  0.3769  0.4193
11799TIP3    H156812   6.200   4.659  12.324 -0.0093  1.1407 -1.7942
11799TIP3    H256813   6.076   4.741  12.350 -0.3042 -0.0015  0.5535
11800TIP3   OH256814   5.052   1.486  15.177 -0.5499 -0.7214  0.0254
11800TIP3    H156815   5.102   1.457  15.254  1.4886  2.7126  0.1212
11800TIP3    H256816   4.991   1.415  15.160  1.4548 -3.1913  2.5935
11801TIP3   OH256817   5.347   0.326  13.628 -0.7086 -0.4155 -0.2459
11801TIP3    H156818   5.360   0.270  13.551 -0.3647 -1.1590  0.3384
11801TIP3    H256819   5.252   0.328  13.640 -0.6979 -1.3842  0.0803
11802TIP3   OH256820   3.637   2.047  11.907  0.5041 -0.4752 -0.5625
11802TIP3    H156821   3.648   1.994  11.829  0.3904 -2.5575  0.7875
11802TIP3    H256822   3.716   2.102  11.911  1.5807 -1.9798 -0.9228
11803TIP3   OH256823   0.851   0.850  16.869  0.0052 -0.1449 -0.3196
11803TIP3    H156824   0.761   0.838  16.900 -0.2981  1.0388 -0.7226
11803TIP3    H256825   0.845   0.838  16.774 -0.0755  1.7943 -0.5783
11804TIP3   OH256826   1.615   1.016  15.550  0.8065  0.6595  0.0216
11804TIP3    H156827   1.660   1.061  15.622 -2.5830  1.1582  1.9405
11804TIP3    H256828   1.605   1.084  15.483  1.9674  0.8197 -0.0007
11805TIP3   OH256829   4.998   3.452  14.198 -0.0625  0.0874 -0.1989
11805TIP3    H156830   5.005   3.534  14.247 -0.9288  0.1754 -0.2270
11805TIP3    H256831   5.003   3.384  14.265 -2.2921  0.2255  0.1472
11806TIP3   OH256832   3.562   1.824   6.466 -0.1679 -0.4616 -0.0577
11806TIP3    H156833   3.525   1.779   6.390 -1.4418 -0.3375  0.4701
11806TIP3    H256834   3.543   1.766   6.539  2.2666 -1.2300 -0.0091
11807TIP3   OH256835   3.310   4.900   0.707 -0.1977  0.1457 -0.1448
11807TIP3    H156836   3.320   4.853   0.624 -0.4233 -0.0628 -0.0543
11807TIP3    H256837   3.386   4.958   0.711  0.2982 -0.5128 -0.0551
11808TIP3   OH256838   1.825   6.200  11.819  0.5139  0.6068 -0.2471
11808TIP3    H156839   1.862   6.154  11.895  0.0709 -0.3710 -0.6228
11808TIP3    H256840   1.872   6.164  11.744 -0.3196  0.2688 -0.6061
11809TIP3   OH256841   3.465   2.279  12.326 -0.4005  0.0538  0.5059
11809TIP3    H156842   3.403   2.317  12.263 -1.6605 -0.8678  1.1640
11809TIP3    H256843   3.416   2.208  12.367  0.5668  0.3638  2.2086
11810TIP3   OH256844   1.579   6.538  13.888  0.3035  0.0146 -0.1149
11810TIP3    H156845   1.557   6.506  13.976  1.5435 -0.6438 -0.0301
11810TIP3    H256846   1.494   6.549  13.845 -0.2621 -1.1300  0.6551
11811TIP3   OH256847   2.518   5.539  12.387  0.2724 -0.0526 -0.3862
11811TIP3    H156848   2.480   5.494  12.462 -1.0730  1.8186  0.1106
11811TIP3    H256849   2.562   5.471  12.337  0.1150 -1.5277  1.4454
11812TIP3   OH256850   0.871   5.982   1.959 -0.1588 -0.4435  0.5149
11812TIP3    H156851   0.845   6.058   1.907 -0.8741  0.5658  2.3235
11812TIP3    H256852   0.951   5.950   1.916 -1.4762 -0.4860 -2.0245
11813TIP3   OH256853   2.766   4.886  16.247  0.1359  0.0716  0.3962
11813TIP3    H156854   2.673   4.887  16.270  0.1286 -0.5344  0.4135
11813TIP3    H256855   2.770   4.831  16.169  0.3258  1.0735 -0.3130
11814TIP3   OH256856   4.047   1.970   0.280 -0.0862 -0.2003 -0.0646
11814TIP3    H156857   3.994   2.015   0.214 -0.6271  0.3011  0.6916
11814TIP3    H256858   4.118   1.930   0.231  0.0640  0.9858 -0.8296
11815TIP3   OH256859   2.349   5.396  11.449  0.1246  0.1172 -0.3631
11815TIP3    H156860   2.343   5.302  11.431  0.2569  0.0468 -0.0451
11815TIP3    H256861   2.383   5.433  11.368  2.7613 -0.4644  0.4217
11816TIP3   OH256862   0.016   0.809  12.684  0.2275 -0.4513 -0.2322
11816TIP3    H156863  -0.021   0.787  12.598 -0.7654 -0.7108  0.2587
11816TIP3    H256864   0.109   0.823  12.667 -0.3096  1.6501 -1.7670
11817TIP3   OH256865   3.266   3.385  13.332 -0.4258  0.4082  0.1517
11817TIP3    H156866   3.233   3.456  13.278 -1.5231 -0.8710 -0.9063
11817TIP3    H256867   3.301   3.322  13.269 -1.0413 -0.7680  0.9701
11818TIP3   OH256868   3.750   0.954  15.340 -0.5769 -0.3953  0.1352
11818TIP3    H156869   3.689   0.929  15.410 -1.3229 -1.1153 -0.7658
11818TIP3    H256870   3.703   1.020  15.289  0.0653  0.3157  0.4554
11819TIP3   OH256871   4.991   3.696   1.376  0.2385 -0.1444  0.0666
11819TIP3    H156872   4.964   3.751   1.303 -0.0192 -0.8070 -0.3389
11819TIP3    H256873   5.063   3.744   1.417 -0.8469  1.1550  0.5314
11820TIP3   OH256874   4.935   0.919  11.493 -0.0797 -0.1560 -1.3324
11820TIP3    H156875   5.021   0.908  11.534  0.0649  2.1009 -0.9539
11820TIP3    H256876   4.943   0.999  11.442 -2.8605  1.8453  1.1914
11821TIP3   OH256877   1.072   0.995   0.292 -0.4893 -0.2300  0.0430
11821TIP3    H156878   1.022   0.983   0.212 -2.6032 -0.9577  1.4220
11821TIP3    H256879   1.011   1.039   0.352  0.5006 -1.1487  1.7764
11822TIP3   OH256880   4.861   5.635  12.858  0.0432  0.0684  0.5230
11822TIP3    H156881   4.950   5.602  12.861  0.1935  0.2734 -0.9469
11822TIP3    H256882   4.824   5.595  12.779 -0.4749  1.6586 -0.0579
11823TIP3   OH256883   3.134   2.083   0.404 -0.2438 -0.6101  0.2019
11823TIP3    H156884   3.100   2.172   0.391 -1.5415 -0.9914  0.9294
11823TIP3    H256885   3.066   2.026   0.370  0.6446 -1.3397 -0.3805
11824TIP3   OH256886   2.200   1.546   0.170 -0.0212 -0.2484 -0.1484
11824TIP3    H156887   2.266   1.494   0.217  0.5395  1.0374  0.5150
11824TIP3    H256888   2.158   1.598   0.239 -1.1095 -0.3834 -0.7004
11825TIP3   OH256889   2.738   0.163   1.148 -0.1013  0.5035  0.1389
11825TIP3    H156890   2.828   0.129   1.153 -0.7341 -1.1922 -0.0052
11825TIP3    H256891   2.682   0.088   1.166 -1.4965  1.7272  1.0196
11826TIP3   OH256892   5.132   5.253  16.824  0.2475 -0.3569 -0.1942
11826TIP3    H156893   5.223   5.273  16.804  0.6524 -1.8089  0.1632
11826TIP3    H256894   5.082   5.310  16.765  1.3853 -0.4677 -1.2860
11827TIP3   OH256895   0.832   4.222  14.468  0.3021 -0.1989  0.0443
11827TIP3    H156896   0.845   4.170  14.547  0.7177 -1.0651 -0.5821
11827TIP3    H256897   0.849   4.161  14.396 -0.6105  0.4320 -0.7256
11828TIP3   OH256898   3.423   6.317  14.344 -0.0209 -0.3265  0.2485
11828TIP3    H156899   3.394   6.326  14.253  0.5284  0.5322  0.1459
11828TIP3    H256900   3.343   6.310  14.395 -0.4309  1.9335 -0.0298
11829TIP3   OH256901   4.867   5.103  12.495  0.1012  0.4125 -0.1191
11829TIP3    H156902   4.806   5.108  12.421 -0.6244 -0.7779  0.3828
11829TIP3    H256903   4.812   5.079  12.569  0.9759  0.6528  0.6140
11830TIP3   OH256904   3.644   1.629  11.552  0.0509  0.1313  0.0504
11830TIP3    H156905   3.715   1.573  11.520 -0.2477  0.5711 -1.4172
11830TIP3    H256906   3.640   1.701  11.490 -0.4200  1.1259  1.2109
11831TIP3   OH256907   4.850   4.706  10.869 -0.2214  0.2383 -0.2478
11831TIP3    H156908   4.787   4.722  10.799 -1.3973 -1.1353  0.4557
11831TIP3    H256909   4.873   4.613  10.860  3.7973  1.3001 -2.1407
11832TIP3   OH256910   1.548   2.318  16.910  0.8925 -0.2077 -0.7133
11832TIP3    H156911   1.636   2.294  16.941  1.8053  0.8381 -2.4487
11832TIP3    H256912   1.494   2.242  16.932  2.2618 -0.9588  0.1731
11833TIP3   OH256913   6.373   0.937  16.115 -0.3222  0.3858 -0.4668
11833TIP3    H156914   6.380   1.030  16.138 -2.8283  0.6003 -0.3692
11833TIP3    H256915   6.462   0.910  16.093  0.5525  2.6261  0.2119
11834TIP3   OH256916   0.892   3.988   5.573  0.9482  0.0880  0.4316
11834TIP3    H156917   0.959   3.957   5.511  0.6406  0.4414 -0.0760
11834TIP3    H256918   0.939   4.049   5.629  1.3984 -0.7819  1.0050
11835TIP3   OH256919   4.029   4.848   5.187 -0.3912 -0.6387 -0.2743
11835TIP3    H156920   4.027   4.872   5.094  1.9666 -1.3175 -0.5545
11835TIP3    H256921   4.049   4.754   5.187 -0.2966 -0.6234  0.9038
11836TIP3   OH256922   0.629   3.954   0.014 -0.5255  0.6093  0.0302
11836TIP3    H156923   0.675   3.950  -0.069 -0.3138  1.1013  0.1262
11836TIP3    H256924   0.689   3.999   0.073 -0.4833 -0.1397  0.5738
11837TIP3   OH256925   0.268   6.696  15.014  0.2676  0.1946 -0.4521
11837TIP3    H156926   0.348   6.743  15.038  1.4581 -1.3197 -1.3388
11837TIP3    H256927   0.298   6.607  14.993 -1.6899 -0.4772 -0.5171
11838TIP3   OH256928   1.955   0.832   5.180  0.0889 -0.5294 -0.0961
11838TIP3    H156929   1.920   0.884   5.253  0.8174 -0.5622  0.2918
11838TIP3    H256930   1.955   0.742   5.213 -3.0373 -1.1000 -1.4900
11839TIP3   OH256931   5.640   4.152   2.058 -0.4469  0.0655 -0.0627
11839TIP3    H156932   5.604   4.111   2.136  0.2279 -0.5720 -0.0844
11839TIP3    H256933   5.570   4.146   1.993 -0.3007 -1.1726 -0.1131
11840TIP3   OH256934   2.870   2.907   0.978  0.5039  0.6248 -0.0261
11840TIP3    H156935   2.815   2.858   0.916 -1.4396  0.4179  1.7985
11840TIP3    H256936   2.852   2.999   0.958  1.0631  0.5763 -0.7762
11841TIP3   OH256937   3.789   2.045  14.120  0.1563 -0.1347  0.2590
11841TIP3    H156938   3.854   2.114  14.108  0.8891 -0.7491  0.6647
11841TIP3    H256939   3.806   1.984  14.048 -0.4270  0.0598 -0.0428
11842TIP3   OH256940   3.529   5.786   4.870  0.1806 -0.1095 -0.3169
11842TIP3    H156941   3.497   5.839   4.942 -1.0919 -0.6104 -0.5096
11842TIP3    H256942   3.468   5.712   4.864  1.0683 -0.8078 -1.0066
11843TIP3   OH256943   4.163   6.425  12.693  0.2511 -0.0863 -0.8047
11843TIP3    H156944   4.232   6.492  12.691  0.9149 -0.7249  0.1202
11843TIP3    H256945   4.150   6.402  12.601  0.0626  1.2628 -1.1252
11844TIP3   OH256946   6.151   0.379  11.905  0.3800  0.1611 -0.3992
11844TIP3    H156947   6.121   0.317  11.839  1.0001  0.5191 -1.0202
11844TIP3    H256948   6.075   0.437  11.919 -1.3409 -2.6393  2.5323
11845TIP3   OH256949   1.052   4.714   2.794 -0.1609 -0.6509 -0.2943
11845TIP3    H156950   1.021   4.710   2.703  0.2854 -0.4306 -0.4576
11845TIP3    H256951   1.003   4.787   2.833 -0.2624 -0.6674 -0.3910
11846TIP3   OH256952   0.255   2.119   0.157  0.5559 -0.6977  0.4575
11846TIP3    H156953   0.227   2.050   0.096 -1.2630  0.4602 -0.0563
11846TIP3    H256954   0.232   2.084   0.243 -1.0855 -0.4471  0.1460
11847TIP3   OH256955   3.339   3.928  14.252  0.5535 -0.2038  0.2447
11847TIP3    H156956   3.430   3.942  14.276  0.3194 -0.3713  1.2793
11847TIP3    H256957   3.327   3.833  14.258  0.1792 -0.1354  0.5985
11848TIP3   OH256958   6.136   1.896  13.889 -0.1619  0.1375 -0.0349
11848TIP3    H156959   6.145   1.950  13.967 -0.9274  0.6118 -0.2679
11848TIP3    H256960   6.102   1.813  13.920  1.6367 -0.4622  0.4093
11849TIP3   OH256961   6.341   5.669   5.845 -0.2542  0.1775 -0.2080
11849TIP3    H156962   6.273   5.687   5.781 -0.1357  0.0346 -0.3737
11849TIP3    H256963   6.300   5.688   5.929 -0.5572 -0.0872 -0.2959
11850TIP3   OH256964   2.752   2.947  15.256  0.1861 -0.0397  0.0851
11850TIP3    H156965   2.770   3.032  15.296 -1.3888 -0.4247  1.6711
11850TIP3    H256966   2.798   2.884  15.312  0.3434 -0.3378 -0.3749
11851TIP3   OH256967   5.316   5.479   4.080 -0.8065  0.2788  0.3021
11851TIP3    H156968   5.231   5.477   4.037 -0.2247 -0.1066 -0.8597
11851TIP3    H256969   5.377   5.509   4.012  0.1907 -0.7241  0.7378
11852TIP3   OH256970   6.774   3.281  11.313 -0.4120 -0.1950  0.1660
11852TIP3    H156971   6.752   3.216  11.379 -1.7677 -2.0638 -2.0344
11852TIP3    H256972   6.690   3.322  11.291  0.2703  1.5752  0.7456
11853TIP3   OH256973   1.943   4.905   1.163  0.2520  0.3938  0.0070
11853TIP3    H156974   1.944   4.810   1.163 -0.0679  0.3706 -2.2168
11853TIP3    H256975   1.855   4.929   1.190  0.7790  0.0969  2.0581
11854TIP3   OH256976   0.382   6.079  15.177 -0.4091 -0.2554  0.3801
11854TIP3    H156977   0.446   6.073  15.106 -0.6777  2.0860 -0.1047
11854TIP3    H256978   0.298   6.080  15.133 -0.6232  0.1221  0.7965
11855TIP3   OH256979   5.786   0.928   5.868 -0.1899 -0.1724 -0.3826
11855TIP3    H156980   5.853   0.996   5.870 -1.1804  0.8683 -1.5737
11855TIP3    H256981   5.826   0.855   5.821  0.9164 -0.4619  0.9900
11856TIP3   OH256982   0.729   0.468   0.813  0.4151  0.2432  0.5212
11856TIP3    H156983   0.729   0.552   0.861 -1.6395 -0.2515  1.4189
11856TIP3    H256984   0.805   0.422   0.848 -0.0636  0.6010  2.0808
11857TIP3   OH256985   2.688   3.649   5.009 -0.1521 -0.7014 -0.3573
11857TIP3    H156986   2.773   3.606   4.996  0.4611  0.1021  0.8977
11857TIP3    H256987   2.706   3.742   4.992 -1.4194 -0.8588 -2.8817
11858TIP3   OH256988   0.975   1.849  16.862 -0.0839  0.2459  0.0914
11858TIP3    H156989   0.894   1.810  16.894 -1.5872  1.1809 -2.4311
11858TIP3    H256990   0.975   1.938  16.898 -1.1855  0.9008 -1.4665
11859TIP3   OH256991   0.444   5.719  16.461  0.7925 -0.0704 -0.2145
11859TIP3    H156992   0.356   5.735  16.427 -0.3480 -0.9096  2.2241
11859TIP3    H256993   0.501   5.774  16.407 -1.4663  2.1696 -0.4068
11860TIP3   OH256994   2.892   3.850   0.460  0.6579 -0.2340 -0.1295
11860TIP3    H156995   2.916   3.823   0.371 -0.8602 -0.2334 -0.5521
11860TIP3    H256996   2.965   3.905   0.488  1.5317 -0.8891 -1.0711
11861TIP3   OH256997   3.361   1.468  14.597 -0.1388  0.1286 -0.3960
11861TIP3    H156998   3.446   1.430  14.619  0.3646  1.1894 -0.4285
11861TIP3    H256999   3.297   1.416  14.645  0.5871 -0.2879  0.1247
11862TIP3   OH257000   4.686   4.496  13.794 -0.9571 -0.4106 -0.5240
11862TIP3    H157001   4.683   4.560  13.866 -0.4198 -0.8692 -0.0944
11862TIP3    H257002   4.601   4.453  13.798 -0.8342 -0.6134  0.0045
11863TIP3   OH257003   2.999   1.459  17.133 -0.2218 -0.0851 -0.3851
11863TIP3    H157004   3.034   1.516  17.201  2.6663 -1.1211 -0.9569
11863TIP3    H257005   3.055   1.381  17.136 -0.9256 -0.7293 -3.0473
11864TIP3   OH257006   3.715   4.073   1.792 -0.3240 -0.1758 -0.5729
11864TIP3    H157007   3.760   3.990   1.809 -1.6274 -0.9469 -0.8208
11864TIP3    H257008   3.779   4.126   1.744  0.7074 -0.8257  0.0732
11865TIP3   OH257009   0.886   2.612  13.797  0.4803  0.2117 -0.1675
11865TIP3    H157010   0.955   2.548  13.783  1.5413  1.5206 -1.0988
11865TIP3    H257011   0.807   2.560  13.811  0.8553 -1.3173 -3.1581
11866TIP3   OH257012   0.844   2.503  16.502  0.4191 -0.0546 -0.7376
11866TIP3    H157013   0.866   2.585  16.548  1.0998 -0.4348 -0.3762
11866TIP3    H257014   0.763   2.474  16.544  1.0268 -0.3868  0.2189
11867TIP3   OH257015   3.233   0.699   5.281 -0.0637 -0.3526 -0.2598
11867TIP3    H157016   3.274   0.613   5.268 -1.9610 -1.2996 -0.1740
11867TIP3    H257017   3.140   0.680   5.294 -0.4107  1.6718  0.4773
11868TIP3   OH257018   0.869   5.552   3.539 -0.3212  0.1295 -1.0147
11868TIP3    H157019   0.873   5.489   3.612 -1.8903 -1.1209 -1.9906
11868TIP3    H257020   0.836   5.633   3.579  1.4738  0.2974  0.2039
11869TIP3   OH257021   3.621   4.827  15.478 -0.1871  0.4830  0.0258
11869TIP3    H157022   3.713   4.830  15.452  0.1268  1.4164  1.1914
11869TIP3    H257023   3.596   4.735  15.470  0.3208  0.5087 -2.0677
11870TIP3   OH257024   1.200   2.812  12.157  0.0748  0.3989 -0.0856
11870TIP3    H157025   1.109   2.811  12.127  0.6719 -1.0564 -1.9197
11870TIP3    H257026   1.241   2.880  12.104 -0.0047  1.3022  0.9922
11871TIP3   OH257027   6.634   1.449  15.409  0.7869 -0.0665  0.4959
11871TIP3    H157028   6.570   1.387  15.442  1.6459 -0.5894  1.1826
11871TIP3    H257029   6.669   1.492  15.487  0.0088  1.4734  0.0119
11872TIP3   OH257030   3.523   6.622  12.981 -0.2868  0.3454  0.1319
11872TIP3    H157031   3.511   6.540  12.933 -0.8481  0.2684  0.3885
11872TIP3    H257032   3.601   6.661  12.944 -0.0770 -0.2587 -0.0688
11873TIP3   OH257033   3.383   2.159   2.005 -0.1883  0.1556 -0.8295
11873TIP3    H157034   3.315   2.206   1.958 -3.1465 -0.7545  2.3327
11873TIP3    H257035   3.350   2.070   2.015 -0.5191  0.6674  4.2322
11874TIP3   OH257036   5.451   1.149  15.925  0.6688 -0.4493  0.6071
11874TIP3    H157037   5.459   1.074  15.984  1.2757 -0.2983  0.7225
11874TIP3    H257038   5.535   1.152  15.879 -0.4552 -1.6307 -1.5699
11875TIP3   OH257039   0.674   5.139  11.549 -0.2430 -0.4538 -0.2511
11875TIP3    H157040   0.648   5.057  11.588  4.3109 -1.6113  0.7008
11875TIP3    H257041   0.736   5.177  11.612 -0.1848  2.3657 -1.9135
11876TIP3   OH257042   4.002   4.116  13.036  0.1787  0.7701 -0.5598
11876TIP3    H157043   3.975   4.050  12.972 -0.6625  1.0228 -0.4713
11876TIP3    H257044   3.920   4.148  13.073  0.4927  2.7283 -1.4619
11877TIP3   OH257045   1.934   5.892   1.105 -0.1256 -0.5786 -0.3808
11877TIP3    H157046   1.991   5.967   1.121  0.5440 -1.0278 -0.6831
11877TIP3    H257047   1.981   5.837   1.043 -0.6974 -1.1611 -0.3152
11878TIP3   OH257048   3.047   2.309   4.231  0.1774 -0.2639  0.4304
11878TIP3    H157049   3.131   2.298   4.188 -0.1413 -0.9413 -0.0323
11878TIP3    H257050   2.999   2.228   4.212  0.0792 -0.6454  2.1675
11879TIP3   OH257051   4.029   2.273   6.110 -0.1401 -0.8135  0.2266
11879TIP3    H157052   4.075   2.196   6.077 -0.2052 -0.9335  0.4125
11879TIP3    H257053   4.099   2.330   6.142 -0.1871 -1.5905  1.7727
11880TIP3   OH257054   4.198   1.263  13.007  0.1381  0.1007  0.2863
11880TIP3    H157055   4.129   1.309  13.056  0.4580 -0.0094  0.8495
11880TIP3    H257056   4.170   1.171  13.008 -0.4217  0.2506 -0.7041
11881TIP3   OH257057   5.625   0.177  15.816 -0.6496 -0.0747  0.4949
11881TIP3    H157058   5.655   0.116  15.883 -0.2107 -0.2851  0.1072
11881TIP3    H257059   5.677   0.256  15.830  0.8506 -0.8050 -0.8455
11882TIP3   OH257060   5.001   3.522   2.975  0.8265  0.3175  0.2017
11882TIP3    H157061   4.940   3.451   2.991  0.9730 -0.1922 -1.4398
11882TIP3    H257062   5.088   3.482   2.983  0.9976  1.0999  2.8167
11883TIP3   OH257063   2.157   4.390   4.787 -0.6421 -0.0958  0.3383
11883TIP3    H157064   2.169   4.296   4.777 -1.6993 -0.3208  1.0412
11883TIP3    H257065   2.062   4.401   4.801 -0.3115  0.9084  1.9528
11884TIP3   OH257066   0.151   5.936  16.766 -0.2091  0.0298  0.0581
11884TIP3    H157067   0.245   5.953  16.755  0.1648 -1.6792  0.4612
11884TIP3    H257068   0.130   5.872  16.699 -1.6970  2.3018 -1.7175
11885TIP3   OH257069   6.122   4.183   4.681  0.1910 -0.0229  0.5448
11885TIP3    H157070   6.030   4.158   4.693  0.0195  0.2108 -0.2347
11885TIP3    H257071   6.138   4.248   4.750 -0.0597 -0.4846  1.0403
11886TIP3   OH257072   5.760   0.447   4.751  0.2283  0.1870 -0.1068
11886TIP3    H157073   5.793   0.398   4.827  1.1478  1.8167  0.5551
11886TIP3    H257074   5.820   0.520   4.741 -1.3244  1.3905 -0.8912
11887TIP3   OH257075   4.204   5.208   0.235  0.0819 -0.0236  0.1533
11887TIP3    H157076   4.139   5.172   0.176 -1.0883  2.5896 -0.2233
11887TIP3    H257077   4.272   5.141   0.241 -1.2354 -1.5553 -1.7562
11888TIP3   OH257078   0.779   6.603   1.982  0.0718  0.5914  0.2243
11888TIP3    H157079   0.780   6.522   2.032 -0.3585 -0.7745 -1.9299
11888TIP3    H257080   0.690   6.607   1.946  0.5914  1.2026 -0.9929
11889TIP3   OH257081   0.286   5.514  14.696  0.1362 -0.1026  0.1685
11889TIP3    H157082   0.239   5.485  14.774  0.5844 -0.8289  0.1703
11889TIP3    H257083   0.227   5.577  14.654  0.3595  1.1104  1.6651
11890TIP3   OH257084   2.130   1.559   1.786 -0.3747  0.0896  0.4352
11890TIP3    H157085   2.051   1.521   1.824 -0.7021  2.6832  2.5009
11890TIP3    H257086   2.097   1.618   1.718 -0.1381  0.1015  0.3323
11891TIP3   OH257087   6.412   0.830   3.833  0.1962  0.1281 -0.1320
11891TIP3    H157088   6.504   0.823   3.858  0.4163  0.1195 -0.9352
11891TIP3    H257089   6.393   0.748   3.787 -0.1203  0.2818 -0.2752
11892TIP3   OH257090   0.746   2.236  13.426 -0.1376 -0.0263  0.4448
11892TIP3    H157091   0.761   2.321  13.385 -0.8720 -0.4365 -0.7148
11892TIP3    H257092   0.833   2.202  13.444  0.1626  1.3049  1.6560
11893TIP3   OH257093   6.761   3.223  12.297  0.0291 -0.0684  0.9440
11893TIP3    H157094   6.681   3.182  12.263  1.2858 -1.4693 -0.3885
11893TIP3    H257095   6.756   3.314  12.267 -1.6876  0.2253  2.0148
11894TIP3   OH257096   2.187   5.661   4.570 -0.1423  0.1174 -0.0719
11894TIP3    H157097   2.277   5.675   4.599  0.3255  0.4039 -1.5689
11894TIP3    H257098   2.137   5.732   4.610  0.7268  1.2907 -1.0201
11895TIP3   OH257099   3.795   1.981  14.495  0.6528  0.0477  0.5294
11895TIP3    H157100   3.738   2.050  14.463 -1.7856 -2.2283 -0.2604
11895TIP3    H257101   3.839   1.948  14.416  2.0987  0.9217  0.9532
11896TIP3   OH257102   4.640   2.768   3.640  0.0078 -0.7349  0.3436
11896TIP3    H157103   4.613   2.831   3.572  0.2488 -0.6589  0.3172
11896TIP3    H257104   4.718   2.726   3.604  0.8050  0.1112  1.0463
11897TIP3   OH257105   3.628   6.394   3.181 -0.1991  0.4539  0.4448
11897TIP3    H157106   3.625   6.398   3.276 -1.8782  0.5736  0.3998
11897TIP3    H257107   3.710   6.347   3.161  0.1470  0.4162  1.9333
11898TIP3   OH257108   2.427   3.690  12.583  0.5295 -0.4761 -0.6367
11898TIP3    H157109   2.461   3.719  12.499 -1.5352  2.4599 -0.5666
11898TIP3    H257110   2.337   3.661  12.564  0.4072 -0.7837  0.3647
11899TIP3   OH257111   3.436   4.723   2.490 -0.4515  0.1220  0.1739
11899TIP3    H157112   3.389   4.643   2.514 -1.2973  0.6560  0.3089
11899TIP3    H257113   3.526   4.709   2.522 -0.1713 -1.4381 -1.2196
11900TIP3   OH257114   2.454   2.925   3.823 -0.3805 -0.3178  0.0768
11900TIP3    H157115   2.476   3.015   3.799 -1.8827  0.3909  1.2617
11900TIP3    H257116   2.522   2.872   3.782  1.2602  1.4632  0.4234
11901TIP3   OH257117   5.067   2.433  12.707 -0.3790 -0.2016  0.2193
11901TIP3    H157118   5.149   2.384  12.717 -0.0163  0.7578  2.1626
11901TIP3    H257119   5.072   2.470  12.619  0.7405 -1.1017 -0.1093
11902TIP3   OH257120   2.093   3.544   4.042 -0.1886  0.0900 -0.0017
11902TIP3    H157121   2.037   3.581   3.973  0.7888  0.5817 -0.5304
11902TIP3    H257122   2.040   3.474   4.079 -1.9738  1.8314  0.8417
11903TIP3   OH257123   5.695   1.582   0.608  0.1002  0.3235  0.4600
11903TIP3    H157124   5.622   1.534   0.568  1.6461 -0.2580 -1.7239
11903TIP3    H257125   5.679   1.673   0.583  1.5881 -0.1621 -2.3984
11904TIP3   OH257126   3.792   6.670  11.876 -0.0153  0.4753 -0.0228
11904TIP3    H157127   3.861   6.606  11.891 -0.2225  0.4613  0.9175
11904TIP3    H257128   3.797   6.690  11.783  1.4905  0.7604  0.1202
11905TIP3   OH257129   5.355   5.968  14.354  0.3041 -0.2422 -0.1151
11905TIP3    H157130   5.292   6.039  14.340  1.4499  0.7624 -0.2517
11905TIP3    H257131   5.331   5.931  14.439 -0.1872  0.4164  0.0343
11906TIP3   OH257132   4.432   6.054   5.290  0.6495 -0.1084  0.2750
11906TIP3    H157133   4.439   6.130   5.347  0.5895  1.0050 -1.1851
11906TIP3    H257134   4.355   6.007   5.322 -1.4120  2.3150 -0.9929
11907TIP3   OH257135   3.848   4.879  12.113  0.6605  0.1735 -0.6776
11907TIP3    H157136   3.759   4.914  12.125  1.0562  1.6705 -2.0684
11907TIP3    H257137   3.890   4.894  12.198 -0.6638 -1.3906  0.3128
11908TIP3   OH257138   1.343   0.444   3.478 -0.2381 -0.8896 -0.5967
11908TIP3    H157139   1.393   0.514   3.437  0.6462 -0.7886  0.6323
11908TIP3    H257140   1.400   0.368   3.473 -0.0419 -0.8216  0.6430
11909TIP3   OH257141   3.492   4.212   0.854 -0.0714 -0.0873 -0.7901
11909TIP3    H157142   3.526   4.154   0.923  0.3569 -0.5299 -1.3588
11909TIP3    H257143   3.511   4.300   0.885  0.1227 -0.2865 -0.3402
11910TIP3   OH257144   4.246   4.449  14.632 -0.7938  0.0792 -0.3096
11910TIP3    H157145   4.209   4.494  14.708  0.1552  1.5006 -0.6685
11910TIP3    H257146   4.317   4.506  14.603  0.8936 -2.0000 -0.3739
11911TIP3   OH257147   6.625   0.708   2.353 -0.4418 -0.4934  0.1180
11911TIP3    H157148   6.678   0.733   2.428 -0.7967 -0.8041  0.4744
11911TIP3    H257149   6.665   0.627   2.321 -0.1807 -0.2638 -0.1391
11912TIP3   OH257150   2.338   5.150   0.557 -0.6439  0.7656  0.5946
11912TIP3    H157151   2.367   5.239   0.538 -0.9974  0.2649 -2.5798
11912TIP3    H257152   2.322   5.111   0.471 -0.5456 -2.3542  1.9166
11913TIP3   OH257153   3.113   4.721  12.282  0.5681 -0.3170  0.0983
11913TIP3    H157154   3.106   4.701  12.375  0.5271 -0.2205  0.1167
11913TIP3    H257155   3.193   4.774  12.274 -0.6152  1.5833  0.4130
11914TIP3   OH257156   0.175   3.206   5.476 -0.1689 -0.2491  0.4323
11914TIP3    H157157   0.260   3.248   5.487 -1.0342  1.4055  1.0479
11914TIP3    H257158   0.133   3.214   5.562 -0.9957 -0.9166  0.1037
11915TIP3   OH257159   4.682   5.048   5.415  0.9890 -0.2002  0.1550
11915TIP3    H157160   4.732   4.990   5.474  0.6820  1.0786  1.6872
11915TIP3    H257161   4.749   5.103   5.375  1.0427 -0.0348  0.4706
11916TIP3   OH257162   6.608   5.126   2.772 -0.3157 -0.0415  0.3556
11916TIP3    H157163   6.523   5.168   2.755 -0.3186  0.0282  0.5479
11916TIP3    H257164   6.585   5.036   2.795 -0.3564  0.0630  0.7250
11917TIP3   OH257165   6.693   3.098  16.304  0.2356  0.0059  0.3025
11917TIP3    H157166   6.700   3.092  16.209 -2.8866  0.0659  0.0150
11917TIP3    H257167   6.671   3.190  16.321 -0.7029 -0.3141  0.9294
11918TIP3   OH257168   4.558   1.210  15.247 -0.3390 -0.1994 -0.4270
11918TIP3    H157169   4.509   1.238  15.324 -0.9147 -0.3714 -0.7206
11918TIP3    H257170   4.526   1.121  15.229  0.5742 -0.5706 -0.2265
11919TIP3   OH257171   2.260   2.720  12.571  0.0492 -0.0348  0.2687
11919TIP3    H157172   2.275   2.794  12.511 -1.3859 -0.0125 -0.0823
11919TIP3    H257173   2.335   2.663  12.557 -0.1211  0.1042 -1.3824
11920TIP3   OH257174   5.813   2.122   1.383 -0.1213  0.1765  0.1358
11920TIP3    H157175   5.878   2.154   1.445  0.7150  1.2768 -1.2642
11920TIP3    H257176   5.785   2.200   1.335 -0.6244 -0.6597 -0.9727
11921TIP3   OH257177   2.270   5.558  15.112  0.4632  0.3631  0.6861
11921TIP3    H157178   2.349   5.605  15.086  1.1547 -2.0369 -1.7789
11921TIP3    H257179   2.273   5.476  15.062 -1.7966 -1.3360  3.1891
11922TIP3   OH257180   5.428   1.194  10.870 -0.1782  0.5974 -0.0365
11922TIP3    H157181   5.412   1.116  10.817  0.5442 -0.5023  1.3050
11922TIP3    H257182   5.521   1.190  10.891  0.3112  2.9142 -1.6063
11923TIP3   OH257183   4.907   2.230  15.737 -0.6490 -0.8478 -0.0592
11923TIP3    H157184   4.836   2.293  15.724  1.1353  1.0739 -0.8806
11923TIP3    H257185   4.970   2.277  15.792  0.4731 -2.1177 -0.2436
11924TIP3   OH257186   4.493   3.724   5.945 -0.0306 -0.2335 -0.3569
11924TIP3    H157187   4.454   3.768   6.021 -0.7295 -0.1299 -0.7734
11924TIP3    H257188   4.553   3.789   5.909 -0.0400 -0.1158 -0.1612
11925TIP3   OH257189   1.744   3.415  12.795  0.2805 -0.5641 -0.4007
11925TIP3    H157190   1.823   3.423  12.741  0.6758 -1.4362  0.0398
11925TIP3    H257191   1.753   3.483  12.862  0.2730 -0.1427 -0.8256
11926TIP3   OH257192   5.832   3.635  13.580 -0.3365  0.2955  0.2087
11926TIP3    H157193   5.837   3.545  13.612 -2.0767  0.2503  0.4131
11926TIP3    H257194   5.804   3.626  13.489  1.2728  0.5689 -0.3317
11927TIP3   OH257195   2.567   6.162  11.885  0.2989 -0.1465 -0.4595
11927TIP3    H157196   2.564   6.227  11.815 -1.7260 -1.0180 -1.2046
11927TIP3    H257197   2.532   6.082  11.845  0.3682 -1.0124  1.1790
11928TIP3   OH257198   1.908   5.474  10.575 -0.2132 -0.6562 -0.0819
11928TIP3    H157199   1.829   5.422  10.584 -0.1673 -0.4991  1.3535
11928TIP3    H257200   1.977   5.409  10.560 -0.3413 -0.9403  0.5080
11929TIP3   OH257201   3.123   2.432   3.073  0.3283  0.3685 -0.0289
11929TIP3    H157202   3.151   2.341   3.074 -2.8340 -0.6566  2.2264
11929TIP3    H257203   3.169   2.473   3.146  1.7534  0.6540 -1.0475
11930TIP3   OH257204   3.213   6.656   4.109 -0.1097  0.3420 -0.0653
11930TIP3    H157205   3.139   6.606   4.143 -0.3930  0.9859  0.2711
11930TIP3    H257206   3.267   6.675   4.186 -0.1679  0.8336 -0.1464
11931TIP3   OH257207   6.611   4.243   0.988 -0.1037  0.1911 -0.5178
11931TIP3    H157208   6.622   4.156   0.948 -0.6168 -0.1524  0.0851
11931TIP3    H257209   6.700   4.279   0.990  0.0825 -0.2311 -0.9746
11932TIP3   OH257210   1.074   3.074  13.386 -0.3869 -0.5338 -0.1351
11932TIP3    H157211   1.153   3.024  13.406 -1.7694 -2.8608 -0.3314
11932TIP3    H257212   1.073   3.145  13.451  2.5935  0.4275 -1.0381
11933TIP3   OH257213   1.864   5.230  13.385 -0.4562  0.1911 -0.3482
11933TIP3    H157214   1.808   5.267  13.454 -0.6025  1.0745 -0.9226
11933TIP3    H257215   1.949   5.220  13.427 -1.0226 -1.0934  0.5161
11934TIP3   OH257216   2.863   4.571   0.777  0.3515  0.5695  0.1316
11934TIP3    H157217   2.846   4.533   0.691  1.8455  0.1502  0.0247
11934TIP3    H257218   2.799   4.643   0.784 -0.0633  0.3350 -1.1369
11935TIP3   OH257219   1.564   0.334   5.124 -0.3026  0.5297 -0.4967
11935TIP3    H157220   1.582   0.415   5.076 -0.3249  0.7194 -0.1801
11935TIP3    H257221   1.617   0.340   5.203 -1.8202  1.1421  0.5013
11936TIP3   OH257222   4.020   0.507   4.019 -0.5534  0.0741 -0.6255
11936TIP3    H157223   3.935   0.496   3.977 -0.9613 -1.0460  0.4903
11936TIP3    H257224   4.081   0.517   3.946 -1.2865 -1.6984 -1.5084
11937TIP3   OH257225   1.651   0.282  14.009 -0.1593  0.3893 -0.4224
11937TIP3    H157226   1.623   0.369  13.984  1.3065  0.6056 -1.4023
11937TIP3    H257227   1.712   0.296  14.082 -1.0979  0.0697  0.4310
11938TIP3   OH257228   1.067   2.739   3.952  0.5122  0.1665  0.1081
11938TIP3    H157229   0.974   2.758   3.965  0.6331  1.1878 -0.4629
11938TIP3    H257230   1.112   2.818   3.981  1.1853 -0.1704 -0.0035
11939TIP3   OH257231   3.302   4.300  13.390  0.5960 -0.3706 -0.0989
11939TIP3    H157232   3.248   4.223  13.407 -0.4921  0.2318 -0.7631
11939TIP3    H257233   3.292   4.316  13.296  0.7790  0.5874  0.0349
11940TIP3   OH257234   4.613   4.484   1.013  0.8827  0.1557 -0.0184
11940TIP3    H157235   4.528   4.482   0.969  0.6220  0.7134  0.4515
11940TIP3    H257236   4.621   4.398   1.054  1.1442 -0.3770 -1.1824
11941TIP3   OH257237   0.800   3.744  16.748 -0.0789  0.0075 -0.2843
11941TIP3    H157238   0.708   3.739  16.774 -0.2007  1.0953 -0.4833
11941TIP3    H257239   0.840   3.666  16.786 -0.8276  0.1549  0.8381
11942TIP3   OH257240   3.542   5.462  15.754 -0.1892 -0.0974 -0.5121
11942TIP3    H157241   3.594   5.490  15.829  1.8804  2.1255 -2.6896
11942TIP3    H257242   3.595   5.395  15.712 -0.5758 -0.1420 -0.9310
11943TIP3   OH257243   4.340   3.193   2.736  0.1129 -0.3114 -0.0268
11943TIP3    H157244   4.361   3.108   2.696 -0.7697 -0.2193 -0.7136
11943TIP3    H257245   4.393   3.196   2.815  0.9070 -1.0771 -0.5145
11944TIP3   OH257246   1.024   4.639  14.805  0.6153 -0.0006  0.0313
11944TIP3    H157247   1.096   4.636  14.742  0.0085  0.0043 -0.6660
11944TIP3    H257248   1.011   4.548  14.831  0.2696 -0.1091 -0.5282
11945TIP3   OH257249   3.988   1.015   1.532 -0.2474  0.1336 -0.4558
11945TIP3    H157250   3.913   0.957   1.519 -0.4242  0.2830 -0.1115
11945TIP3    H257251   4.065   0.959   1.517 -0.3811 -0.5391  1.1957
11946TIP3   OH257252   0.337   0.295   1.823 -0.3031 -0.1083 -0.0189
11946TIP3    H157253   0.355   0.243   1.745 -0.8564 -0.3954  0.0428
11946TIP3    H257254   0.423   0.309   1.863 -0.1254 -0.7992 -0.1521
11947TIP3   OH257255   5.483   5.634   4.476 -0.4112  0.2171  0.4062
11947TIP3    H157256   5.491   5.729   4.483 -1.8113  0.5737 -1.9782
11947TIP3    H257257   5.395   5.620   4.441  0.3467 -1.8577 -0.7822
11948TIP3   OH257258   1.218   5.736  12.738 -0.5766  0.7351 -0.3273
11948TIP3    H157259   1.160   5.678  12.689  0.3270 -0.3981 -0.0773
11948TIP3    H257260   1.165   5.768  12.811 -0.2293 -2.1703  1.2817
11949TIP3   OH257261   2.606   1.937   5.752  0.2254 -0.2087 -0.0126
11949TIP3    H157262   2.654   1.905   5.676  1.9721  0.1467  0.9222
11949TIP3    H257263   2.606   1.863   5.813 -0.5141 -0.2408 -0.0429
11950TIP3   OH257264   1.632   5.003  15.597 -0.9733 -0.2745 -0.4488
11950TIP3    H157265   1.562   5.045  15.646 -1.8559 -1.0225 -1.0729
11950TIP3    H257266   1.622   5.035  15.507  0.3385  0.7059 -0.2605
11951TIP3   OH257267   5.655   3.081  11.844  0.0081  0.7769  0.1414
11951TIP3    H157268   5.696   3.078  11.931  0.0046  0.9726  0.1501
11951TIP3    H257269   5.563   3.062  11.860  0.4563 -1.8155 -0.1291
11952TIP3   OH257270   1.580   0.439  13.425 -0.4041  0.5640  0.3802
11952TIP3    H157271   1.588   0.354  13.468 -0.1311  0.1314 -0.5087
11952TIP3    H257272   1.670   0.473  13.423 -0.5589  1.0206  1.0218
11953TIP3   OH257273   2.471   0.139   4.373  0.1700  0.0953  0.5512
11953TIP3    H157274   2.531   0.114   4.444 -0.6650 -3.2770  0.1471
11953TIP3    H257275   2.388   0.157   4.417 -0.1728 -1.3800  0.5594
11954TIP3   OH257276   2.845   6.560   2.985  0.0394 -0.3025 -0.0487
11954TIP3    H157277   2.762   6.560   2.936 -0.0577  0.2823  0.1123
11954TIP3    H257278   2.819   6.540   3.075  0.1798 -1.0447 -0.1709
11955TIP3   OH257279   2.959   2.446  15.464  0.0872 -0.5080 -0.0401
11955TIP3    H157280   3.002   2.366  15.497 -0.7595 -0.6643  0.7075
11955TIP3    H257281   2.914   2.482  15.540 -0.7050 -0.0780 -0.7022
11956TIP3   OH257282   6.728   5.545   6.296  0.0855  0.3384  0.5079
11956TIP3    H157283   6.766   5.609   6.355 -0.8657  1.4285 -0.0394
11956TIP3    H257284   6.658   5.592   6.251 -2.9361 -1.9725  2.5441
11957TIP3   OH257285   5.906   5.395  11.276  0.2189 -0.0446  0.2230
11957TIP3    H157286   5.829   5.425  11.229  0.0505 -0.0179  0.5122
11957TIP3    H257287   5.971   5.376  11.208  0.3920  1.1367  0.0509
11958TIP3   OH257288   0.625   5.030  14.017 -0.0560 -0.7234  0.1869
11958TIP3    H157289   0.638   5.092  14.088  1.0234 -0.1370 -0.5072
11958TIP3    H257290   0.613   4.945  14.060 -0.9173 -0.1355  1.1110
11959TIP3   OH257291   4.692   2.379  15.628  0.1309  0.2293 -0.3211
11959TIP3    H157292   4.614   2.367  15.681 -0.1940 -2.3464 -1.3115
11959TIP3    H257293   4.661   2.418  15.547  0.1365  0.8931 -0.0059
11960TIP3   OH257294   0.849   0.996   0.834  0.1376  0.9880  0.3973
11960TIP3    H157295   0.924   1.055   0.845 -0.0048  0.9740  1.4843
11960TIP3    H257296   0.805   1.028   0.756  0.4497  1.9069  0.5863
11961TIP3   OH257297   4.689   3.198   0.195 -0.4505 -0.1565  0.1342
11961TIP3    H157298   4.747   3.228   0.125 -0.5965  0.5087  0.2969
11961TIP3    H257299   4.609   3.169   0.150 -1.2884  2.0342  0.1526
11962TIP3   OH257300   5.146   3.160   1.702 -0.0658  0.8045  0.0359
11962TIP3    H157301   5.084   3.182   1.771 -0.3062 -0.1703  0.1367
11962TIP3    H257302   5.232   3.183   1.738 -0.2081  0.4871  0.5705
11963TIP3   OH257303   6.765   6.323   5.555  0.2817 -0.2198  0.0926
11963TIP3    H157304   6.700   6.255   5.538 -0.5714  0.5345  0.3251
11963TIP3    H257305   6.789   6.355   5.468 -0.7192  0.4899  0.0716
11964TIP3   OH257306   6.088   2.464  13.130  0.2577  0.4616 -0.1880
11964TIP3    H157307   6.139   2.520  13.189  1.4946 -0.0158 -0.7907
11964TIP3    H257308   6.135   2.380  13.130 -0.7366 -0.1031 -0.4669
11965TIP3   OH257309   4.208   0.548   3.799  0.4103 -0.2629  0.3489
11965TIP3    H157310   4.281   0.488   3.787  0.1118 -0.7552  0.9895
11965TIP3    H257311   4.249   0.635   3.803  1.0337 -0.5993  1.4285
11966TIP3   OH257312   1.794   5.859  14.452  0.0277  1.1470 -0.7752
11966TIP3    H157313   1.879   5.829  14.486 -1.3547 -3.3316 -1.0180
11966TIP3    H257314   1.814   5.886  14.362  1.0857 -0.6874 -1.1274
11967TIP3   OH257315   3.375   4.836   5.240 -0.2107 -0.4855 -0.0607
11967TIP3    H157316   3.443   4.796   5.186 -0.7920  0.8717 -1.8448
11967TIP3    H257317   3.372   4.783   5.319  3.0345 -0.4679  0.1153
11968TIP3   OH257318   3.905   5.556  11.164 -0.8952 -0.3168 -0.7191
11968TIP3    H157319   3.899   5.509  11.081 -0.5356 -2.1856  0.3045
11968TIP3    H257320   3.999   5.560  11.182 -1.0843 -2.0902  0.8049
11969TIP3   OH257321   6.199   5.123   0.206 -0.3104 -0.2678 -0.4329
11969TIP3    H157322   6.123   5.143   0.150  0.7821  3.8091 -0.5995
11969TIP3    H257323   6.163   5.065   0.273 -2.3909 -2.6277 -3.3837
11970TIP3   OH257324   0.762   2.868  12.850  0.5150 -0.8413 -0.5766
11970TIP3    H157325   0.828   2.851  12.917 -0.4792  1.1397  0.9644
11970TIP3    H257326   0.797   2.941  12.798  0.2407 -0.8198 -0.7361
11971TIP3   OH257327   5.666   0.688  12.063 -0.1616 -0.3421  0.1410
11971TIP3    H157328   5.609   0.634  12.008 -0.6573 -1.5911  1.8528
11971TIP3    H257329   5.673   0.770  12.015  0.2778 -1.7554 -2.3208
11972TIP3   OH257330   4.866   0.438  15.960  0.3653  0.2506  0.0556
11972TIP3    H157331   4.789   0.462  16.011  0.6505  0.3943  0.4246
11972TIP3    H257332   4.900   0.521  15.926  0.2441  0.1679 -0.2753
11973TIP3   OH257333   6.649   1.868  15.720 -0.0148 -0.4430 -0.1156
11973TIP3    H157334   6.637   1.956  15.683  0.9415  0.1935  1.0606
11973TIP3    H257335   6.648   1.882  15.815 -1.9604 -1.9876  0.1291
11974TIP3   OH257336   0.635   6.534  11.353  0.3307  0.0572 -0.1420
11974TIP3    H157337   0.579   6.529  11.276 -0.0402  1.7219  0.0018
11974TIP3    H257338   0.629   6.447  11.393 -0.8104 -0.2942 -1.0512
11975TIP3   OH257339   5.080   4.503   0.225  0.1794  0.4412  0.2415
11975TIP3    H157340   5.016   4.437   0.254 -1.6952  0.6597 -3.1419
11975TIP3    H257341   5.162   4.454   0.218 -0.5869 -0.9143  0.4375
11976TIP3   OH257342   5.021   6.593  13.273 -0.0168 -0.5074  0.1293
11976TIP3    H157343   5.097   6.547  13.238 -1.3230 -1.0313 -2.1856
11976TIP3    H257344   5.001   6.548  13.355  0.3005 -2.4282 -0.8077
11977TIP3   OH257345   0.043   1.756   3.784  1.1361  0.0281  0.2381
11977TIP3    H157346  -0.013   1.819   3.830  0.9110 -0.2161  0.2936
11977TIP3    H257347   0.132   1.788   3.801  0.9366  2.1203 -2.2924
11978TIP3   OH257348   4.338   6.752   2.865 -0.0288  0.5664  0.0949
11978TIP3    H157349   4.390   6.822   2.826 -1.1277  0.4258 -1.6936
11978TIP3    H257350   4.278   6.726   2.795 -1.6788 -0.0877  1.7379
11979TIP3   OH257351   2.358   0.129  16.185  0.4198 -0.0073 -0.4421
11979TIP3    H157352   2.322   0.194  16.126 -0.9532  0.6981  1.1205
11979TIP3    H257353   2.453   0.143  16.182  0.2022  1.4788 -0.8044
11980TIP3   OH257354   0.363   3.410   4.610  0.8712  0.2713  0.7406
11980TIP3    H157355   0.342   3.503   4.600  1.1934  0.3025  0.3418
11980TIP3    H257356   0.278   3.366   4.612  0.6991  0.6418  1.6369
11981TIP3   OH257357   0.092   6.136  14.258  0.0742  0.0031 -0.5396
11981TIP3    H157358   0.171   6.157  14.208 -0.9257  1.6105 -1.5140
11981TIP3    H257359   0.033   6.097  14.194 -0.5201  0.3326 -0.1970
11982TIP3   OH257360   5.946   6.243   5.917  0.0939 -0.5480 -0.8369
11982TIP3    H157361   5.941   6.222   6.011  2.0655 -0.8497 -0.7722
11982TIP3    H257362   5.916   6.334   5.911  0.1793 -0.4507  0.1291
11983TIP3   OH257363   5.763   5.166  13.201 -0.4364 -0.3985  0.4766
11983TIP3    H157364   5.811   5.220  13.138  0.5627  0.0471  1.6055
11983TIP3    H257365   5.727   5.228  13.264  0.1636 -0.9839  1.4068
11984TIP3   OH257366   3.236   4.197   6.706 -0.0493 -0.5128 -0.3801
11984TIP3    H157367   3.296   4.271   6.702 -0.2269 -0.3127  0.5863
11984TIP3    H257368   3.293   4.120   6.699  0.2517 -0.3107 -0.1546
11985TIP3   OH257369   5.239   3.513   5.521 -0.9977  0.3527  0.4170
11985TIP3    H157370   5.230   3.594   5.570 -0.0752  1.3815 -1.0577
11985TIP3    H257371   5.203   3.533   5.434  2.4177  0.2813 -1.0770
11986TIP3   OH257372   0.550   4.503  16.689  0.4767  0.2344  0.1134
11986TIP3    H157373   0.547   4.509  16.784  0.2132  2.3509 -0.0164
11986TIP3    H257374   0.477   4.446  16.667  0.5847 -0.3306  1.1763
11987TIP3   OH257375   4.812   1.708   0.930 -0.2661  0.4797  0.3493
11987TIP3    H157376   4.892   1.733   0.976 -0.7116 -1.1965  2.0766
11987TIP3    H257377   4.764   1.790   0.921  0.2684  1.0017  2.0276
11988TIP3   OH257378   3.658   5.627  15.546  0.0777 -0.3827 -0.4770
11988TIP3    H157379   3.690   5.537  15.551  2.1848  0.4080  1.0211
11988TIP3    H257380   3.630   5.648  15.635  0.1348  0.6500 -0.6919
11989TIP3   OH257381   4.339   3.332   4.713  0.0348  0.0282 -0.7354
11989TIP3    H157382   4.364   3.271   4.644 -1.5567  0.4145 -1.6796
11989TIP3    H257383   4.389   3.303   4.789  0.6115 -1.3837 -1.6191
11990TIP3   OH257384   2.998   6.151  15.995  0.3418  0.2764  0.5644
11990TIP3    H157385   2.914   6.196  15.990 -0.1140 -0.6242 -0.0044
11990TIP3    H257386   3.062   6.221  16.003 -0.2907  1.0836 -1.1068
11991TIP3   OH257387   4.029   0.350   5.659 -0.1631  0.1850 -0.3365
11991TIP3    H157388   4.010   0.257   5.671 -1.1771  0.4005 -0.2174
11991TIP3    H257389   3.972   0.394   5.722  0.8813  0.8493  0.1556
11992TIP3   OH257390   6.435   1.098   3.971 -0.3586 -0.4344 -0.1474
11992TIP3    H157391   6.373   1.038   3.928  0.9586 -0.8946 -1.4623
11992TIP3    H257392   6.463   1.051   4.049 -0.2549 -1.0474 -0.5436
11993TIP3   OH257393   6.227   1.469  14.288 -0.6483  0.2562  0.4846
11993TIP3    H157394   6.227   1.555  14.245 -1.4997  0.2810  0.5372
11993TIP3    H257395   6.159   1.475  14.354 -1.1684 -0.6814  0.0466
11994TIP3   OH257396   1.034   1.120  11.856  0.2574 -0.0570  0.3627
11994TIP3    H157397   1.093   1.110  11.781 -2.4782 -0.1224 -1.9014
11994TIP3    H257398   1.037   1.213  11.877  0.4878  0.0897 -0.3121
11995TIP3   OH257399   6.369   2.200  11.956  0.0930 -0.2951 -0.4176
11995TIP3    H157400   6.450   2.206  11.906 -0.6995  0.9683 -1.5895
11995TIP3    H257401   6.303   2.238  11.899 -0.7506  1.6791  1.8088
11996TIP3   OH257402   3.129   3.379  12.504 -0.1840 -0.0338 -0.6217
11996TIP3    H157403   3.039   3.367  12.534  0.1190 -0.4074  0.1663
11996TIP3    H257404   3.181   3.325  12.564  0.7136  1.4023 -0.0783
11997TIP3   OH257405   2.718   2.756   1.793 -0.0615 -0.5373  0.3728
11997TIP3    H157406   2.667   2.751   1.713 -1.4159  1.1962  1.0932
11997TIP3    H257407   2.767   2.839   1.786 -0.3103 -0.2966  1.3900
11998TIP3   OH257408   2.025   2.998   3.415 -0.4192 -0.5602 -0.2322
11998TIP3    H157409   2.093   3.001   3.348  0.4822 -1.7958  0.5967
11998TIP3    H257410   1.976   3.079   3.403  0.0952 -0.4865 -1.9873
11999TIP3   OH257411   6.522   1.269  12.892  0.8215 -0.2335 -0.2863
11999TIP3    H157412   6.500   1.191  12.842 -3.1558  1.7239 -1.7644
11999TIP3    H257413   6.568   1.326  12.830  1.0490 -0.1493 -0.0463
12000TIP3   OH257414   0.502   1.060  11.856  0.1278  0.3127  0.5908
12000TIP3    H157415   0.493   0.986  11.796 -1.0825  0.1085  1.0122
12000TIP3    H257416   0.595   1.061  11.880  0.7992  0.8396 -1.8389
12001TIP3   OH257417   3.500   4.247   6.037  0.1258 -0.0240 -0.4430
12001TIP3    H157418   3.453   4.289   6.109  1.1290 -0.3953  0.4399
12001TIP3    H257419   3.433   4.194   5.993 -0.5384  0.3565  0.0917
12002TIP3   OH257420   4.112   5.637  13.538  0.0730 -0.3417  0.1330
12002TIP3    H157421   4.085   5.691  13.612  1.7321  0.4543  0.1912
12002TIP3    H257422   4.031   5.618  13.491 -0.6751  1.3347  0.6874
12003TIP3   OH257423   4.723   6.667   3.972  0.6850  0.1530 -0.1800
12003TIP3    H157424   4.675   6.745   3.999  0.8319  0.7897 -1.7168
12003TIP3    H257425   4.811   6.699   3.952  1.1181 -0.6303  0.4158
12004TIP3   OH257426   5.464   0.277  11.624  0.1277  0.6500 -0.5280
12004TIP3    H157427   5.435   0.229  11.702  0.3664 -0.5078 -1.1426
12004TIP3    H257428   5.383   0.311  11.586 -0.2860 -1.1780 -1.3306
12005TIP3   OH257429   2.070   6.494  12.538 -0.0967 -0.2832 -0.0785
12005TIP3    H157430   2.125   6.416  12.546  0.3427 -0.0145 -0.5113
12005TIP3    H257431   2.109   6.544  12.467  0.7978  1.2958  1.4987
12006TIP3   OH257432   0.535   1.041  12.787  0.2535 -0.7615 -0.1247
12006TIP3    H157433   0.548   1.125  12.830  0.5994  0.0338 -1.7562
12006TIP3    H257434   0.450   1.010  12.819  0.8443 -0.5608  1.6992
12007TIP3   OH257435   4.878   1.064  15.059  0.5308  0.0991 -0.5359
12007TIP3    H157436   4.874   1.113  14.977  0.9726 -1.2981 -1.4134
12007TIP3    H257437   4.959   1.013  15.052  0.9648  0.5373  1.1061
12008TIP3   OH257438   4.302   0.149  14.223  0.0199  0.3238 -0.7231
12008TIP3    H157439   4.371   0.084  14.242 -0.8644  0.5262  3.4827
12008TIP3    H257440   4.339   0.232  14.253 -1.9803  0.4407  1.5087
12009TIP3   OH257441   1.022   0.995  11.313  0.4443 -0.2135 -0.9634
12009TIP3    H157442   0.964   1.063  11.346  0.2364  1.3235 -4.2339
12009TIP3    H257443   1.079   0.973  11.386 -1.0145  1.8178  0.8330
12010TIP3   OH257444   0.420   3.450   2.179  0.1560 -0.0328 -0.1749
12010TIP3    H157445   0.348   3.507   2.154  0.8676  0.8998 -0.1436
12010TIP3    H257446   0.468   3.434   2.098  0.9849  0.8856  0.1272
12011TIP3   OH257447   1.293   2.563  17.049  0.4605 -0.6048  0.3582
12011TIP3    H157448   1.230   2.534  17.115  1.6749 -1.9340  0.9494
12011TIP3    H257449   1.281   2.501  16.977 -0.2358  0.3072 -0.3270
12012TIP3   OH257450   2.497   5.568   2.295  0.1450 -0.4897  0.0622
12012TIP3    H157451   2.581   5.578   2.341 -0.8693 -1.6031  2.2195
12012TIP3    H257452   2.483   5.473   2.292  0.4754 -0.4986 -3.1530
12013TIP3   OH257453   5.222   6.523  13.078 -0.2585 -0.2655 -0.6012
12013TIP3    H157454   5.174   6.565  13.006  1.4963  1.9518 -0.5305
12013TIP3    H257455   5.175   6.441  13.093 -1.5353 -0.0913 -3.2919
12014TIP3   OH257456   4.101   5.224   3.667  0.1798  0.4569  0.5337
12014TIP3    H157457   4.160   5.295   3.642  0.5667 -1.3461 -4.1849
12014TIP3    H257458   4.159   5.151   3.689 -0.2153 -0.0744 -0.1595
12015TIP3   OH257459   5.359   4.741   3.473  0.0966 -0.4617 -0.0943
12015TIP3    H157460   5.409   4.729   3.554  0.7999  1.5795 -0.1955
12015TIP3    H257461   5.399   4.680   3.411  1.7055  0.2843  0.1828
12016TIP3   OH257462   0.385   1.265   0.547  0.2998  0.0121 -0.2541
12016TIP3    H157463   0.348   1.190   0.500 -0.2938 -0.2054  0.5303
12016TIP3    H257464   0.465   1.230   0.587  1.4905  0.5496 -2.1554
12017TIP3   OH257465   4.608   2.467  11.084  0.2213 -0.2680 -0.0079
12017TIP3    H157466   4.653   2.534  11.134  1.5601 -1.4461  0.3926
12017TIP3    H257467   4.541   2.434  11.143 -3.3628  3.6326 -1.6468
12018TIP3   OH257468   1.120   3.691   1.704 -0.0554  0.0497 -0.3051
12018TIP3    H157469   1.074   3.756   1.757 -3.8504 -2.1633 -0.7570
12018TIP3    H257470   1.167   3.637   1.769  1.9001  2.2451  0.1621
12019TIP3   OH257471   6.148   3.690   6.099 -0.4486  0.1655 -0.0025
12019TIP3    H157472   6.162   3.738   6.017  1.4330  0.9044  0.7238
12019TIP3    H257473   6.196   3.741   6.165 -0.8826 -1.1183  1.3313
12020TIP3   OH257474   6.626   1.381   1.745 -0.5494  0.3378 -0.6651
12020TIP3    H157475   6.553   1.407   1.802  0.0901  2.1847 -0.6634
12020TIP3    H257476   6.603   1.417   1.659  0.9994  2.1492 -0.3488
12021TIP3   OH257477   4.515   1.875  15.735 -0.3196 -0.7456  0.2948
12021TIP3    H157478   4.569   1.929  15.793  0.8468  1.2475 -2.5174
12021TIP3    H257479   4.577   1.841  15.670 -1.9944 -0.6466 -1.4111
12022TIP3   OH257480   1.465   2.529  14.019  0.0913  0.1973  0.0386
12022TIP3    H157481   1.432   2.603  14.070  0.8345 -0.0119  0.8441
12022TIP3    H257482   1.388   2.496  13.973 -1.2117 -1.2746  3.1133
12023TIP3   OH257483   3.694   2.994  13.066  0.0250  0.7977 -0.1095
12023TIP3    H157484   3.619   2.987  13.126  0.5935  0.8555  0.6166
12023TIP3    H257485   3.722   3.085  13.073  1.0549  0.4357  0.7303
12024TIP3   OH257486   4.966   6.602  12.378  0.6067 -0.3347 -0.3177
12024TIP3    H157487   5.026   6.592  12.304 -0.7529 -3.0079 -1.1362
12024TIP3    H257488   4.894   6.654  12.343  0.3870 -0.8370 -0.6177
12025TIP3   OH257489   0.627   3.511   6.313  0.2451 -0.4462  0.3978
12025TIP3    H157490   0.627   3.476   6.224 -1.3352  0.3478  0.0786
12025TIP3    H257491   0.687   3.453   6.361  0.6532 -1.2328 -1.0283
12026TIP3   OH257492   5.765   3.192  14.155  0.0694  0.8881 -0.2274
12026TIP3    H157493   5.810   3.137  14.091  0.8622 -0.1460  1.2138
12026TIP3    H257494   5.759   3.138  14.234 -0.2746  2.4046  0.8045
12027TIP3   OH257495   6.457   1.565  13.809 -0.4660  0.3672 -0.2397
12027TIP3    H157496   6.536   1.598  13.852 -1.0062  0.8632  0.3955
12027TIP3    H257497   6.408   1.644  13.785 -0.6270  0.0724 -0.8923
12028TIP3   OH257498   3.797   3.089   3.035  0.1459  0.3321 -0.7003
12028TIP3    H157499   3.830   3.178   3.043 -0.1045  0.3468  0.1859
12028TIP3    H257500   3.703   3.096   3.050 -0.1913  0.1848 -2.5400
12029TIP3   OH257501   1.191   3.650  17.196  0.2473 -0.0473  0.0128
12029TIP3    H157502   1.220   3.601  17.273  0.3825 -0.4325 -0.2830
12029TIP3    H257503   1.243   3.614  17.124 -0.0670  0.1293 -0.3062
12030TIP3   OH257504   6.038   0.184  16.091 -0.2094  0.6737 -0.1332
12030TIP3    H157505   6.123   0.184  16.134 -0.2327  1.0897 -0.0843
12030TIP3    H257506   6.053   0.228  16.008  0.5238 -2.8517 -1.9748
12031TIP3   OH257507   1.180   5.559  11.849 -0.2808  0.3248 -0.0308
12031TIP3    H157508   1.182   5.544  11.754  0.6497 -1.4709  0.2513
12031TIP3    H257509   1.134   5.482  11.884 -2.0382  1.7456  0.8463
12032TIP3   OH257510   2.792   5.426   5.594  0.2502 -0.0598 -0.1002
12032TIP3    H157511   2.735   5.430   5.670  0.3381  1.0647 -0.0867
12032TIP3    H257512   2.881   5.424   5.631  0.3108  1.0090 -0.1802
12033TIP3   OH257513   1.016   0.586  14.673  0.7276 -0.1893 -0.0597
12033TIP3    H157514   0.996   0.652  14.606 -0.9945 -0.7077 -0.0636
12033TIP3    H257515   0.992   0.503  14.632  2.2665 -0.7742  0.1962
12034TIP3   OH257516   6.734   2.896   3.188  0.0207  0.3674  0.1148
12034TIP3    H157517   6.760   2.987   3.204 -0.3797  0.4398  0.3478
12034TIP3    H257518   6.756   2.851   3.270 -1.1432  0.5483  0.5387
12035TIP3   OH257519   5.499   1.227   5.556 -0.3616 -0.0405 -0.3473
12035TIP3    H157520   5.505   1.316   5.591  0.6526 -0.2675  0.0636
12035TIP3    H257521   5.568   1.179   5.600  1.2793 -0.2133 -2.9792
12036TIP3   OH257522   5.823   1.188   3.872 -0.1488 -0.1338 -0.0591
12036TIP3    H157523   5.759   1.237   3.820 -0.6872 -0.2568  0.4668
12036TIP3    H257524   5.907   1.229   3.853 -0.4212  0.1798 -0.5926
12037TIP3   OH257525   2.433   5.747   4.611  0.5817 -0.0138  0.7106
12037TIP3    H157526   2.481   5.687   4.667  0.8033 -0.8706 -0.3692
12037TIP3    H257527   2.386   5.804   4.671  2.0278  0.0860  1.7725
12038TIP3   OH257528   5.619   2.030  14.793 -0.3961 -0.0752  0.6561
12038TIP3    H157529   5.664   1.979  14.860 -2.5150 -1.7692  0.8797
12038TIP3    H257530   5.526   2.007  14.805 -1.1828  2.2864 -0.5983
12039TIP3   OH257531   1.747   0.925  15.322  0.0540  0.1694 -0.1949
12039TIP3    H157532   1.704   0.944  15.406 -2.1518 -0.1387 -1.1991
12039TIP3    H257533   1.839   0.912  15.344 -0.4051  0.5716  2.1100
12040TIP3   OH257534   0.579   4.343  13.347  0.1938  0.2405  0.3707
12040TIP3    H157535   0.657   4.399  13.341  0.2675  0.3183  1.8440
12040TIP3    H257536   0.524   4.372  13.275  1.4320  0.3254 -0.5688
12041TIP3   OH257537   0.654   1.527   4.046 -0.2794 -0.2954  0.3151
12041TIP3    H157538   0.657   1.468   3.970  1.7940 -0.7383  0.6851
12041TIP3    H257539   0.739   1.513   4.089 -0.5874  1.5029  1.5355
12042TIP3   OH257540   6.473   2.672  16.582 -0.3459  0.2600  0.0845
12042TIP3    H157541   6.391   2.663  16.632 -0.6310  0.0189 -0.4240
12042TIP3    H257542   6.486   2.586  16.543  0.0218  0.3722 -0.0388
12043TIP3   OH257543   3.275   4.765   1.759 -0.1558  0.4386  0.2533
12043TIP3    H157544   3.293   4.728   1.672  2.3664 -0.0236  0.9369
12043TIP3    H257545   3.298   4.695   1.820 -0.2512  1.3564  1.3593
12044TIP3   OH257546   1.009   5.949  13.095 -0.2829 -0.0451 -0.5683
12044TIP3    H157547   1.011   5.857  13.122 -1.1824  0.1416  0.1751
12044TIP3    H257548   0.916   5.971  13.092 -0.0656  0.8972 -0.5228
12045TIP3   OH257549   2.556   2.994  12.314 -0.1475  0.1225  0.0032
12045TIP3    H157550   2.537   2.915  12.365 -4.7618 -0.3820 -2.1887
12045TIP3    H257551   2.633   2.972  12.262  0.4589 -1.8367  1.6965
12046TIP3   OH257552   4.890   3.142   3.641  0.4698  0.0290  0.3131
12046TIP3    H157553   4.802   3.120   3.612 -0.0513 -1.8215  3.0793
12046TIP3    H257554   4.947   3.096   3.580 -0.4564  1.4802 -1.6725
12047TIP3   OH257555   1.888   3.879   1.965 -0.2723 -0.9528 -0.6136
12047TIP3    H157556   1.917   3.970   1.973  0.2965 -1.1751 -0.1283
12047TIP3    H257557   1.968   3.827   1.964 -0.5578 -1.3976 -1.7929
12048TIP3   OH257558   1.426   4.248   6.148  0.6423 -0.2058 -0.0556
12048TIP3    H157559   1.431   4.339   6.179 -0.8349  0.2421 -1.0887
12048TIP3    H257560   1.371   4.204   6.212  0.5092 -0.1310 -0.1193
12049TIP3   OH257561   2.978   5.536  16.229  0.2288  0.3818  0.0015
12049TIP3    H157562   3.008   5.502  16.144  2.1332  0.7726  0.4971
12049TIP3    H257563   2.978   5.631  16.218 -1.4225  0.3805 -0.1657
12050TIP3   OH257564   6.408   2.821  12.744  0.0132 -0.5186  0.2605
12050TIP3    H157565   6.394   2.831  12.650  2.5580  0.3032 -0.0568
12050TIP3    H257566   6.336   2.869  12.785 -1.1787 -0.9963 -1.2528
12051TIP3   OH257567   0.086   2.277  13.369 -0.5095  0.5424  0.5513
12051TIP3    H157568   0.034   2.282  13.289  0.4412 -0.1258 -0.1245
12051TIP3    H257569   0.028   2.307  13.438 -2.0344 -0.9481 -0.0634
12052TIP3   OH257570   2.665   5.863  10.818  0.8390  0.0144  0.3389
12052TIP3    H157571   2.592   5.922  10.839  0.8728  0.2132 -0.1012
12052TIP3    H257572   2.658   5.849  10.723  1.5201  0.2239  0.2556
12053TIP3   OH257573   2.606   0.198  10.765 -0.7026  0.4655  0.0968
12053TIP3    H157574   2.695   0.169  10.786 -1.1323  0.5008  2.0557
12053TIP3    H257575   2.589   0.161  10.679  1.2795  0.6264 -0.3912
12054TIP3   OH257576   1.008   0.522   0.914 -0.1344 -0.5886 -0.1182
12054TIP3    H157577   0.940   0.500   0.977 -0.4752 -0.8290 -0.5680
12054TIP3    H257578   0.978   0.604   0.875 -0.6368 -1.1736 -0.9824
12055TIP3   OH257579   4.534   0.101  10.878 -0.2633  0.1375 -0.3827
12055TIP3    H157580   4.481   0.177  10.858 -0.7617  0.8863  3.3826
12055TIP3    H257581   4.478   0.026  10.856 -0.8901  0.8718 -1.3169
12056TIP3   OH257582   2.821   4.355  16.970 -0.2314  0.5426 -0.4208
12056TIP3    H157583   2.755   4.372  16.903  0.9121  1.8935 -1.2240
12056TIP3    H257584   2.862   4.272  16.942 -1.7042 -0.4169  0.2007
12057TIP3   OH257585   4.494   4.556   0.290  0.0890 -0.0933 -0.2891
12057TIP3    H157586   4.567   4.518   0.339  1.0818  0.2523 -1.4568
12057TIP3    H257587   4.478   4.641   0.331 -1.5093 -1.3080  1.7264
12058TIP3   OH257588   2.483   6.430  16.137 -0.1979  0.5113  0.5741
12058TIP3    H157589   2.528   6.474  16.065 -1.2335 -1.0917 -1.0738
12058TIP3    H257590   2.553   6.395  16.192  0.5823 -0.2980 -0.9317
12059TIP3   OH257591   1.788   3.085   4.226 -0.5990  0.0841 -0.3566
12059TIP3    H157592   1.848   3.059   4.156 -0.5288  0.5188 -0.4591
12059TIP3    H257593   1.715   3.128   4.181 -0.2162  0.9990 -0.1164
12060TIP3   OH257594   6.207   3.307  12.108  0.3958  0.0437  0.4526
12060TIP3    H157595   6.208   3.397  12.077 -1.2819 -0.2448 -0.5576
12060TIP3    H257596   6.298   3.279  12.106  0.9796  1.8743  1.2755
12061TIP3   OH257597   5.623   1.972   2.252 -0.7310 -0.1457  0.4338
12061TIP3    H157598   5.689   1.975   2.184  0.5764  0.8161  1.7283
12061TIP3    H257599   5.665   1.927   2.326 -1.4461  0.6231  1.3301
12062TIP3   OH257600   1.607   0.157  15.899  0.1713  0.2379 -0.2271
12062TIP3    H157601   1.558   0.157  15.817  0.2956 -1.3719 -0.3169
12062TIP3    H257602   1.571   0.231  15.948 -1.4640 -0.1351 -0.8268
12063TIP3   OH257603   0.472   5.171   2.268 -0.1180 -0.2933  0.3482
12063TIP3    H157604   0.555   5.215   2.253 -0.6963  0.4091 -0.8982
12063TIP3    H257605   0.468   5.158   2.362  1.6744 -0.8853  0.3536
12064TIP3   OH257606   0.043   4.154   4.795 -0.0387 -0.2793 -0.1441
12064TIP3    H157607  -0.024   4.184   4.735 -0.7953  0.9051  1.2572
12064TIP3    H257608   0.010   4.178   4.882  1.2879 -1.4283  0.7053
12065TIP3   OH257609   6.335   4.163   1.153 -0.1344  0.8800 -0.5464
12065TIP3    H157610   6.429   4.168   1.136  0.1781 -1.6852  0.1950
12065TIP3    H257611   6.294   4.173   1.067  0.8901  0.5473 -1.0779
12066TIP3   OH257612   2.909   4.177   4.039 -0.8984 -0.6640  0.0591
12066TIP3    H157613   2.887   4.261   4.000 -1.0829 -0.9210 -0.3864
12066TIP3    H257614   2.874   4.182   4.128  1.7974  0.9477  1.1255
12067TIP3   OH257615   6.736   6.065  12.499  0.1622 -0.1829 -0.4645
12067TIP3    H157616   6.819   6.106  12.522 -0.6856 -0.5285  3.6123
12067TIP3    H257617   6.759   5.974  12.478  0.8090 -0.3612  0.9669
12068TIP3   OH257618   6.643   3.993   0.861 -0.0013  0.1974 -0.2025
12068TIP3    H157619   6.738   3.988   0.852 -0.2844  0.1622 -3.7015
12068TIP3    H257620   6.609   3.973   0.774 -3.2738 -0.8225  1.2353
12069TIP3   OH257621   2.482   2.403  11.530  0.4050 -0.0978  0.6408
12069TIP3    H157622   2.476   2.371  11.440 -0.3959  1.1927  0.2205
12069TIP3    H257623   2.539   2.479  11.525  0.6114 -0.2022  1.2906
12070TIP3   OH257624   4.524   1.186  15.760  0.0071 -0.5596  0.0750
12070TIP3    H157625   4.516   1.195  15.855  0.3419  1.4580 -0.0698
12070TIP3    H257626   4.619   1.181  15.745 -0.0890 -1.9444 -0.0626
12071TIP3   OH257627   5.355   3.700   1.241 -0.1901 -0.5004 -0.1532
12071TIP3    H157628   5.406   3.776   1.214  1.5210 -2.1900 -1.7786
12071TIP3    H257629   5.306   3.730   1.318  1.0254  2.0049 -0.3203
12072TIP3   OH257630   3.826   3.873  11.961  0.2983 -0.1488 -0.2986
12072TIP3    H157631   3.893   3.910  11.903  0.9570 -0.9622 -0.0692
12072TIP3    H257632   3.875   3.839  12.035 -0.1133 -2.9372 -1.2513
12073TIP3   OH257633   5.870   1.451  10.486  0.3779 -0.2552  0.0644
12073TIP3    H157634   5.783   1.414  10.502 -0.5897  0.8983 -2.3451
12073TIP3    H257635   5.930   1.376  10.493 -1.3230 -1.9615 -2.8100
12074TIP3   OH257636   5.756   6.119  14.683  0.3170  0.4878  0.0541
12074TIP3    H157637   5.783   6.195  14.735 -0.5863  0.3398  0.7498
12074TIP3    H257638   5.733   6.156  14.598  1.5448  0.7667 -0.1675
12075TIP3   OH257639   2.094   3.385   3.082  0.0895  0.0952  0.0543
12075TIP3    H157640   2.092   3.374   2.987 -1.4466  0.2098  0.0658
12075TIP3    H257641   2.010   3.352   3.112  0.9007 -0.7448  1.4789
12076TIP3   OH257642   1.665   3.200   4.455  0.0151 -0.3977 -0.3197
12076TIP3    H157643   1.578   3.162   4.460  0.0870 -0.7204 -1.4473
12076TIP3    H257644   1.712   3.147   4.390  1.1014 -0.3347  0.3942
12077TIP3   OH257645   2.833   6.409   4.194  0.7125 -0.4859  0.3681
12077TIP3    H157646   2.794   6.466   4.261  0.8419 -1.5846  1.3919
12077TIP3    H257647   2.780   6.424   4.116 -0.8669 -0.8995  1.3392
12078TIP3   OH257648   3.774   3.797   2.812 -0.3937  0.1494 -0.2957
12078TIP3    H157649   3.754   3.782   2.720  0.9095 -2.2028 -0.2264
12078TIP3    H257650   3.700   3.757   2.859 -0.0383 -0.5010 -0.2815
12079TIP3   OH257651   6.375   4.209  11.498  0.2706  0.1918 -0.1890
12079TIP3    H157652   6.425   4.131  11.523 -1.2810 -0.5262  0.7113
12079TIP3    H257653   6.435   4.282  11.516  0.7599 -0.6038  1.5463
12080TIP3   OH257654   4.564   3.966  12.396 -0.3649 -0.0731 -0.3075
12080TIP3    H157655   4.566   4.032  12.466 -0.6661  0.9648 -1.2589
12080TIP3    H257656   4.493   3.907  12.421  0.1474 -0.2581  0.7440
12081TIP3   OH257657   0.528   3.700  12.728 -0.0612  0.8793  0.3201
12081TIP3    H157658   0.517   3.759  12.803 -0.5931  0.5213  0.5326
12081TIP3    H257659   0.622   3.698  12.713  0.0954  0.6284  1.2609
12082TIP3   OH257660   4.124   3.387  14.172  0.0435 -0.6004 -0.1126
12082TIP3    H157661   4.119   3.335  14.253  4.0382  1.1678  1.3890
12082TIP3    H257662   4.210   3.367  14.136 -0.8168  0.3315 -2.8321
12083TIP3   OH257663   6.176   3.428   2.422 -0.5496  0.5891  0.0352
12083TIP3    H157664   6.138   3.497   2.477  0.4572  1.1820 -0.0171
12083TIP3    H257665   6.268   3.452   2.412 -0.2521 -0.6015 -0.2283
12084TIP3   OH257666   0.123   0.767   0.361  0.4137 -0.0384 -0.5171
12084TIP3    H157667   0.133   0.693   0.300 -2.4655 -0.0318 -1.0682
12084TIP3    H257668   0.128   0.845   0.306  1.2137  0.1063 -0.2471
12085TIP3   OH257669   2.049   2.287  14.296 -0.1294 -0.2044  0.3706
12085TIP3    H157670   2.119   2.347  14.271  0.5100 -0.0706  2.4010
12085TIP3    H257671   2.063   2.210  14.243  3.9545 -1.7522  3.4325
12086TIP3   OH257672   2.217   0.086   0.701  1.2350 -0.6088 -0.2133
12086TIP3    H157673   2.280   0.131   0.757  0.3061  1.9391 -1.1501
12086TIP3    H257674   2.263   0.074   0.618  0.3779  1.6850 -1.0549
12087TIP3   OH257675   1.832   0.060   3.676  0.3829  0.1630  0.1824
12087TIP3    H157676   1.813   0.153   3.662  1.6945  0.2740 -0.9297
12087TIP3    H257677   1.877   0.032   3.597  1.9740 -0.8874  1.4227
12088TIP3   OH257678   3.960   3.065  12.272 -0.3764  0.1867 -0.1142
12088TIP3    H157679   3.994   3.087  12.359 -3.4827  3.4596  0.4212
12088TIP3    H257680   3.981   3.141  12.218 -0.9636 -0.5992 -1.4841
12089TIP3   OH257681   3.740   3.760   0.028 -0.3468  0.7296  0.4176
12089TIP3    H157682   3.697   3.844   0.048 -0.5082  0.5828  0.6862
12089TIP3    H257683   3.739   3.712   0.110 -0.6886  0.2664  0.1483
12090TIP3   OH257684   6.428   2.384   2.950 -0.4984  0.2445  0.3158
12090TIP3    H157685   6.497   2.438   2.987  0.0019  0.1046 -0.4022
12090TIP3    H257686   6.388   2.340   3.025  0.4230  0.0534  0.6995
12091TIP3   OH257687   5.441   4.944  16.091  0.2968  0.2583 -0.0095
12091TIP3    H157688   5.460   4.859  16.051  1.6844  1.0876 -1.1401
12091TIP3    H257689   5.495   4.946  16.170 -0.4735 -0.3074  0.5345
12092TIP3   OH257690   0.257   4.140   5.425 -0.2007  0.5902  0.3844
12092TIP3    H157691   0.292   4.132   5.514 -0.3159  0.2087  0.3975
12092TIP3    H257692   0.252   4.234   5.410  1.4200  0.6545  0.1388
12093TIP3   OH257693   3.972   2.473   1.512  0.6301 -0.6347 -0.1893
12093TIP3    H157694   4.024   2.479   1.592 -0.0097  0.5311  0.1545
12093TIP3    H257695   3.882   2.490   1.540  0.7654  2.7596 -1.5739
12094TIP3   OH257696   5.051   4.199  15.737 -0.8479 -0.3097 -0.2808
12094TIP3    H157697   5.122   4.248  15.779  0.3663 -1.3966 -1.0391
12094TIP3    H257698   4.987   4.184  15.806  0.1568 -0.2511  0.6594
12095TIP3   OH257699   1.785   5.587   4.533 -0.0142  1.0270  0.1131
12095TIP3    H157700   1.757   5.602   4.623  0.0944  1.7858  0.0271
12095TIP3    H257701   1.841   5.662   4.513 -1.6975  1.9503 -1.2724
12096TIP3   OH257702   6.098   0.575  13.148  0.5071  0.9249  0.6973
12096TIP3    H157703   6.156   0.623  13.089  0.6003  0.8717  0.7439
12096TIP3    H257704   6.028   0.542  13.091  1.2833 -0.2242  0.3807
12097TIP3   OH257705   3.771   2.964  15.934  0.2308 -0.9701  0.1892
12097TIP3    H157706   3.854   2.992  15.973 -0.1250  0.7258 -0.2248
12097TIP3    H257707   3.717   2.938  16.008  0.8085 -1.1837  0.5361
12098TIP3   OH257708   1.979   4.849  11.935  0.4098 -0.3583 -0.3164
12098TIP3    H157709   1.948   4.758  11.943  1.5993 -0.6262  1.4048
12098TIP3    H257710   1.921   4.899  11.992  0.6075 -0.2460 -0.2140
12099TIP3   OH257711   1.036   0.063   2.368  0.4842 -0.2986 -0.3056
12099TIP3    H157712   1.129   0.057   2.344  1.4201 -1.5308  3.1807
12099TIP3    H257713   0.997  -0.016   2.331  1.3355 -0.9340  0.1253
12100TIP3   OH257714   3.906   3.294   3.632  0.3578  0.0427 -0.2609
12100TIP3    H157715   3.963   3.284   3.555 -0.5469 -1.0865 -0.8031
12100TIP3    H257716   3.963   3.273   3.706  1.1911  0.9571 -0.6237
12101TIP3   OH257717   4.719   1.184  10.587 -0.6110  0.0675 -0.5857
12101TIP3    H157718   4.634   1.140  10.597 -0.7417  0.1072 -1.4956
12101TIP3    H257719   4.782   1.121  10.623 -0.9633 -0.1985 -0.4235
12102TIP3   OH257720   5.724   6.740  14.595 -0.4662  0.3537 -0.2054
12102TIP3    H157721   5.789   6.679  14.629 -0.4129  1.3396  1.5092
12102TIP3    H257722   5.745   6.749  14.502  0.6435 -0.8089 -0.0701
12103TIP3   OH257723   5.956   6.049  11.498  0.4048  0.0856 -0.0622
12103TIP3    H157724   5.919   6.097  11.423 -1.3713 -0.0549  0.6913
12103TIP3    H257725   5.884   6.045  11.561  2.5641  2.3043  2.6801
12104TIP3   OH257726   3.787   4.308   5.068 -0.3798 -0.3386 -0.1328
12104TIP3    H157727   3.698   4.339   5.049 -1.0798 -2.5290 -0.5632
12104TIP3    H257728   3.782   4.213   5.059  1.6969 -0.6115  1.1972
12105TIP3   OH257729   6.248   1.093   2.414 -0.1525  0.2987 -0.4599
12105TIP3    H157730   6.228   1.184   2.437  1.7801  1.0459 -1.5981
12105TIP3    H257731   6.188   1.041   2.467 -0.6135  2.2118  0.9532
12106TIP3   OH257732   4.275   1.312   5.602 -0.9164  0.0684  0.4422
12106TIP3    H157733   4.368   1.302   5.581 -0.8417 -0.0762  0.8345
12106TIP3    H257734   4.257   1.241   5.663 -1.3548 -0.0728  0.1500
12107TIP3   OH257735   4.786   1.235  13.957  0.0663 -0.0061  0.8880
12107TIP3    H157736   4.695   1.211  13.975 -0.4950  2.1539  1.0407
12107TIP3    H257737   4.802   1.204  13.868 -0.2580 -1.9492  1.4890
12108TIP3   OH257738   1.026   2.530  15.508  0.6580 -0.0250  0.1437
12108TIP3    H157739   1.075   2.495  15.433  1.0452  2.0116 -0.5802
12108TIP3    H257740   1.093   2.563  15.568  0.2362  1.6556 -0.2913
12109TIP3   OH257741   3.108   0.134  12.287  0.0419  0.1254  0.2941
12109TIP3    H157742   3.052   0.140  12.210 -0.7378  2.6136  1.0158
12109TIP3    H257743   3.073   0.199  12.349  2.3882  0.2345  1.6101
12110TIP3   OH257744   1.407   5.714   1.234  0.3411  0.3985 -0.3653
12110TIP3    H157745   1.413   5.788   1.174 -0.5955  0.2900 -0.6120
12110TIP3    H257746   1.454   5.643   1.190 -0.8881  0.1296 -1.2988
12111TIP3   OH257747   6.695   4.761   5.011 -0.4780 -0.3394 -0.1806
12111TIP3    H157748   6.673   4.804   5.094 -1.9440 -2.0701  0.3602
12111TIP3    H257749   6.639   4.683   5.009  1.4981 -1.7526 -1.5498
12112TIP3   OH257750   2.939   6.207  16.357 -1.0112  0.0683  0.1472
12112TIP3    H157751   2.955   6.247  16.443  0.8166 -0.6154  0.1442
12112TIP3    H257752   2.906   6.120  16.378  0.6925 -0.5845  0.1767
12113TIP3   OH257753   5.962   0.171  14.692 -0.0592  0.1560 -0.0060
12113TIP3    H157754   5.967   0.147  14.600  0.8272  0.5481 -0.0654
12113TIP3    H257755   5.870   0.162  14.714 -0.5743  1.8049 -1.4122
12114TIP3   OH257756   4.547   4.952  16.352 -0.0334  0.3735  0.9187
12114TIP3    H157757   4.636   4.931  16.380 -0.1805  0.6492  1.6070
12114TIP3    H257758   4.498   4.961  16.434 -1.0657 -1.3627  0.5129
12115TIP3   OH257759   2.897   4.304  13.977 -0.4454  0.1898  0.1820
12115TIP3    H157760   2.957   4.230  13.990  0.8604  1.4134  1.2107
12115TIP3    H257761   2.949   4.368  13.928 -0.8797  1.2806  1.1376
12116TIP3   OH257762   2.063   5.903   4.316  0.2095 -0.0547 -0.6701
12116TIP3    H157763   2.126   5.833   4.302  2.4827  1.7213  0.4347
12116TIP3    H257764   2.032   5.889   4.406 -0.4428 -0.4570 -0.9449
12117TIP3   OH257765   2.957   1.771  16.613  0.2311  0.2746  0.3873
12117TIP3    H157766   2.886   1.707  16.623  1.1306 -0.8660 -0.3782
12117TIP3    H257767   3.008   1.763  16.694  0.1945  0.2137  0.4053
12118TIP3   OH257768   4.230   0.806   6.667 -0.0623 -0.7810  0.6419
12118TIP3    H157769   4.166   0.738   6.646 -0.5165  0.2343 -1.4648
12118TIP3    H257770   4.313   0.760   6.671 -0.5179 -1.6446  0.3627
12119TIP3   OH257771   1.206   6.017   0.269 -0.2549  0.0876 -0.6229
12119TIP3    H157772   1.200   5.929   0.305  0.9083  0.4710  0.5320
12119TIP3    H257773   1.191   6.006   0.175 -0.6162 -1.2602 -0.4128
12120TIP3   OH257774   4.416   4.770   0.464  0.4398 -0.3426 -0.1832
12120TIP3    H157775   4.475   4.751   0.537  0.5654  0.3610 -0.1077
12120TIP3    H257776   4.329   4.748   0.498  0.5129 -0.1482  0.1289
12121TIP3   OH257777   0.593   6.091   0.036 -0.5882 -0.3004 -0.0719
12121TIP3    H157778   0.625   6.125  -0.048  0.0161  1.4948  0.8593
12121TIP3    H257779   0.525   6.153   0.063  1.0952  0.6894  2.0500
12122TIP3   OH257780   2.150   5.939  14.055 -0.7102  0.0223 -0.1940
12122TIP3    H157781   2.166   6.000  13.983 -1.0084 -0.7316 -0.9119
12122TIP3    H257782   2.150   5.853  14.013  0.2565 -0.5190  0.8934
12123TIP3   OH257783   6.579   1.096   5.066 -0.3371  0.3155 -0.1649
12123TIP3    H157784   6.635   1.033   5.019 -0.0015  0.9294 -0.5970
12123TIP3    H257785   6.608   1.090   5.157  0.8882  1.1119 -0.5005
12124TIP3   OH257786   6.236   1.673   4.201 -0.4250 -0.3360 -0.2134
12124TIP3    H157787   6.146   1.704   4.195  0.1029  1.4605  0.7968
12124TIP3    H257788   6.229   1.578   4.189 -2.3891 -0.1729 -0.5944
12125TIP3   OH257789   6.657   4.826   0.725 -0.2024 -0.1622  0.0587
12125TIP3    H157790   6.609   4.785   0.796 -0.7373  0.2208 -0.0838
12125TIP3    H257791   6.590   4.867   0.671  0.2828  0.4192 -0.1062
12126TIP3   OH257792   2.790   2.720  13.729 -0.1437 -0.2102 -0.1407
12126TIP3    H157793   2.807   2.664  13.653  1.8238  0.3960 -0.1892
12126TIP3    H257794   2.724   2.673  13.779 -0.7547 -1.0984 -1.7208
12127TIP3   OH257795   0.783   0.268   0.284  0.3435  0.6005 -0.0124
12127TIP3    H157796   0.746   0.285   0.370 -1.8732  1.5215 -1.1068
12127TIP3    H257797   0.800   0.173   0.283 -0.3233  0.4622  1.1545
12128TIP3   OH257798   2.103   6.512   3.299  0.2662  0.0262 -0.4580
12128TIP3    H157799   2.042   6.493   3.228  2.6591 -2.1170 -2.0458
12128TIP3    H257800   2.068   6.465   3.374 -1.1959  0.6228 -0.7594
12129TIP3   OH257801   4.988   3.619   3.845 -0.1718 -0.6800 -0.0102
12129TIP3    H157802   4.975   3.625   3.939  1.3811  0.2331  0.1576
12129TIP3    H257803   4.930   3.548   3.817 -1.1038 -0.5440  1.5294
12130TIP3   OH257804   1.695   0.410   6.317 -1.0743  0.0919  0.4348
12130TIP3    H157805   1.747   0.479   6.358 -0.8819  0.1357  0.1189
12130TIP3    H257806   1.756   0.366   6.258 -1.2619 -0.1891  0.4522
12131TIP3   OH257807   6.615   2.708   5.140 -0.2677 -0.2834 -0.7240
12131TIP3    H157808   6.577   2.786   5.180  1.6098  0.7292 -0.8434
12131TIP3    H257809   6.614   2.642   5.209 -0.6978  0.2244 -0.2398
12132TIP3   OH257810   2.982   3.537  13.709 -0.2154 -0.5509  0.2149
12132TIP3    H157811   3.073   3.530  13.739  0.2035  0.2291 -0.8732
12132TIP3    H257812   2.960   3.448  13.682  0.7076 -0.4475 -0.9081
12133TIP3   OH257813   6.003   1.121   1.907  0.3631 -0.6889 -0.3047
12133TIP3    H157814   6.004   1.027   1.887 -0.0268 -1.3349  2.4856
12133TIP3    H257815   5.996   1.125   2.003 -0.5665  2.1878 -0.4459
12134TIP3   OH257816   1.960   0.957   2.253 -0.3186 -0.7728 -0.6912
12134TIP3    H157817   2.038   0.995   2.294 -0.1984 -1.5835 -0.1596
12134TIP3    H257818   1.892   1.022   2.268 -0.0029 -0.5465 -0.1958
12135TIP3   OH257819   2.957   0.098   5.642  0.3266  0.1451 -0.0196
12135TIP3    H157820   2.881   0.150   5.669  1.5054  1.6880  0.3979
12135TIP3    H257821   2.992   0.143   5.566 -0.1969 -1.5602 -1.2971
12136TIP3   OH257822   0.596   1.536   0.335 -0.3140 -0.2823 -0.6204
12136TIP3    H157823   0.674   1.578   0.299  0.0519 -1.0522 -0.7479
12136TIP3    H257824   0.526   1.557   0.273 -0.4019  1.1212 -0.0607
12137TIP3   OH257825   0.829   6.498  14.385 -0.3958 -0.3318 -0.3774
12137TIP3    H157826   0.906   6.551  14.365 -0.1725 -0.6895 -0.4639
12137TIP3    H257827   0.842   6.417  14.336 -0.5773 -0.5994  0.0183
12138TIP3   OH257828   2.148   3.820   4.759 -0.3855 -0.1907  0.4627
12138TIP3    H157829   2.103   3.877   4.696  0.6481  0.3912  0.2350
12138TIP3    H257830   2.170   3.879   4.832  0.6593 -0.2884  0.2409
12139TIP3   OH257831   4.896   5.276   2.423  0.3199 -0.2368 -0.5530
12139TIP3    H157832   4.813   5.230   2.414  0.8907 -1.3705 -0.1878
12139TIP3    H257833   4.948   5.246   2.348  0.7687 -0.3307 -0.2085
12140TIP3   OH257834   5.532   4.589   4.393  0.3648  0.2785 -0.6310
12140TIP3    H157835   5.598   4.529   4.358  0.5128  0.2399 -0.2771
12140TIP3    H257836   5.571   4.625   4.472  0.3711  1.0246 -0.9652
12141TIP3   OH257837   4.450   0.862  17.148 -0.3946 -0.1382  0.1052
12141TIP3    H157838   4.433   0.800  17.219  3.0725 -1.1332  0.1338
12141TIP3    H257839   4.528   0.910  17.176 -0.4760  1.2185 -1.9026
12142TIP3   OH257840   3.112   4.574   3.865  0.7508 -0.0172  0.2310
12142TIP3    H157841   3.029   4.580   3.912  1.3649 -1.0230  1.4955
12142TIP3    H257842   3.128   4.662   3.832 -0.3977  0.3768  0.7042
12143TIP3   OH257843   5.670   0.464  16.597 -0.4237 -0.6162 -0.0317
12143TIP3    H157844   5.677   0.468  16.693  0.3426  1.4679 -0.1379
12143TIP3    H257845   5.578   0.447  16.580 -0.4040 -1.9153  1.0895
12144TIP3   OH257846   4.284   5.681  11.556  0.0055 -0.3077 -0.1453
12144TIP3    H157847   4.203   5.635  11.534  0.1060  0.4451 -2.1138
12144TIP3    H257848   4.319   5.712  11.473  2.0653 -0.1663  0.7256
12145TIP3   OH257849   1.391   3.582  11.837  0.0866 -0.5039 -0.2152
12145TIP3    H157850   1.317   3.527  11.814  0.2949 -2.2845  3.0212
12145TIP3    H257851   1.353   3.665  11.864 -0.4864 -0.2894 -1.6778
12146TIP3   OH257852   2.375   0.907   1.085  0.4837 -0.3219  0.2570
12146TIP3    H157853   2.392   0.881   1.175 -0.5217 -0.4570  0.4138
12146TIP3    H257854   2.358   1.001   1.090  1.8026 -0.0673  0.0138
12147TIP3   OH257855   4.616   2.250  16.212 -0.5706 -0.4770  0.0334
12147TIP3    H157856   4.563   2.220  16.285 -0.3755 -2.0075 -0.4391
12147TIP3    H257857   4.647   2.337  16.238 -1.7092 -0.4006  1.1290
12148TIP3   OH257858   5.223   5.610  11.195 -0.4618  0.0286 -0.1977
12148TIP3    H157859   5.198   5.559  11.272  3.5683 -0.8885  0.5700
12148TIP3    H257860   5.264   5.689  11.231  1.3072 -0.3325 -1.3760
12149TIP3   OH257861   0.548   3.562   5.670  0.3423  0.0502  0.1039
12149TIP3    H157862   0.593   3.646   5.673  0.5919 -0.0439 -0.9256
12149TIP3    H257863   0.587   3.511   5.740  0.9766  0.3946 -0.0002
12150TIP3   OH257864   3.843   2.901   1.556 -0.2676 -0.2627 -0.2706
12150TIP3    H157865   3.813   2.973   1.501  0.7213 -1.2428 -2.1492
12150TIP3    H257866   3.921   2.867   1.512 -0.4049 -2.1362  0.8528
12151TIP3   OH257867   4.762   0.249   5.187  0.1351 -0.2209 -0.3714
12151TIP3    H157868   4.773   0.224   5.279  1.5432 -1.6450 -0.9076
12151TIP3    H257869   4.681   0.206   5.160  0.2933 -0.7055 -0.0874
12152TIP3   OH257870   4.449   1.741   0.301  0.2435 -0.2961 -0.0969
12152TIP3    H157871   4.462   1.768   0.210  1.0843  1.6029  0.5493
12152TIP3    H257872   4.355   1.726   0.308  0.1494 -0.3164 -1.2449
12153TIP3   OH257873   3.374   1.578  12.205 -0.5350  0.2988 -0.2130
12153TIP3    H157874   3.465   1.555  12.220 -1.0741 -2.0751 -0.4017
12153TIP3    H257875   3.371   1.605  12.113  0.4637  3.0966  0.5265
12154TIP3   OH257876   2.331   1.506  14.625 -0.6255 -0.3895  0.3511
12154TIP3    H157877   2.358   1.581  14.677 -1.2380  0.3375 -0.3760
12154TIP3    H257878   2.298   1.443  14.689 -1.7363  0.6501  0.8223
12155TIP3   OH257879   2.460   1.990  17.214 -0.0828  0.6577 -0.6171
12155TIP3    H157880   2.402   1.923  17.248 -0.0070  0.6167 -0.5692
12155TIP3    H257881   2.407   2.070  17.212 -0.1027  0.6476 -0.4553
12156TIP3   OH257882   6.000   2.650  11.284 -0.0237 -0.3881 -0.5868
12156TIP3    H157883   5.992   2.680  11.375  1.8551 -0.0196 -0.5252
12156TIP3    H257884   5.984   2.556  11.289 -0.6600 -0.2582  0.0136
12157TIP3   OH257885   1.266   1.727   2.952  1.0499 -0.4258  0.4404
12157TIP3    H157886   1.350   1.716   2.908  0.7510 -2.5541  0.3408
12157TIP3    H257887   1.220   1.645   2.936  0.3938 -0.7064  3.5528
12158TIP3   OH257888   4.099   4.640  12.994 -0.1806  0.5024  0.7164
12158TIP3    H157889   4.044   4.567  13.020  0.4750 -0.1113  0.3782
12158TIP3    H257890   4.128   4.678  13.077  3.5206 -2.6680  1.0044
12159TIP3   OH257891   2.598   3.315   2.634 -0.3554  0.2003  0.1558
12159TIP3    H157892   2.595   3.360   2.550 -0.0535 -0.7760 -0.3837
12159TIP3    H257893   2.538   3.241   2.624  0.4151 -0.4693  0.4657
12160TIP3   OH257894   0.720   3.893   1.979  0.1934  0.0942  0.4615
12160TIP3    H157895   0.719   3.851   2.065 -1.8040  1.1280  0.9548
12160TIP3    H257896   0.662   3.840   1.925  0.4833  0.1622  0.0750
12161TIP3   OH257897   6.044   3.605  15.154 -0.3221 -0.0672 -0.2493
12161TIP3    H157898   6.125   3.575  15.115 -0.6150  0.8176 -1.5669
12161TIP3    H257899   5.991   3.526  15.164 -0.1924 -0.3166 -1.5357
12162TIP3   OH257900   1.518   2.692   1.407  0.1080 -0.0329 -0.0899
12162TIP3    H157901   1.472   2.728   1.332  0.2065  0.7278  0.2082
12162TIP3    H257902   1.530   2.599   1.386 -0.2561  0.0799 -0.8091
12163TIP3   OH257903   2.236   2.971  10.877 -0.4558 -0.1220 -0.0966
12163TIP3    H157904   2.292   2.899  10.904 -0.6249 -0.1412  0.2181
12163TIP3    H257905   2.211   2.950  10.787  1.3190  0.6958 -0.8004
12164TIP3   OH257906   6.168   1.985   5.011 -0.2910 -0.2632 -0.0360
12164TIP3    H157907   6.103   2.054   5.002  0.0298  0.1827  1.1152
12164TIP3    H257908   6.183   1.977   5.105  1.8260  0.1053 -0.3337
12165TIP3   OH257909   3.350   5.043   2.127 -0.0024 -0.3900 -0.0505
12165TIP3    H157910   3.377   4.987   2.054  0.4158 -0.7796  0.4023
12165TIP3    H257911   3.429   5.052   2.180 -0.4421 -0.5084  0.6181
12166TIP3   OH257912   1.630   1.950  17.205 -0.5863 -0.0020 -0.2221
12166TIP3    H157913   1.692   1.894  17.158 -0.0261  1.0561 -0.7838
12166TIP3    H257914   1.608   1.901  17.284  1.2184 -0.2558  0.1428
12167TIP3   OH257915   5.503   0.887  15.310 -0.1611 -0.0410 -0.0696
12167TIP3    H157916   5.580   0.832  15.324  0.4878  0.6654 -0.7792
12167TIP3    H257917   5.465   0.899  15.397 -0.4012 -1.7187  0.0757
12168TIP3   OH257918   6.666   4.896  17.125  0.2651  0.1206  0.5171
12168TIP3    H157919   6.669   4.989  17.105 -1.1484  0.4887  1.9730
12168TIP3    H257920   6.668   4.891  17.221  0.8709 -1.3714  0.4506
12169TIP3   OH257921   0.850   0.951   2.774  0.1533 -0.0795  0.0662
12169TIP3    H157922   0.855   0.953   2.678  0.4089  0.8466  0.0936
12169TIP3    H257923   0.757   0.963   2.793  0.0841 -0.3981 -0.0677
12170TIP3   OH257924   2.011   6.296   3.105 -0.5706  0.1998  0.5135
12170TIP3    H157925   1.925   6.337   3.110 -0.2222  1.0845 -0.5068
12170TIP3    H257926   1.999   6.221   3.045 -1.2474 -1.3306  2.5159
12171TIP3   OH257927   6.662   6.024   3.314  0.3918  0.1631 -0.0324
12171TIP3    H157928   6.731   6.072   3.267  0.9666 -0.2302  0.4155
12171TIP3    H257929   6.695   6.016   3.403 -0.3573  0.2132  0.2497
12172TIP3   OH257930   1.723   0.892  10.987 -0.4525 -0.1257 -0.2338
12172TIP3    H157931   1.749   0.984  10.996 -0.8386 -0.0082 -0.3211
12172TIP3    H257932   1.763   0.864  10.904 -0.6418  0.0698 -0.3932
12173TIP3   OH257933   6.643   2.136  14.862 -0.5681 -0.1731 -0.1868
12173TIP3    H157934   6.702   2.105  14.931  0.7302  0.3656 -1.0390
12173TIP3    H257935   6.670   2.227  14.847 -2.0492  0.2911 -0.1416
12174TIP3   OH257936   6.729   4.337  10.806 -0.6947  0.1332 -0.3519
12174TIP3    H157937   6.653   4.342  10.863 -2.2229  0.9367 -2.4143
12174TIP3    H257938   6.714   4.260  10.753  0.9351 -0.8584  0.5903
12175TIP3   OH257939   4.930   6.406   3.967 -0.4767 -0.0089 -0.5415
12175TIP3    H157940   4.939   6.473   3.899  0.8921 -0.8115 -1.1865
12175TIP3    H257941   4.973   6.443   4.043  1.1004 -0.4954 -1.1711
12176TIP3   OH257942   0.995   6.342   4.566 -0.4761  0.3300 -0.0795
12176TIP3    H157943   0.951   6.320   4.649  2.4145 -1.2238  1.1172
12176TIP3    H257944   0.938   6.305   4.499 -1.6418 -0.5847  1.3712
12177TIP3   OH257945   4.639   5.973   6.417 -0.7039  0.2871 -0.0241
12177TIP3    H157946   4.620   6.032   6.490 -2.8633 -0.5537  0.1418
12177TIP3    H257947   4.578   5.999   6.348 -0.1464 -0.3201 -0.7596
12178TIP3   OH257948   4.695   1.429  14.188 -0.2569  0.8868 -0.1682
12178TIP3    H157949   4.613   1.413  14.235  0.6515 -2.1791  0.5551
12178TIP3    H257950   4.669   1.441  14.097 -1.4824 -1.0779 -0.1199
12179TIP3   OH257951   4.248   6.668   4.860 -0.5078 -0.2532  0.4117
12179TIP3    H157952   4.164   6.704   4.831 -0.9974 -2.4497 -0.9939
12179TIP3    H257953   4.308   6.742   4.856 -2.0598  1.0204  0.0812
12180TIP3   OH257954   2.846   4.152   1.017  0.8642 -0.1046  0.0449
12180TIP3    H157955   2.760   4.116   1.039  0.9771  0.3445  1.2393
12180TIP3    H257956   2.846   4.239   1.056  2.2486 -0.4907  0.9180
12181TIP3   OH257957   3.457   3.324   4.415 -0.0968 -0.7141 -0.4867
12181TIP3    H157958   3.488   3.234   4.405 -2.5229 -1.4616 -1.6758
12181TIP3    H257959   3.393   3.319   4.487  2.8870  0.9223  2.4021
12182TIP3   OH257960   2.428   4.905   0.678  0.0719 -0.6522  0.9342
12182TIP3    H157961   2.421   5.000   0.665 -0.6358 -0.6413  1.3303
12182TIP3    H257962   2.337   4.877   0.691 -0.2809 -2.0426 -3.6411
12183TIP3   OH257963   2.777   5.321  11.182 -0.4240 -0.1164  0.3573
12183TIP3    H157964   2.821   5.278  11.255 -0.3297  0.6517  0.7616
12183TIP3    H257965   2.823   5.290  11.104  0.1297 -0.1519  0.6963
12184TIP3   OH257966   2.320   2.180  15.447 -0.4179 -0.3239  0.1250
12184TIP3    H157967   2.346   2.224  15.528 -0.9158  0.6775 -0.2573
12184TIP3    H257968   2.236   2.140  15.468 -2.6205  3.4237 -1.0879
12185TIP3   OH257969   4.147   6.388  14.960  0.1438  0.2377  0.0601
12185TIP3    H157970   4.126   6.443  15.035 -1.2128 -0.6626  0.3753
12185TIP3    H257971   4.126   6.299  14.989 -1.8741  0.0283 -1.8669
12186TIP3   OH257972   4.474   6.131   1.754  0.1260 -0.6486  0.2888
12186TIP3    H157973   4.424   6.193   1.807  0.2884 -0.5789  0.3608
12186TIP3    H257974   4.456   6.046   1.795 -1.3679 -0.8729 -0.7650
12187TIP3   OH257975   3.742   1.961   0.013 -0.3908 -0.6012  0.1947
12187TIP3    H157976   3.816   2.011   0.048  0.3305 -0.6122 -1.2988
12187TIP3    H257977   3.697   1.928   0.091  1.6729 -1.3552  1.1072
12188TIP3   OH257978   4.389   2.880   1.571 -0.2023  0.1158  0.4026
12188TIP3    H157979   4.399   2.961   1.622  0.8065  0.4708 -0.3385
12188TIP3    H257980   4.383   2.909   1.480 -1.3188 -0.5617  0.2547
12189TIP3   OH257981   5.030   4.270   2.005 -0.4044 -0.3816  0.0284
12189TIP3    H157982   4.997   4.223   1.928  1.5350 -0.3059 -0.8632
12189TIP3    H257983   5.060   4.202   2.064  2.7360 -0.2992 -1.4136
12190TIP3   OH257984   0.928   3.971  15.489 -0.0001 -0.6031 -0.1206
12190TIP3    H157985   0.853   4.017  15.525  1.1080  1.1945 -0.0545
12190TIP3    H257986   0.895   3.929  15.409 -0.6611  1.6042 -1.0312
12191TIP3   OH257987   2.683   0.706   1.632 -0.1829  0.0361  0.5164
12191TIP3    H157988   2.725   0.700   1.718  1.0313 -1.8993 -0.1934
12191TIP3    H257989   2.598   0.745   1.650  0.7932  1.3898  2.3530
12192TIP3   OH257990   2.374   3.172   2.691  0.7151  0.1812 -0.0599
12192TIP3    H157991   2.310   3.115   2.733  0.1082  1.5889  0.9936
12192TIP3    H257992   2.430   3.202   2.763  0.8104  1.1559 -0.5285
12193TIP3   OH257993   1.219   3.617  11.478 -0.6656  0.2419 -0.3289
12193TIP3    H157994   1.270   3.559  11.421  0.0770  0.0985  0.4786
12193TIP3    H257995   1.266   3.701  11.475 -1.2657  0.5737 -0.8203
12194TIP3   OH257996   2.049   4.823   3.203 -0.3195  0.1724 -0.4632
12194TIP3    H157997   1.992   4.871   3.144  1.8275  1.3497 -1.6423
12194TIP3    H257998   2.088   4.890   3.259 -0.1859 -0.6230  0.4157
12195TIP3   OH257999   5.790   5.486  15.330 -0.2295  0.6521  0.0851
12195TIP3    H158000   5.859   5.429  15.296 -0.9729  0.1980 -0.6746
12195TIP3    H258001   5.832   5.533  15.402  0.6456 -0.1919  0.1425
12196TIP3   OH258002   1.678   1.830  13.491 -0.2167  0.1428  0.1388
12196TIP3    H158003   1.752   1.884  13.463  0.6336 -0.7546  0.6278
12196TIP3    H258004   1.660   1.858  13.580 -0.3293  0.2116  0.0946
12197TIP3   OH258005   1.800   0.690   5.581  0.6164  0.0077 -0.4146
12197TIP3    H158006   1.848   0.731   5.509 -0.4113 -0.3963 -1.3593
12197TIP3    H258007   1.708   0.691   5.552 -0.0903  1.6445  1.7706
12198TIP3   OH258008   1.635   6.690  11.524 -0.2208  0.7332  0.2385
12198TIP3    H158009   1.665   6.717  11.437  0.8525 -0.7904  0.1097
12198TIP3    H258010   1.584   6.611  11.508 -2.0700  1.7887  0.7617
12199TIP3   OH258011   3.572   3.409   0.078 -0.6040 -1.3334 -0.0908
12199TIP3    H158012   3.610   3.422  -0.009 -4.4131  1.2701 -1.5209
12199TIP3    H258013   3.525   3.326   0.072  0.0486 -1.6980 -0.1681
12200TIP3   OH258014   1.812   0.449  11.382  0.1166  0.1874  0.4561
12200TIP3    H158015   1.889   0.392  11.392  0.7603  0.7101 -1.2912
12200TIP3    H258016   1.818   0.481  11.292 -1.8536  0.6872  0.4831
12201TIP3   OH258017   6.714   3.149   5.246  0.0475  0.3048  0.2724
12201TIP3    H158018   6.619   3.160   5.238  0.1151  1.1716  0.5833
12201TIP3    H258019   6.728   3.134   5.339  0.1587 -0.4770  0.1327
12202TIP3   OH258020   3.988   3.882   3.629 -0.0143  0.3810  0.5546
12202TIP3    H158021   3.962   3.822   3.560 -0.6040  0.0443  1.0596
12202TIP3    H258022   3.951   3.844   3.709  2.4888 -0.4008  1.3803
12203TIP3   OH258023   1.540   1.146  11.589 -0.6256  0.1830 -0.0693
12203TIP3    H158024   1.551   1.059  11.551 -1.9205 -0.2089  0.4519
12203TIP3    H258025   1.457   1.142  11.636 -0.0856  1.3245  0.9970
12204TIP3   OH258026   3.523   0.381   2.219 -0.4172  0.2450  0.1054
12204TIP3    H158027   3.567   0.459   2.186  0.1251  0.8268  2.1392
12204TIP3    H258028   3.561   0.366   2.305 -2.5316 -0.6119  0.9317
12205TIP3   OH258029   1.890   3.279   3.428  0.0873 -0.0302 -0.3647
12205TIP3    H158030   1.911   3.293   3.521  0.9193  0.1594 -0.5790
12205TIP3    H258031   1.795   3.268   3.427  0.1711 -0.9273  0.6256
12206TIP3   OH258032   5.992   4.148  12.753 -0.0685 -0.0864  0.4415
12206TIP3    H158033   6.026   4.113  12.671  0.1240  0.0245  0.4728
12206TIP3    H258034   5.966   4.237  12.732  1.4549  0.4886  0.8626
12207TIP3   OH258035   2.082   0.541   0.392  0.2947  0.5166  0.0147
12207TIP3    H158036   2.073   0.476   0.462 -0.8499 -0.1808 -0.7851
12207TIP3    H258037   2.115   0.492   0.317  1.2674  1.2164 -0.0306
12208TIP3   OH258038   4.295   1.322  14.503 -0.1241  0.3178  0.4036
12208TIP3    H158039   4.216   1.280  14.536 -0.4558  0.2580 -0.4596
12208TIP3    H258040   4.291   1.412  14.534 -1.0037  0.5729 -0.4323
12209TIP3   OH258041   3.161   0.344  15.786 -0.4019  0.0815 -0.2789
12209TIP3    H158042   3.226   0.274  15.790 -0.9534 -0.3112  3.2615
12209TIP3    H258043   3.079   0.303  15.813 -1.5058  1.3101 -1.6421
12210TIP3   OH258044   4.245   0.725   3.059 -0.9911  0.2006  0.0277
12210TIP3    H158045   4.230   0.630   3.062 -2.3825  0.4249  0.8462
12210TIP3    H258046   4.183   0.757   2.993 -1.8832  0.7458  1.0987
12211TIP3   OH258047   1.174   0.859  13.107  0.1535 -0.3966  0.0446
12211TIP3    H158048   1.256   0.819  13.137 -0.3580 -1.3961  0.1509
12211TIP3    H258049   1.200   0.919  13.038  1.1320  0.4056  1.0978
12212TIP3   OH258050   2.865   4.642  12.845  0.8278 -0.2758 -0.3609
12212TIP3    H158051   2.925   4.685  12.907  0.1816 -0.3730  0.3450
12212TIP3    H258052   2.835   4.564  12.892  0.4921 -0.4648 -0.8854
12213TIP3   OH258053   4.027   4.456  13.949 -0.4483 -0.0736  0.0551
12213TIP3    H158054   4.106   4.437  14.000  0.5454  0.0732 -1.4062
12213TIP3    H258055   4.002   4.372  13.910  0.3917  0.3520 -1.4300
12214TIP3   OH258056   0.542   4.816  13.609  0.2173  0.1562  0.4652
12214TIP3    H158057   0.552   4.864  13.691  0.6450 -0.0671  0.5432
12214TIP3    H258058   0.614   4.752  13.609 -1.0691 -1.3456  0.9598
12215TIP3   OH258059   3.294   2.112  15.142  0.0084  0.2003 -0.2212
12215TIP3    H158060   3.246   2.194  15.153 -2.0322 -0.8595 -0.9439
12215TIP3    H258061   3.255   2.053  15.206  1.8255 -0.0659  0.6571
12216TIP3   OH258062   1.481   1.506  15.241  0.3961  0.0186 -0.4434
12216TIP3    H158063   1.509   1.587  15.283 -1.3063  1.3558 -1.8157
12216TIP3    H258064   1.527   1.506  15.157 -1.2491  0.6651 -1.3661
12217TIP3   OH258065   0.749   2.480  13.307  0.0646  0.1893 -0.0478
12217TIP3    H158066   0.794   2.488  13.223  0.1228  1.2779  0.0922
12217TIP3    H258067   0.657   2.471  13.284  0.1400 -0.1023 -0.2455
12218TIP3   OH258068   1.698   3.510   6.488  0.2776  0.6277  0.1201
12218TIP3    H158069   1.652   3.594   6.485  1.6954  1.3942 -3.1121
12218TIP3    H258070   1.764   3.520   6.557  0.7889  2.4103 -0.5969
12219TIP3   OH258071   3.271   5.922  14.116  0.7886 -0.0106 -0.0954
12219TIP3    H158072   3.231   5.836  14.100 -0.2540  0.4230  0.1299
12219TIP3    H258073   3.223   5.957  14.191  1.7095  0.4586  0.2784
12220TIP3   OH258074   3.826   6.599  12.732  0.4891  0.2721  0.3390
12220TIP3    H158075   3.765   6.647  12.787 -0.5190 -0.6623  0.0515
12220TIP3    H258076   3.907   6.597  12.782  0.0449  0.8155  1.0826
12221TIP3   OH258077   6.468   2.815   3.243 -0.5903  0.1615 -0.2464
12221TIP3    H158078   6.544   2.868   3.217 -1.2448  1.3817  0.2929
12221TIP3    H258079   6.495   2.772   3.324 -0.6498  0.9976  0.2220
12222TIP3   OH258080   2.364   4.370  11.604  0.0811 -0.3500  0.4095
12222TIP3    H158081   2.417   4.407  11.674  1.7809  0.0553 -1.0657
12222TIP3    H258082   2.412   4.293  11.574 -0.7685 -0.6858 -0.1373
12223TIP3   OH258083   0.165   6.006   5.161  0.3804  0.7171  0.0173
12223TIP3    H158084   0.103   5.935   5.145  1.0646 -0.2104  1.3500
12223TIP3    H258085   0.136   6.044   5.244  0.7928  1.1506 -0.0360
12224TIP3   OH258086   0.250   1.844  15.061 -0.1505 -0.0875  0.0667
12224TIP3    H158087   0.342   1.869  15.059 -0.0507 -0.3524  0.9281
12224TIP3    H258088   0.250   1.749  15.051 -0.4131  0.0519 -1.2867
12225TIP3   OH258089   3.475   0.688  16.384  0.8757  0.8323 -0.2180
12225TIP3    H158090   3.479   0.593  16.399  1.9298  0.6793 -1.3910
12225TIP3    H258091   3.410   0.698  16.315  0.8843  0.9492 -0.2082
12226TIP3   OH258092   0.516   5.790  13.803  0.2269  0.0579 -0.2071
12226TIP3    H158093   0.514   5.771  13.709  1.2462  0.0332 -0.2316
12226TIP3    H258094   0.477   5.713  13.844 -1.9581  0.8759 -0.7159
12227TIP3   OH258095   6.355   4.042   6.359 -0.2305 -0.1292 -0.1928
12227TIP3    H158096   6.438   4.000   6.379 -0.4909 -0.3838  0.3791
12227TIP3    H258097   6.322   4.071   6.444  1.5203  4.2605 -0.8601
12228TIP3   OH258098   5.783   6.269  15.157  0.0680 -0.0955  0.0486
12228TIP3    H158099   5.853   6.303  15.212  0.2901 -1.2148  0.4612
12228TIP3    H258100   5.828   6.227  15.084 -0.2162  0.8713 -0.7073
12229TIP3   OH258101   2.777   0.596   2.160  0.4741 -0.0141  0.2720
12229TIP3    H158102   2.741   0.604   2.249  0.5280 -0.7086  0.3586
12229TIP3    H258103   2.854   0.540   2.171 -0.3860 -1.3615 -0.4526
12230TIP3   OH258104   4.576   2.807   1.148  0.8425 -0.2223 -0.1533
12230TIP3    H158105   4.565   2.713   1.136 -0.9264  0.0189 -0.5490
12230TIP3    H258106   4.581   2.842   1.059 -0.9328  0.3136 -0.0634
12231TIP3   OH258107   1.380   4.530  14.957 -0.4050  0.5968 -0.1519
12231TIP3    H158108   1.463   4.567  14.988 -1.5520  0.6999  3.0484
12231TIP3    H258109   1.397   4.437  14.947  0.4491  0.8187 -0.7789
12232TIP3   OH258110   3.857   3.926  13.828 -0.6101 -0.2930 -0.2699
12232TIP3    H158111   3.835   3.934  13.735 -2.2889  0.2109  0.1485
12232TIP3    H258112   3.772   3.918  13.872 -0.0166  2.0734  1.4535
12233TIP3   OH258113   6.290   3.073  10.867 -0.0241  0.0557  0.3184
12233TIP3    H158114   6.287   2.983  10.835 -1.5814  0.2774 -0.1669
12233TIP3    H258115   6.343   3.120  10.803  0.0554 -0.3252  0.1080
12234TIP3   OH258116   4.936   2.662   4.263 -0.2651  0.3178  0.6280
12234TIP3    H158117   4.995   2.720   4.310  0.9717 -0.5049  0.1335
12234TIP3    H258118   4.967   2.665   4.172  3.0640 -4.9137  1.3890
12235TIP3   OH258119   4.079   6.665  16.094 -0.0121  0.1207  0.3673
12235TIP3    H158120   3.985   6.678  16.101 -0.1907 -1.0390  0.1598
12235TIP3    H258121   4.088   6.588  16.038  1.0473 -0.3930  1.2513
12236TIP3   OH258122   3.481   4.871   6.051 -0.0125 -0.0643 -0.3304
12236TIP3    H158123   3.462   4.796   6.108 -1.8002 -1.0175 -2.1219
12236TIP3    H258124   3.571   4.858   6.023  0.0487 -0.9594  0.2632
12237TIP3   OH258125   1.930   6.091   0.685  0.7699 -0.0772  0.3355
12237TIP3    H158126   1.993   6.040   0.735  1.2213 -0.4670 -0.6330
12237TIP3    H258127   1.853   6.034   0.677  0.1819  0.5042  1.7560
12238TIP3   OH258128   5.419   0.048  12.057 -0.4073 -0.3171 -0.5645
12238TIP3    H158129   5.337   0.094  12.042  0.0792  0.9508  0.5992
12238TIP3    H258130   5.484   0.098  12.007 -0.3538 -1.4609 -1.6906
12239TIP3   OH258131   2.050   4.463  16.779 -0.0580  0.1772  0.1590
12239TIP3    H158132   2.072   4.378  16.741 -2.0582  0.0155 -0.7305
12239TIP3    H258133   2.123   4.520  16.756  0.5261 -0.8920 -0.6723
12240TIP3   OH258134   5.296   1.336  13.966  0.1326  0.1747  0.2243
12240TIP3    H158135   5.202   1.351  13.954  0.5436  1.3608 -1.5782
12240TIP3    H258136   5.329   1.315  13.879  1.7076  0.6717  0.6872
12241TIP3   OH258137   1.789   2.205   2.076 -0.2256 -0.6651  0.4608
12241TIP3    H158138   1.791   2.270   2.146  0.4409 -0.7672  0.5483
12241TIP3    H258139   1.742   2.248   2.004  1.4206  0.4593  0.0089
12242TIP3   OH258140   0.156   4.743  14.795 -0.1124  0.9525  0.3698
12242TIP3    H158141   0.062   4.727  14.798 -0.1206  1.1078  1.0142
12242TIP3    H258142   0.165   4.826  14.749 -0.2086  0.2752 -0.8932
12243TIP3   OH258143   4.484   4.461  16.279 -0.0504 -0.3240  0.0308
12243TIP3    H158144   4.391   4.476  16.295  0.0327  0.7906 -0.4760
12243TIP3    H258145   4.527   4.485  16.362 -0.0366  1.1052 -0.3791
12244TIP3   OH258146   4.252   2.471   2.832 -0.6779  0.3046  0.0167
12244TIP3    H158147   4.206   2.413   2.893  2.0443  0.1542  1.9988
12244TIP3    H258148   4.270   2.416   2.756  0.5924 -1.0659  1.2762
12245TIP3   OH258149   3.767   5.369  16.563  0.4596  0.1592  0.3106
12245TIP3    H158150   3.689   5.365  16.619  0.4153 -0.5950  0.2000
12245TIP3    H258151   3.733   5.356  16.474  0.5632  1.0739  0.1308
12246TIP3   OH258152   2.702   6.295  16.207 -0.3950  0.2744  0.2124
12246TIP3    H158153   2.651   6.233  16.260 -0.2289  0.7274  0.9094
12246TIP3    H258154   2.791   6.289  16.243 -0.3599  0.8492  0.2228
12247TIP3   OH258155   0.964   1.826   0.719  0.0336  0.2742 -0.3768
12247TIP3    H158156   0.954   1.811   0.813  0.2210 -2.5451 -0.7883
12247TIP3    H258157   0.999   1.915   0.713 -1.1512  0.9601  2.1512
12248TIP3   OH258158   3.487   1.078   1.200 -0.0672 -0.1309  0.1151
12248TIP3    H158159   3.563   1.126   1.231  0.5660 -0.6921 -0.5331
12248TIP3    H258160   3.454   1.033   1.278 -0.6317  1.2951  0.7057
12249TIP3   OH258161   1.986   2.931   5.117 -0.0979 -0.1280  0.2424
12249TIP3    H158162   1.903   2.896   5.149 -0.3399 -0.5499 -0.8482
12249TIP3    H258163   1.993   3.017   5.158 -0.7958 -0.3189  0.7773
12250TIP3   OH258164   5.744   4.770  12.604 -0.0616 -0.2878  0.0575
12250TIP3    H158165   5.797   4.839  12.644  0.5198 -1.2163  0.9022
12250TIP3    H258166   5.671   4.757  12.664 -1.5999  1.3997 -1.3959
12251TIP3   OH258167   1.142   3.400  12.888  0.0285 -0.2856  0.0041
12251TIP3    H158168   1.151   3.329  12.951 -0.8389  0.5707  1.1352
12251TIP3    H258169   1.104   3.472  12.939  0.6079  0.8817 -1.1833
12252TIP3   OH258170   1.073   4.421   4.415  0.2755  0.0271  0.2040
12252TIP3    H158171   0.979   4.427   4.398  0.4450  1.5440 -0.2562
12252TIP3    H258172   1.113   4.419   4.329  0.7303  0.6275  0.3944
12253TIP3   OH258173   1.786   5.485   3.093 -0.6901 -0.1293  0.4943
12253TIP3    H158174   1.805   5.397   3.061 -0.4456  0.0892  0.0187
12253TIP3    H258175   1.845   5.496   3.168  1.6849  0.8051 -1.4083
12254TIP3   OH258176   6.593   2.159  15.769 -0.3766 -0.1476 -0.0898
12254TIP3    H158177   6.579   2.253  15.767  1.0451  0.0668 -0.3272
12254TIP3    H258178   6.505   2.121  15.775 -0.9998  1.1464 -1.0766
12255TIP3   OH258179   2.816   4.448   0.416  0.5726 -0.3025  0.0447
12255TIP3    H158180   2.828   4.461   0.322 -0.0258 -4.2151 -0.6710
12255TIP3    H258181   2.725   4.418   0.424  1.1242 -1.6224  1.6536
12256TIP3   OH258182   4.080   4.582   5.123 -0.2370 -0.1806 -0.4081
12256TIP3    H158183   4.148   4.577   5.055  0.0747  1.5919 -0.2545
12256TIP3    H258184   4.128   4.567   5.205  0.3411  2.9609 -0.1272
12257TIP3   OH258185   2.928   2.884   3.599  0.0916 -0.1019  0.6207
12257TIP3    H158186   2.943   2.790   3.595 -1.5784 -0.3150 -1.0794
12257TIP3    H258187   2.990   2.921   3.537 -0.3703 -0.2157  0.0947
12258TIP3   OH258188   3.622   6.566   2.437 -0.2241  0.1818  0.0766
12258TIP3    H158189   3.575   6.508   2.498 -0.5243 -0.9899 -1.2445
12258TIP3    H258190   3.706   6.582   2.479  0.1356 -1.7791  0.1501
12259TIP3   OH258191   1.194   5.005   3.600 -0.2117 -0.0261 -0.3541
12259TIP3    H158192   1.161   5.056   3.527  0.0740  1.7357  0.7173
12259TIP3    H258193   1.118   4.955   3.630 -0.5510 -0.0793 -1.2811
12260TIP3   OH258194   6.338   2.419   5.140 -0.1351 -0.3943  0.3892
12260TIP3    H158195   6.287   2.420   5.059  0.7198 -1.1400 -0.1646
12260TIP3    H258196   6.420   2.376   5.116  0.8696  1.0475  1.1983
12261TIP3   OH258197   6.654   6.569  15.825  0.0928 -0.2789 -0.1400
12261TIP3    H158198   6.609   6.653  15.820  1.4069  0.3930 -0.6648
12261TIP3    H258199   6.663   6.541  15.734  0.7348 -0.4211 -0.0336
12262TIP3   OH258200   4.142   1.692  13.059  0.1250  0.1381 -0.3991
12262TIP3    H158201   4.167   1.610  13.016  1.0128  0.3203 -0.2527
12262TIP3    H258202   4.142   1.756  12.988  1.6854  0.4582 -0.1469
12263TIP3   OH258203   4.498   6.166   4.627 -0.1418  0.0733  0.1451
12263TIP3    H158204   4.515   6.091   4.684  2.0874  1.7862  1.8319
12263TIP3    H258205   4.442   6.224   4.679  0.8670  1.0638  0.1535
12264TIP3   OH258206   0.073   0.957   3.068 -0.4728  0.2081 -0.0965
12264TIP3    H158207   0.057   0.898   3.142 -0.6675  0.5872  0.1616
12264TIP3    H258208  -0.014   0.991   3.045 -0.4403 -0.0544 -0.6204
12265TIP3   OH258209   3.191   5.615   5.729  0.0680 -0.3005 -0.3142
12265TIP3    H158210   3.267   5.558   5.725 -0.1525 -0.8484  2.5910
12265TIP3    H258211   3.223   5.700   5.697  1.6888 -0.7183  0.1748
12266TIP3   OH258212   3.755   0.282   4.995  0.2672  0.0811  0.0847
12266TIP3    H158213   3.789   0.199   5.028 -1.1143 -0.8832 -0.8631
12266TIP3    H258214   3.737   0.334   5.073  1.9141 -0.1997  0.6561
12267TIP3   OH258215   1.439   3.938  12.505  0.1163 -0.6135  1.0959
12267TIP3    H158216   1.376   3.909  12.571 -0.3033 -0.6521  0.6762
12267TIP3    H258217   1.483   3.858  12.476  0.9901 -0.4841  2.0373
12268TIP3   OH258218   5.691   4.751  11.958 -0.0688  0.0538 -0.1580
12268TIP3    H158219   5.702   4.835  11.914  0.3839  0.9044  1.5337
12268TIP3    H258220   5.630   4.768  12.029 -1.1617 -1.4087 -0.7284
12269TIP3   OH258221   1.536   5.303  10.927  0.1335  0.2710  0.3349
12269TIP3    H158222   1.565   5.267  11.010 -0.5951 -2.0629 -0.3858
12269TIP3    H258223   1.443   5.322  10.940 -0.6760 -2.7187 -0.7611
12270TIP3   OH258224   1.059   1.099  12.254 -0.5537 -0.4484  0.1062
12270TIP3    H158225   1.150   1.119  12.279 -1.1862 -1.0237  3.0943
12270TIP3    H258226   1.009   1.176  12.283 -1.3804 -1.3181  1.0189
12271TIP3   OH258227   1.445   1.689  14.012 -0.1859 -0.3529 -0.6550
12271TIP3    H158228   1.466   1.772  14.056 -0.4758  0.1411 -1.4459
12271TIP3    H258229   1.381   1.648  14.070 -1.5261  0.8844 -1.2231
12272TIP3   OH258230   4.208   1.882  12.867 -0.1455 -0.0530  0.0708
12272TIP3    H158231   4.175   1.972  12.866 -0.4869 -0.1626  1.1723
12272TIP3    H258232   4.298   1.890  12.835 -0.0643  0.7284  0.4674
12273TIP3   OH258233   4.926   6.386  15.553 -0.0623  0.0808  0.3376
12273TIP3    H158234   5.002   6.369  15.610  0.0951 -0.8146 -0.1185
12273TIP3    H258235   4.949   6.343  15.470 -1.0183 -0.0868  0.1600
12274TIP3   OH258236   6.114   4.895   2.006  0.8302  0.3903 -0.1032
12274TIP3    H158237   6.057   4.833   1.959  2.0557  0.0005 -1.1118
12274TIP3    H258238   6.056   4.937   2.069 -0.9159  0.9988 -2.0376
12275TIP3   OH258239   3.688   2.059  12.516 -0.3223 -0.2058  0.5806
12275TIP3    H158240   3.662   2.101  12.434  1.7273  2.0926  1.0590
12275TIP3    H258241   3.654   2.116  12.585 -0.2026 -1.0001  1.3136
12276TIP3   OH258242   2.609   2.679   1.545  0.1575  0.1734  0.0337
12276TIP3    H158243   2.685   2.626   1.520 -0.1019 -1.0235  1.7113
12276TIP3    H258244   2.543   2.658   1.479  0.1291 -1.4582  0.5614
12277TIP3   OH258245   1.452   6.744   4.285  0.3265 -0.3707  0.1020
12277TIP3    H158246   1.427   6.694   4.362 -0.8731  2.2192  1.4430
12277TIP3    H258247   1.387   6.722   4.219 -0.3206 -0.3972  0.7515
12278TIP3   OH258248   2.104   0.971  11.912  0.6282  0.0592 -0.3029
12278TIP3    H158249   2.013   1.001  11.917  0.6557  0.0662  0.2218
12278TIP3    H258250   2.107   0.895  11.970  0.0309 -2.3584 -3.3293
12279TIP3   OH258251   1.644   5.130   5.997 -0.2945 -0.9663 -0.7019
12279TIP3    H158252   1.553   5.106   5.980 -0.7879 -0.5904  1.2736
12279TIP3    H258253   1.656   5.116   6.090  0.7752  1.8671 -0.3449
12280TIP3   OH258254   2.740   4.587  15.767  0.0600 -0.1363 -0.4160
12280TIP3    H158255   2.654   4.625  15.752  0.2610  0.3854 -0.2360
12280TIP3    H258256   2.739   4.506  15.716  0.3263  1.0709 -2.4024
12281TIP3   OH258257   0.494   5.298  15.523  0.4651  0.0993  0.2174
12281TIP3    H158258   0.500   5.211  15.483  1.7864  0.0638  0.4676
12281TIP3    H258259   0.554   5.295  15.597 -0.3587  0.8583  0.9297
12282TIP3   OH258260   5.566   1.721  10.898 -0.1513 -0.7292  0.5962
12282TIP3    H158261   5.587   1.776  10.974 -0.7491 -1.3777  1.2419
12282TIP3    H258262   5.517   1.648  10.935  0.3714 -1.5372 -0.3025
12283TIP3   OH258263   6.194   5.648   0.722 -0.0872  1.1201  0.1604
12283TIP3    H158264   6.124   5.638   0.787 -0.4744  1.3726 -0.2103
12283TIP3    H258265   6.154   5.700   0.652  0.4830  1.2953 -0.0395
12284TIP3   OH258266   5.148   2.513  16.732  0.4000  0.0616  0.3335
12284TIP3    H158267   5.061   2.550  16.724  0.0348 -0.3272  2.1672
12284TIP3    H258268   5.191   2.568  16.798  1.1900 -0.3756  0.1926
12285TIP3   OH258269   3.201   2.942  13.574  0.3152  0.0047  0.2467
12285TIP3    H158270   3.112   2.961  13.605  0.4944  0.1128  0.6962
12285TIP3    H258271   3.231   2.872  13.633 -0.4335 -1.8757 -1.5229
12286TIP3   OH258272   3.796   0.767   6.413 -0.2057  0.0500  0.0999
12286TIP3    H158273   3.751   0.747   6.495 -1.4897  0.1091 -0.5595
12286TIP3    H258274   3.765   0.855   6.390  0.6435  0.2927 -0.1275
12287TIP3   OH258275   3.492   3.568  13.162 -0.1092 -0.0975 -0.3223
12287TIP3    H158276   3.525   3.651  13.196 -2.7470  0.3653  1.2673
12287TIP3    H258277   3.463   3.587  13.073 -1.3379  0.8967  0.2745
12288TIP3   OH258278   1.718   3.707  12.639  0.0341 -0.0946  0.0035
12288TIP3    H158279   1.706   3.644  12.567 -0.5237 -1.2957  1.1361
12288TIP3    H258280   1.663   3.674  12.709  1.0575  0.7305  1.2102
12289TIP3   OH258281   1.808   3.150  15.788 -0.2228  0.0231  0.4056
12289TIP3    H158282   1.811   3.197  15.705 -3.8866 -0.9581 -0.3412
12289TIP3    H258283   1.829   3.059  15.765  1.3199  0.2182  0.9820
12290TIP3   OH258284   5.997   3.300  14.308  0.6019  0.4695 -0.6151
12290TIP3    H158285   6.026   3.261  14.391  1.7263  0.8136 -0.8385
12290TIP3    H258286   5.910   3.263  14.294 -0.2586  1.5817  1.4968
12291TIP3   OH258287   5.535   3.299   4.293 -0.1964 -0.1849  0.2751
12291TIP3    H158288   5.484   3.230   4.335  1.5248 -1.7567 -0.1292
12291TIP3    H258289   5.620   3.258   4.275  0.4120  1.6366 -1.1734
12292TIP3   OH258290   0.791   5.533   5.963  0.3578 -0.0526  0.2043
12292TIP3    H158291   0.815   5.467   6.028  0.4094  0.2545  0.4988
12292TIP3    H258292   0.835   5.613   5.992  0.6113  0.0150 -0.3660
12293TIP3   OH258293   5.333   2.040  17.161  0.5719 -0.3490 -0.1830
12293TIP3    H158294   5.402   2.097  17.195  1.7396 -0.9166 -1.5398
12293TIP3    H258295   5.255   2.095  17.161  1.3241  0.7443  0.0723
12294TIP3   OH258296   1.590   5.158   4.787 -0.3528  0.1657  0.5081
12294TIP3    H158297   1.542   5.132   4.866 -2.0572  2.4562  0.2751
12294TIP3    H258298   1.682   5.146   4.811 -0.8879 -0.4159  2.3955
12295TIP3   OH258299   5.232   6.653  15.296  0.1713  0.6321 -0.1083
12295TIP3    H158300   5.273   6.635  15.380 -2.6760 -1.9397  0.8100
12295TIP3    H258301   5.218   6.566  15.257 -2.1204  1.5509 -1.4558
12296TIP3   OH258302   5.828   1.724  11.505 -0.0527 -0.6656  0.3250
12296TIP3    H158303   5.916   1.694  11.527  0.2935  1.2597  1.6419
12296TIP3    H258304   5.773   1.691  11.575 -0.5009 -2.3124 -0.7698
12297TIP3   OH258305   5.379   3.241  11.223  0.2357 -0.1111  0.3285
12297TIP3    H158306   5.316   3.212  11.157 -0.7236 -0.1067  1.2306
12297TIP3    H258307   5.457   3.188  11.207  0.0322 -0.0748 -0.8391
12298TIP3   OH258308   5.283   1.067   6.344  0.0688 -0.1150  0.1758
12298TIP3    H158309   5.269   1.004   6.414 -1.4451 -3.0313 -2.5995
12298TIP3    H258310   5.201   1.116   6.337  0.1409  0.0232  0.3027
12299TIP3   OH258311   1.138   5.919  14.086 -0.4732  0.1328  0.1008
12299TIP3    H158312   1.071   5.920  14.019 -0.3454  0.7179 -0.0149
12299TIP3    H258313   1.107   5.980  14.153 -0.4084 -0.1432  0.3839
12300TIP3   OH258314   5.957   4.414   2.883 -0.0841  0.0890 -0.1416
12300TIP3    H158315   5.957   4.333   2.833 -0.0833  0.2868 -0.4636
12300TIP3    H258316   6.047   4.421   2.917 -0.1077 -0.0871 -0.0455
12301TIP3   OH258317   4.554   6.621  12.102  0.3177 -0.2308  0.0461
12301TIP3    H158318   4.556   6.526  12.087  2.5624 -0.1300 -0.5362
12301TIP3    H258319   4.567   6.659  12.015  0.3432  0.5870  0.4063
12302TIP3   OH258320   5.555   2.059   1.463  0.2121  0.3225  0.0102
12302TIP3    H158321   5.632   2.084   1.411 -0.0024 -0.1040 -0.5200
12302TIP3    H258322   5.496   2.017   1.400 -1.4316  2.6628 -0.0633
12303TIP3   OH258323   3.568   2.093   6.138  0.6684 -0.1998 -0.4459
12303TIP3    H158324   3.507   2.067   6.069  0.5864 -0.1872 -0.3781
12303TIP3    H258325   3.515   2.096   6.217  1.0671 -1.6918 -0.1053
12304TIP3   OH258326   3.638   3.346   2.476 -0.3023  0.5467  0.4454
12304TIP3    H158327   3.544   3.331   2.476 -0.5815  2.2908  0.3620
12304TIP3    H258328   3.650   3.433   2.438  1.3338  0.3860  0.5278
12305TIP3   OH258329   6.685   1.703   1.520 -0.0295 -0.0606 -0.4311
12305TIP3    H158330   6.725   1.706   1.607  2.0570  0.1769 -1.3830
12305TIP3    H258331   6.652   1.613   1.512 -0.7338  0.0750  0.8000
12306TIP3   OH258332   1.678   2.779  14.621 -0.0678  0.3815 -0.0393
12306TIP3    H158333   1.585   2.789  14.602 -0.3407 -2.2620 -0.3614
12306TIP3    H258334   1.697   2.846  14.686 -2.0585  1.3519 -0.4208
12307TIP3   OH258335   3.829   3.931  11.340 -0.2710  0.4775 -0.0799
12307TIP3    H158336   3.814   3.989  11.415  0.8009 -1.3965  1.6474
12307TIP3    H258337   3.764   3.862  11.350 -0.3246  0.3863 -1.0494
12308TIP3   OH258338   4.062   6.673   5.994  0.1097 -0.1935  0.1613
12308TIP3    H158339   4.128   6.604   6.002  0.5434  0.0485 -1.1417
12308TIP3    H258340   4.111   6.754   6.009  0.1988  0.0107 -1.1922
12309TIP3   OH258341   4.460   1.878  12.412 -0.4227 -0.4766  0.0791
12309TIP3    H158342   4.478   1.788  12.383  0.2273 -0.8612  1.6308
12309TIP3    H258343   4.403   1.868  12.488  0.2618  0.3870  0.7190
12310TIP3   OH258344   3.956   2.319   0.323  0.0208  0.0949 -0.0212
12310TIP3    H158345   3.901   2.253   0.366 -0.8649  0.2087 -0.9945
12310TIP3    H258346   3.965   2.389   0.388  0.7091 -0.8310  0.9022
12311TIP3   OH258347   6.173   3.096  14.466 -0.8378  0.2434 -0.2010
12311TIP3    H158348   6.131   3.080  14.551  0.6349  0.0412  0.4964
12311TIP3    H258349   6.220   3.015  14.447 -0.7958  0.4564 -0.9990
12312TIP3   OH258350   4.195   3.076  15.865  0.1576  0.6668 -0.1529
12312TIP3    H158351   4.200   3.102  15.773 -0.4789  0.2999 -0.2980
12312TIP3    H258352   4.265   3.012  15.875 -0.1712  0.2382 -0.5499
12313TIP3   OH258353   0.246   2.309  11.359  0.2316 -0.3806  0.2121
12313TIP3    H158354   0.267   2.368  11.431 -3.6976 -0.0201  1.2260
12313TIP3    H258355   0.203   2.364  11.294 -1.7366 -1.7071  0.3225
12314TIP3   OH258356   1.020   4.723   2.279 -0.1310 -0.1230 -0.3809
12314TIP3    H158357   1.096   4.698   2.226  0.0378 -0.2590 -0.0741
12314TIP3    H258358   0.957   4.757   2.216  0.3079  0.2839 -0.5943
12315TIP3   OH258359   2.138   4.004  15.237  0.1198 -0.2033  0.2461
12315TIP3    H158360   2.229   3.976  15.249 -0.2397 -2.1132 -1.2357
12315TIP3    H258361   2.088   3.949  15.297 -0.0968  0.7453  0.9517
12316TIP3   OH258362   4.252   6.654  13.342  0.4254 -0.0890  0.4606
12316TIP3    H158363   4.205   6.616  13.268 -0.8122  1.6160  0.3411
12316TIP3    H258364   4.251   6.586  13.409 -1.3382 -0.4477  0.0949
12317TIP3   OH258365   2.935   0.770  12.157 -0.0555 -0.2222  0.4313
12317TIP3    H158366   3.029   0.789  12.155 -0.4604  1.8244 -1.7236
12317TIP3    H258367   2.898   0.839  12.212 -0.4793 -0.0565 -0.0583
12318TIP3   OH258368   0.588   0.629  11.557 -0.5038  0.1621 -0.1379
12318TIP3    H158369   0.676   0.605  11.587 -1.1134 -1.9394  0.0698
12318TIP3    H258370   0.586   0.605  11.464 -1.2938 -1.1530  0.1994
12319TIP3   OH258371   1.015   6.383   3.662 -0.0762 -0.1535 -0.0096
12319TIP3    H158372   1.043   6.415   3.748 -0.1601 -0.2269  0.0457
12319TIP3    H258373   0.971   6.458   3.622  1.7057  0.4997 -0.8048
12320TIP3   OH258374   0.529   0.302   6.661  0.1099  0.0957 -0.2772
12320TIP3    H158375   0.514   0.209   6.681 -1.7994  0.2465 -0.9773
12320TIP3    H258376   0.444   0.336   6.635  0.1829  2.7872  2.7560
12321TIP3   OH258377   0.555   4.607   0.545  0.2276 -0.5072 -0.1973
12321TIP3    H158378   0.492   4.669   0.509  0.7604 -0.4668 -1.0846
12321TIP3    H258379   0.536   4.524   0.500  1.7432 -0.1419 -1.5678
12322TIP3   OH258380   3.996   4.840  14.931 -0.2240 -0.1505 -0.4381
12322TIP3    H158381   3.979   4.748  14.952 -1.1602  0.1423  0.0838
12322TIP3    H258382   3.915   4.871  14.891 -0.1195  0.6227 -0.0532
12323TIP3   OH258383   0.228   2.480  14.628  0.0663  0.3368 -0.2397
12323TIP3    H158384   0.182   2.397  14.622 -0.0600  0.5263 -2.4842
12323TIP3    H258385   0.313   2.458  14.666  0.0022 -0.8140 -0.7389
12324TIP3   OH258386   0.914   2.797  16.974 -0.0352 -0.2960  0.2140
12324TIP3    H158387   0.890   2.890  16.981 -0.5769 -0.4850  0.9178
12324TIP3    H258388   0.864   2.754  17.044  1.9742 -0.7807  1.4039
12325TIP3   OH258389   1.001   4.023  17.011 -0.3541  0.1694 -0.6415
12325TIP3    H158390   0.911   4.034  17.043 -0.2349 -0.0281 -0.2357
12325TIP3    H258391   1.038   4.111  17.013 -0.1540  0.0632  0.3428
12326TIP3   OH258392   0.578   3.585  10.868  0.4240  0.4103 -0.0066
12326TIP3    H158393   0.661   3.610  10.827  1.0933 -0.7466  0.6020
12326TIP3    H258394   0.535   3.530  10.804 -0.4805  2.0759 -0.8460
12327TIP3   OH258395   4.924   5.413   5.892 -0.0773 -0.3333 -0.1066
12327TIP3    H158396   4.853   5.462   5.850  0.5801  1.6335  0.9817
12327TIP3    H258397   4.911   5.429   5.986  0.4998 -1.7888  0.2266
12328TIP3   OH258398   5.521   2.084   4.517 -0.1771 -0.7920  0.2785
12328TIP3    H158399   5.489   2.086   4.608  1.1543  1.7842  0.7295
12328TIP3    H258400   5.472   2.154   4.473  1.3092 -0.0781 -0.2440
12329TIP3   OH258401   0.796   0.447  13.944  0.0702  0.3080 -0.4196
12329TIP3    H158402   0.764   0.499  13.870  0.6077  0.5143 -0.5065
12329TIP3    H258403   0.718   0.401  13.976 -0.2370  0.5035 -0.8803
12330TIP3   OH258404   2.653   4.500   4.264 -0.1746  0.1615 -0.4151
12330TIP3    H158405   2.568   4.457   4.257  0.6557 -1.7482  0.8610
12330TIP3    H258406   2.649   4.548   4.347  0.1198 -0.1983 -0.1950
12331TIP3   OH258407   4.317   3.491  15.885  0.1696 -0.0399  0.0581
12331TIP3    H158408   4.313   3.551  15.811  0.6184 -1.1681 -0.9025
12331TIP3    H258409   4.398   3.514  15.930  0.5747 -0.2143 -0.5697
12332TIP3   OH258410   5.511   5.634  10.615 -0.2184 -0.0030 -0.0126
12332TIP3    H158411   5.479   5.690  10.686  1.6785 -0.2268  1.0382
12332TIP3    H258412   5.441   5.570  10.602 -2.3375  2.4360 -1.1045
12333TIP3   OH258413   3.995   2.680  14.831 -0.2466  0.1339 -0.8152
12333TIP3    H158414   4.015   2.591  14.804 -0.8540 -0.2228 -0.0709
12333TIP3    H258415   4.049   2.695  14.909 -2.0565 -0.4650  0.5713
12334TIP3   OH258416   4.404   0.965  13.063 -0.2128 -0.8149  0.1912
12334TIP3    H158417   4.384   0.897  13.127  1.6592  0.1189  1.8068
12334TIP3    H258418   4.380   1.047  13.106 -2.1393 -0.3804 -1.6218
12335TIP3   OH258419   0.519   0.036   4.014 -0.6327 -1.2101  0.2371
12335TIP3    H158420   0.431   0.020   3.980 -0.6734  0.3803 -0.4303
12335TIP3    H258421   0.571   0.059   3.937  0.1637 -1.2727  0.7486
12336TIP3   OH258422   1.662   0.151  12.797 -0.0792  0.3333 -0.0648
12336TIP3    H158423   1.595   0.220  12.798 -0.2016  0.2238 -0.8086
12336TIP3    H258424   1.612   0.069  12.800  0.0395  0.2552 -0.2595
12337TIP3   OH258425   5.282   2.583  12.087 -0.3669 -0.0862 -0.2332
12337TIP3    H158426   5.351   2.551  12.029  0.1809  1.1032 -0.2489
12337TIP3    H258427   5.306   2.674  12.106  0.4368 -0.9602  3.2736
12338TIP3   OH258428   5.519   6.069   3.714 -0.7671 -0.0848 -0.1626
12338TIP3    H158429   5.495   6.129   3.785  1.0608 -0.5125  0.8451
12338TIP3    H258430   5.479   5.986   3.739  0.1245 -0.3103  0.5261
12339TIP3   OH258431   3.652   0.740  16.623 -0.2174 -0.1107 -0.1577
12339TIP3    H158432   3.717   0.678  16.590 -1.6013 -0.4295 -2.3369
12339TIP3    H258433   3.659   0.816  16.565 -0.1873  0.8120  1.0362
12340TIP3   OH258434   1.644   1.069   0.965  0.5380 -0.3881  0.5275
12340TIP3    H158435   1.690   1.044   0.885  0.5332  3.1216 -0.6595
12340TIP3    H258436   1.554   1.037   0.952  1.0640 -1.7151  0.0948
12341TIP3   OH258437   2.835   3.364  12.619  0.2494 -1.1205  0.5255
12341TIP3    H158438   2.759   3.418  12.645  0.4396  0.5155 -2.1771
12341TIP3    H258439   2.799   3.300  12.557  1.2955  0.6539 -1.9784
12342TIP3   OH258440   6.286   1.358   5.910 -0.4929  0.0723  0.9508
12342TIP3    H158441   6.309   1.385   5.999 -0.6572  1.3586  0.6096
12342TIP3    H258442   6.312   1.432   5.855 -2.5349  0.2421  0.1978
12343TIP3   OH258443   0.345   2.025  16.850  0.0868 -0.0295 -0.0414
12343TIP3    H158444   0.280   1.971  16.805  0.3338  0.3290 -0.8264
12343TIP3    H258445   0.428   1.981  16.835  0.1683  0.0783  0.0902
12344TIP3   OH258446   3.305   2.268   5.068 -0.0803 -0.0983 -0.0805
12344TIP3    H158447   3.289   2.245   5.159  1.0559  0.5205  0.2930
12344TIP3    H258448   3.225   2.312   5.039  0.0841  0.9540  1.0432
12345TIP3   OH258449   1.381   3.679   4.034  0.9500 -0.8412 -0.2306
12345TIP3    H158450   1.420   3.726   4.108  0.5945  1.7249 -1.6117
12345TIP3    H258451   1.304   3.635   4.071  0.8771  0.2639  0.9634
12346TIP3   OH258452   5.286   1.812  12.647 -0.0425 -0.0291  0.1619
12346TIP3    H158453   5.230   1.804  12.570  1.4584  0.7676 -1.0565
12346TIP3    H258454   5.231   1.855  12.713 -0.8937  0.6572 -0.9757
12347TIP3   OH258455   6.062   6.647   4.655  0.2328 -0.3610 -0.0163
12347TIP3    H158456   6.157   6.638   4.644  0.6502  1.6293  1.6361
12347TIP3    H258457   6.040   6.727   4.608 -0.3275  0.2002  1.1926
12348TIP3   OH258458   4.594   2.182   2.103 -0.3140 -0.2190 -0.1063
12348TIP3    H158459   4.547   2.100   2.094 -1.0064  0.2235 -0.6219
12348TIP3    H258460   4.683   2.163   2.073 -0.3495 -0.8817  0.2046
12349TIP3   OH258461   0.475   0.640   3.879  0.1096 -0.2015 -0.7853
12349TIP3    H158462   0.439   0.563   3.834 -1.4012 -1.3607  2.2623
12349TIP3    H258463   0.426   0.714   3.843  0.2790 -0.8458 -2.4103
12350TIP3   OH258464   6.531   0.103   2.471 -0.1300 -0.1134  0.6371
12350TIP3    H158465   6.567   0.019   2.499 -1.6120 -0.5562  1.2417
12350TIP3    H258466   6.443   0.082   2.439  0.1993  0.9255 -1.0072
12351TIP3   OH258467   3.510   6.199  13.634 -0.4746  0.1502  0.1813
12351TIP3    H158468   3.472   6.233  13.553 -0.4059 -0.3344 -0.0537
12351TIP3    H258469   3.435   6.182  13.690 -0.4838  1.1333  0.4745
12352TIP3   OH258470   3.301   0.272  13.894  0.2944 -0.5624  0.2090
12352TIP3    H158471   3.376   0.313  13.851 -1.0560 -0.6267 -2.3453
12352TIP3    H258472   3.225   0.306  13.847 -1.1598 -2.0566  1.4087
12353TIP3   OH258473   1.623   6.521   4.934  0.2704  0.3459 -0.2007
12353TIP3    H158474   1.622   6.547   5.026 -0.8629 -1.9555  0.4790
12353TIP3    H258475   1.715   6.522   4.910  0.6183  0.5465  1.1002
12354TIP3   OH258476   5.146   5.226   0.747 -0.1610 -0.2271 -0.2378
12354TIP3    H158477   5.169   5.265   0.662 -1.4529  1.9321  0.3713
12354TIP3    H258478   5.212   5.259   0.807 -0.8178  0.4329  0.1288
12355TIP3   OH258479   1.322   0.690   4.751  0.0582  0.5236  0.0369
12355TIP3    H158480   1.253   0.719   4.692  0.3954 -0.3460 -0.8081
12355TIP3    H258481   1.387   0.761   4.750 -0.7917  1.3188  0.7976
12356TIP3   OH258482   1.886   4.467  12.495  0.1248  0.2097  0.3361
12356TIP3    H158483   1.896   4.489  12.402 -1.5415  1.2919  0.3861
12356TIP3    H258484   1.812   4.406  12.497  1.4339 -1.3859  0.7532
12357TIP3   OH258485   3.015   0.278   5.427 -0.4186  0.3739 -0.6334
12357TIP3    H158486   3.095   0.329   5.438  0.4040 -0.8357 -0.8933
12357TIP3    H258487   3.032   0.222   5.351  0.2059 -2.9909  1.8423
12358TIP3   OH258488   3.303   1.646  15.726  0.1916 -0.3998 -1.0678
12358TIP3    H158489   3.210   1.670  15.723 -0.1940 -1.4038  1.5117
12358TIP3    H258490   3.341   1.708  15.788  1.3160  0.0863 -2.2093
12359TIP3   OH258491   5.856   1.766   5.474  0.0804  0.4624 -0.8270
12359TIP3    H158492   5.905   1.689   5.445 -1.2927 -0.7006 -0.0898
12359TIP3    H258493   5.924   1.829   5.500  1.1917 -1.0817  0.1045
12360TIP3   OH258494   4.732   2.903  16.095 -0.1763  0.0600  0.0432
12360TIP3    H158495   4.770   2.988  16.074 -0.3566  0.1616  0.1239
12360TIP3    H258496   4.643   2.907  16.061  0.2461 -0.6022 -1.1587
12361TIP3   OH258497   1.253   1.959   2.824  0.3248 -0.2532 -0.3364
12361TIP3    H158498   1.281   2.023   2.890 -0.1035 -0.7474  0.3359
12361TIP3    H258499   1.228   1.881   2.875  1.4063 -1.1633 -1.1828
12362TIP3   OH258500   2.388   0.168   0.879 -0.1829 -0.0051 -0.4373
12362TIP3    H158501   2.393   0.210   0.965  2.1844 -0.4886 -0.3102
12362TIP3    H258502   2.469   0.193   0.835 -0.1175 -1.9931 -1.5044
12363TIP3   OH258503   5.225   5.262  14.505  0.2727 -0.6015  0.1745
12363TIP3    H158504   5.148   5.245  14.560  0.8360  0.2079  1.2229
12363TIP3    H258505   5.191   5.315  14.433  0.0012  0.4422  1.0699
12364TIP3   OH258506   3.802   6.088   0.045  0.4080 -0.0962 -1.2252
12364TIP3    H158507   3.744   6.126  -0.022  0.5972  2.2157 -0.1428
12364TIP3    H258508   3.888   6.085   0.002  0.2186 -0.1086 -1.6088
12365TIP3   OH258509   2.217   1.750   4.989 -0.4318 -0.2622 -0.0721
12365TIP3    H158510   2.258   1.698   4.920 -1.8928 -0.1679 -1.0569
12365TIP3    H258511   2.222   1.695   5.067 -0.6682 -1.2989 -0.7674
12366TIP3   OH258512   2.284   1.222  13.318 -0.1678  0.1486 -0.0673
12366TIP3    H158513   2.367   1.260  13.291 -0.5120  0.5646 -0.5592
12366TIP3    H258514   2.230   1.224  13.239 -0.1305 -1.5448 -0.1575
12367TIP3   OH258515   1.530   4.121  11.608  0.1439 -0.3783  0.1695
12367TIP3    H158516   1.590   4.059  11.566  2.5042  1.2197  1.0559
12367TIP3    H258517   1.511   4.186  11.540 -2.2717 -1.9699 -0.7369
12368TIP3   OH258518   0.425   3.091  12.029  0.3472 -0.3456  0.0617
12368TIP3    H158519   0.342   3.070  12.071  0.4123  0.9578  0.8453
12368TIP3    H258520   0.489   3.034  12.072 -0.0895 -1.1931 -0.3946
12369TIP3   OH258521   6.413   0.210  13.911  0.9627  0.7816 -0.1811
12369TIP3    H158522   6.455   0.291  13.882  1.9632  0.5416  0.5713
12369TIP3    H258523   6.481   0.143  13.901  0.8346  0.4304  1.2582
12370TIP3   OH258524   4.259   3.805  13.867  0.4268  0.3436 -0.1366
12370TIP3    H158525   4.237   3.818  13.959 -2.2413  0.0760 -0.6742
12370TIP3    H258526   4.225   3.883  13.823  1.3605  0.3095 -0.9465
12371TIP3   OH258527   1.619   4.131  11.034 -0.5100 -0.2153 -0.3059
12371TIP3    H158528   1.549   4.095  11.088  0.2477 -0.0019  0.8525
12371TIP3    H258529   1.606   4.093  10.947 -1.6385 -0.7117  0.0829
12372TIP3   OH258530   2.741   3.053   0.477 -0.1892 -0.2958 -0.9327
12372TIP3    H158531   2.825   3.016   0.449  0.0328 -0.0359 -0.6163
12372TIP3    H258532   2.719   3.005   0.557  0.5514  0.8653 -0.0084
12373TIP3   OH258533   2.085   0.233   4.059  0.2721  0.0020 -0.2893
12373TIP3    H158534   2.015   0.188   4.107  1.3132  0.4651  1.7517
12373TIP3    H258535   2.039   0.295   4.002 -0.9745  1.2794  2.0242
12374TIP3   OH258536   1.150   3.186   1.806 -0.4453 -0.1332 -0.5380
12374TIP3    H158537   1.071   3.134   1.789 -0.1898 -0.6632 -0.1275
12374TIP3    H258538   1.179   3.157   1.893 -0.7750  1.2996  0.0624
12375TIP3   OH258539   3.973   6.183   3.283 -0.1694  0.3672 -0.1766
12375TIP3    H158540   3.915   6.132   3.339  0.9191 -0.2950  0.3752
12375TIP3    H258541   4.057   6.185   3.331  0.5849  0.3413 -1.4730
12376TIP3   OH258542   0.926   5.231  13.938  0.4853 -0.3819 -0.6483
12376TIP3    H158543   0.914   5.247  13.845  0.1287  0.1691 -0.5084
12376TIP3    H258544   0.911   5.316  13.980 -1.9122 -1.1338  0.1258
12377TIP3   OH258545   0.755   6.092  13.547 -0.0862  0.2348 -0.1411
12377TIP3    H158546   0.833   6.042  13.572 -1.3857 -0.5757  2.5562
12377TIP3    H258547   0.708   6.034  13.487  1.1893  0.5831 -1.5067
12378TIP3   OH258548   4.475   5.788   1.234  0.0546 -0.4562 -0.2528
12378TIP3    H158549   4.416   5.784   1.159 -0.6880 -1.0641  0.3553
12378TIP3    H258550   4.511   5.877   1.231 -0.2029 -0.3762 -1.1471
12379TIP3   OH258551   6.652   4.815  14.580  0.2125  0.1948 -0.4098
12379TIP3    H158552   6.690   4.902  14.595  0.1587  0.2462 -0.5766
12379TIP3    H258553   6.564   4.833  14.546 -0.1335  0.0816  0.3968
12380TIP3   OH258554   3.561   1.915  12.176  0.2475 -0.2045 -0.5306
12380TIP3    H158555   3.586   1.949  12.090  1.3646  2.0839  0.6538
12380TIP3    H258556   3.623   1.955  12.237 -0.7458 -1.5042  1.4084
12381TIP3   OH258557   0.184   0.707  11.391 -0.1006  0.2080  0.0174
12381TIP3    H158558   0.219   0.645  11.328  3.1142  2.6479 -0.7184
12381TIP3    H258559   0.217   0.793  11.362 -3.4391  2.1521  1.6382
12382TIP3   OH258560   6.502   4.909   2.885 -0.5631 -0.2613 -0.1411
12382TIP3    H158561   6.465   4.900   2.972 -0.7225 -1.6976 -0.3364
12382TIP3    H258562   6.435   4.871   2.827 -0.6604  1.0880 -0.9403
12383TIP3   OH258563   3.898   0.898  11.981  0.0853  0.0823  0.0392
12383TIP3    H158564   3.828   0.911  11.917  0.1956  3.5667  0.5681
12383TIP3    H258565   3.979   0.902  11.929  0.0247 -1.6863 -0.2315
12384TIP3   OH258566   2.184   2.961   3.176  0.8782  0.2920  0.5811
12384TIP3    H158567   2.145   2.928   3.095 -0.1139 -2.0958  1.9849
12384TIP3    H258568   2.229   3.041   3.150 -1.0337  0.6003 -1.9778
12385TIP3   OH258569   1.932   4.208   2.958  0.5427  0.1324  0.2274
12385TIP3    H158570   1.984   4.197   2.878 -1.3445 -0.8726 -0.8988
12385TIP3    H258571   1.985   4.165   3.026  1.0411 -1.2157 -0.9682
12386TIP3   OH258572   6.237   1.326  13.809  0.2383 -0.5830  0.5547
12386TIP3    H158573   6.199   1.404  13.769  1.0569  0.0958  1.0828
12386TIP3    H258574   6.172   1.257  13.794 -0.7756  0.3448  0.6491
12387TIP3   OH258575   2.027   1.061  16.972 -0.4624 -0.2012  0.1949
12387TIP3    H158576   2.081   1.076  17.050  1.7821 -1.4556 -1.0745
12387TIP3    H258577   1.974   1.140  16.964  0.5847  0.7125  1.9520
12388TIP3   OH258578   6.691   6.697  16.980  0.2785  0.1234 -0.2785
12388TIP3    H158579   6.754   6.755  16.937  0.7138 -1.4238 -1.8137
12388TIP3    H258580   6.746   6.629  17.020 -0.3297 -0.4418 -0.3983
12389TIP3   OH258581   3.676   5.531   5.998  0.6466  0.7346  0.7046
12389TIP3    H158582   3.583   5.520   6.019  0.8814 -0.3130  1.2140
12389TIP3    H258583   3.718   5.548   6.082  1.6371 -3.8278  1.2189
12390TIP3   OH258584   3.872   5.669   2.907  0.0303 -0.2350  0.5110
12390TIP3    H158585   3.889   5.629   2.822 -0.7522 -0.4040  0.4345
12390TIP3    H258586   3.933   5.626   2.967  2.6879  1.9516 -0.5062
12391TIP3   OH258587   0.416   1.170   4.844 -0.0420  0.2630  0.2243
12391TIP3    H158588   0.441   1.184   4.753 -0.8804 -0.4626 -0.1337
12391TIP3    H258589   0.490   1.201   4.895  1.2175 -1.0335 -0.7618
12392TIP3   OH258590   2.488   4.385  13.816 -0.4829 -0.2233  0.3407
12392TIP3    H158591   2.466   4.477  13.825  0.8524 -0.0183  1.6949
12392TIP3    H258592   2.547   4.382  13.740 -0.8698 -0.0292  0.0318
12393TIP3   OH258593   2.983   0.224  12.062  0.2059  0.0365  0.1870
12393TIP3    H158594   2.887   0.219  12.055  0.3430 -0.4392 -1.4232
12393TIP3    H258595   3.004   0.312  12.032  0.2126  0.4517  1.3802
12394TIP3   OH258596   5.101   1.972  12.814  0.1500  0.4418 -0.1088
12394TIP3    H158597   5.172   1.975  12.878 -0.3913 -4.2123  0.8985
12394TIP3    H258598   5.022   1.987  12.864 -0.0331 -0.2200 -0.1922
12395TIP3   OH258599   5.635   2.433  11.381  0.1406  0.0048 -0.1470
12395TIP3    H158600   5.651   2.412  11.289  0.9808 -0.0272  0.0087
12395TIP3    H258601   5.678   2.363  11.430  0.5281  0.5500  0.2970
12396TIP3   OH258602   2.986   2.688  16.306 -0.7631  0.5847 -0.0467
12396TIP3    H158603   3.007   2.774  16.344 -1.3218  0.0053  1.6058
12396TIP3    H258604   2.957   2.636  16.381 -1.5560 -0.6862 -1.2361
12397TIP3   OH258605   6.311   3.176  10.442  0.3262  0.3584  0.8146
12397TIP3    H158606   6.341   3.246  10.383 -0.7437 -0.4633 -0.7405
12397TIP3    H258607   6.386   3.117  10.448  0.9957  1.2778  1.5751
12398TIP3   OH258608   1.474   2.852   0.633  0.8870 -0.0590  0.7595
12398TIP3    H158609   1.470   2.772   0.582 -0.6666 -0.8099  2.0036
12398TIP3    H258610   1.405   2.908   0.596  0.8144  0.0193  1.0114
12399TIP3   OH258611   4.867   6.470  11.009 -0.1319  0.1689 -0.4390
12399TIP3    H158612   4.797   6.407  11.026 -1.2594  1.7658  0.9267
12399TIP3    H258613   4.906   6.441  10.926 -1.0830 -1.9045 -0.1852
12400TIP3   OH258614   3.494   3.188   3.375 -0.3272  0.0966 -0.2346
12400TIP3    H158615   3.515   3.200   3.282 -2.1875  1.6532 -0.4856
12400TIP3    H258616   3.467   3.275   3.405 -2.5728 -0.9663  0.9992
12401TIP3   OH258617   6.006   5.821   0.136  0.0856 -0.0968 -0.4044
12401TIP3    H158618   6.038   5.733   0.117 -2.3323 -1.2877  0.9228
12401TIP3    H258619   5.923   5.827   0.090 -0.1199  1.2191  0.1195
12402TIP3   OH258620   5.985   1.934  15.112  0.0025 -0.2329  0.3962
12402TIP3    H158621   6.027   2.012  15.149 -2.5316  1.1670  0.4507
12402TIP3    H258622   6.029   1.860  15.154  2.0781  1.1819  0.7528
12403TIP3   OH258623   2.523   2.603  12.186 -0.0171  0.5313  0.0859
12403TIP3    H158624   2.524   2.518  12.142 -0.2086  0.3681  0.3943
12403TIP3    H258625   2.553   2.665  12.119  0.5531  0.1588 -0.0061
12404TIP3   OH258626   4.161   2.789  13.977 -0.3263  0.4598  0.8656
12404TIP3    H158627   4.069   2.814  13.974 -0.7093 -0.6801  2.4508
12404TIP3    H258628   4.164   2.714  14.037  1.2559 -1.1767 -1.1548
12405TIP3   OH258629   4.891   1.435   1.358  0.1544  0.5104 -0.1195
12405TIP3    H158630   4.860   1.526   1.358  0.0634  0.4816 -1.1692
12405TIP3    H258631   4.934   1.424   1.274 -0.1529 -0.5349 -0.1463
12406TIP3   OH258632   2.995   4.921   0.692 -0.3572  0.5690  0.1912
12406TIP3    H158633   2.991   4.870   0.773  1.9223  0.7040  0.4099
12406TIP3    H258634   3.087   4.947   0.684 -0.5875  0.7444 -2.3219
12407TIP3   OH258635   3.975   2.055  16.211 -0.1049  1.2510 -0.3233
12407TIP3    H158636   3.950   2.008  16.291  1.6329  1.3002  0.2783
12407TIP3    H258637   3.995   1.987  16.148 -1.7519  1.2100 -0.8383
12408TIP3   OH258638   1.527   1.802   3.422  0.1578 -0.8434  0.5948
12408TIP3    H158639   1.497   1.718   3.388 -0.4106  0.3389 -1.8842
12408TIP3    H258640   1.615   1.784   3.456  0.0608 -2.4120  0.0372
12409TIP3   OH258641   2.617   3.982  11.867  0.0239  0.5050  0.1425
12409TIP3    H158642   2.679   3.983  11.794  0.7125 -2.2717  0.6074
12409TIP3    H258643   2.664   3.937  11.937 -1.0488  2.1030  1.9223
12410TIP3   OH258644   3.451   1.968  14.569  0.0127 -0.0185 -0.0084
12410TIP3    H158645   3.469   1.898  14.506  1.3829  0.2104  0.1072
12410TIP3    H258646   3.433   1.923  14.651 -0.3067 -0.2696 -0.2150
12411TIP3   OH258647   4.540   3.370  13.907 -0.1375 -0.5269  0.1987
12411TIP3    H158648   4.549   3.297  13.969 -0.6604 -0.0458  0.8474
12411TIP3    H258649   4.630   3.400  13.893  0.1693 -1.7544 -0.6505
12412TIP3   OH258650   5.216   0.056   1.104 -0.4465 -0.0360  0.2062
12412TIP3    H158651   5.278   0.011   1.161  0.3607  0.4753 -0.2420
12412TIP3    H258652   5.230   0.149   1.122 -0.6751  0.1037 -0.3085
12413TIP3   OH258653   6.043   3.064   1.524 -0.3705 -0.1194  0.2406
12413TIP3    H158654   6.018   3.109   1.604  0.5947 -1.8527  1.5399
12413TIP3    H258655   6.117   3.115   1.490 -1.7528  1.5147 -0.4118
12414TIP3   OH258656   2.425   5.940  16.699 -0.2810  0.0078 -0.1401
12414TIP3    H158657   2.343   5.971  16.737 -0.9120 -1.1773 -0.5250
12414TIP3    H258658   2.437   5.852  16.735 -0.0695 -0.4955 -1.3979
12415TIP3   OH258659   5.347   3.300  13.903 -0.3242 -0.1150 -0.3271
12415TIP3    H158660   5.364   3.393  13.917  2.4050 -0.7184  0.6287
12415TIP3    H258661   5.258   3.286  13.936 -0.9143  2.1997 -0.8668
12416TIP3   OH258662   0.526   4.917  15.146  0.6877  0.1421  0.4676
12416TIP3    H158663   0.550   4.890  15.058  0.3096 -0.0393  0.4184
12416TIP3    H258664   0.431   4.906  15.150  0.4111  2.3020  0.1601
12417TIP3   OH258665   5.154   0.631   2.806 -0.2347 -0.3683  0.1696
12417TIP3    H158666   5.070   0.593   2.831  0.1838 -1.4196  0.0017
12417TIP3    H258667   5.208   0.556   2.781  0.4274  0.3850 -0.7093
12418TIP3   OH258668   0.187   5.424  14.957 -0.0091  0.2882  0.0312
12418TIP3    H158669   0.270   5.428  15.004 -0.0883  0.7707  0.1260
12418TIP3    H258670   0.125   5.471  15.012 -0.2413  0.3298 -0.2636
12419TIP3   OH258671   5.093   3.399  11.773 -0.2401  0.0802 -0.4344
12419TIP3    H158672   5.017   3.435  11.819 -1.3015 -2.0548 -0.4194
12419TIP3    H258673   5.083   3.304  11.783  4.1652 -0.1976  2.3029
12420TIP3   OH258674   4.162   6.758   5.708 -0.4088 -0.1588 -0.0411
12420TIP3    H158675   4.228   6.794   5.767 -1.8996  0.6418  1.1796
12420TIP3    H258676   4.193   6.671   5.686  1.2369  0.3512  0.2066
12421TIP3   OH258677   3.411   5.948  12.987 -0.1968 -0.1650 -0.0809
12421TIP3    H158678   3.472   5.957  13.060  0.9488  0.5723 -1.1195
12421TIP3    H258679   3.432   6.020  12.928 -2.7387  0.7105  0.0033
12422TIP3   OH258680   1.881   4.781   2.846 -0.1914  0.4235  0.3441
12422TIP3    H158681   1.788   4.769   2.866  0.3915  1.9375  4.6107
12422TIP3    H258682   1.921   4.697   2.870 -0.2860  0.2369 -0.1554
12423TIP3   OH258683   3.612   2.566   3.469  0.3753 -0.2410  0.0859
12423TIP3    H158684   3.524   2.556   3.506 -0.1893  1.2756 -0.8016
12423TIP3    H258685   3.669   2.523   3.532 -0.8049  0.4557  1.6801
12424TIP3   OH258686   1.844   6.678  14.092 -0.4130 -0.1450 -0.0226
12424TIP3    H158687   1.832   6.760  14.043  2.1693 -0.4858 -1.2819
12424TIP3    H258688   1.869   6.614  14.026  0.9558 -1.1472  1.4429
12425TIP3   OH258689   3.260   2.354  16.225  0.3483  0.0851 -0.8827
12425TIP3    H158690   3.264   2.447  16.247 -1.9198 -0.1225  0.5546
12425TIP3    H258691   3.166   2.336  16.217  0.7565 -2.1446 -0.8050
12426TIP3   OH258692   4.278   2.157   3.372 -0.2942  0.2817  0.5565
12426TIP3    H158693   4.223   2.081   3.392  0.4087 -0.1899  0.7192
12426TIP3    H258694   4.330   2.170   3.451 -1.1668  1.6102  0.9435
12427TIP3   OH258695   6.679   1.163   2.580  0.5090 -0.2578  0.2069
12427TIP3    H158696   6.772   1.145   2.565  0.9180  0.9803  1.1840
12427TIP3    H258697   6.679   1.232   2.646 -1.1141 -0.2895  0.2382
12428TIP3   OH258698   6.551   2.107  13.963 -0.5476  0.0853 -0.7829
12428TIP3    H158699   6.552   2.026  13.912 -0.2733 -0.6061  0.2977
12428TIP3    H258700   6.464   2.110  14.001 -0.6370  0.4220 -1.0172
12429TIP3   OH258701   1.933   1.283   4.902  0.1224 -0.3868 -0.1700
12429TIP3    H158702   1.857   1.224   4.911 -0.2116 -0.1100 -1.1349
12429TIP3    H258703   1.924   1.344   4.976 -0.6332 -0.3160 -0.3159
12430TIP3   OH258704   1.201   5.780  11.595  0.2644 -0.0155 -0.3395
12430TIP3    H158705   1.249   5.698  11.604  0.3045  0.1493  1.0060
12430TIP3    H258706   1.114   5.754  11.566  0.7048 -0.4257 -1.3043
12431TIP3   OH258707   3.812   2.976   1.285 -0.4973  0.2052  0.0233
12431TIP3    H158708   3.823   2.940   1.197 -0.1366  0.1206  0.1010
12431TIP3    H258709   3.726   3.016   1.284 -1.9478 -2.7420  0.6546
12432TIP3   OH258710   5.116   3.969  10.444  0.0631  0.1454 -0.3592
12432TIP3    H158711   5.173   3.906  10.488  1.7488  3.7594  2.9845
12432TIP3    H258712   5.174   4.013  10.381 -0.9976 -1.2835 -2.3800
12433TIP3   OH258713   0.710   3.538  15.348 -0.4003  0.0087  0.3827
12433TIP3    H158714   0.662   3.483  15.410 -1.3763 -0.8294 -1.0778
12433TIP3    H258715   0.720   3.483  15.270  2.1285  0.5237  0.3150
12434TIP3   OH258716   0.305   0.836   1.258 -0.3396 -0.1305 -0.1264
12434TIP3    H158717   0.249   0.896   1.207  0.2775  0.1452 -0.4942
12434TIP3    H258718   0.253   0.756   1.266 -1.0504  0.3476  0.1008
12435TIP3   OH258719   3.047   0.050  13.205 -0.2876  0.0433  0.3371
12435TIP3    H158720   3.107   0.023  13.135 -0.8759 -2.3194  0.7018
12435TIP3    H258721   2.962   0.014  13.180 -1.0790  1.4085  0.9820
12436TIP3   OH258722   3.813   0.539  17.026 -0.0754 -0.0223 -0.5281
12436TIP3    H158723   3.876   0.521  16.957 -0.8970 -0.2413 -1.2232
12436TIP3    H258724   3.763   0.458  17.036 -1.1044  0.5589 -0.8808
12437TIP3   OH258725   4.353   5.753  12.323 -0.1881 -0.0129 -0.0536
12437TIP3    H158726   4.328   5.766  12.231 -1.4901 -1.6243  0.0563
12437TIP3    H258727   4.286   5.802  12.372  0.4260  0.7310  0.0467
12438TIP3   OH258728   2.306   6.561   3.583 -0.0536 -0.0418  0.4601
12438TIP3    H158729   2.247   6.617   3.633  2.9871  2.5949  1.3204
12438TIP3    H258730   2.300   6.594   3.493 -0.2989 -0.1686  0.4284
12439TIP3   OH258731   0.333   0.945   0.732  0.0601 -0.0591  0.2027
12439TIP3    H158732   0.268   1.008   0.701  0.2542  0.0275 -0.0354
12439TIP3    H258733   0.296   0.860   0.708  1.2473  0.0938 -2.3554
12440TIP3   OH258734   5.464   0.864  14.692  0.2106  0.4001 -0.4229
12440TIP3    H158735   5.539   0.862  14.752 -0.0923 -2.1391 -0.1125
12440TIP3    H258736   5.504   0.862  14.604  0.5640  1.6775 -0.3063
12441TIP3   OH258737   3.610   3.876   4.768  0.3862  0.7538 -0.1123
12441TIP3    H158738   3.535   3.847   4.820  1.1253  1.2146  1.2270
12441TIP3    H258739   3.664   3.798   4.757  0.4373  0.7509  0.1690
12442TIP3   OH258740   4.851   1.171  13.080  0.6695 -0.2862  0.1812
12442TIP3    H158741   4.927   1.124  13.114  0.3446 -1.0310 -0.1214
12442TIP3    H258742   4.802   1.197  13.158  1.8397  1.2221  0.4258
12443TIP3   OH258743   6.441   6.573   3.655  0.0394 -0.1027  0.2377
12443TIP3    H158744   6.346   6.570   3.669 -0.2209 -1.5010 -1.6080
12443TIP3    H258745   6.465   6.482   3.638  1.6153  0.3330  0.1187
12444TIP3   OH258746   1.212   6.548  14.962  0.1688 -0.4480  0.0029
12444TIP3    H158747   1.274   6.482  14.931 -0.8948 -1.5085  0.0749
12444TIP3    H258748   1.153   6.562  14.888 -0.6885 -0.9218  0.5779
12445TIP3   OH258749   0.011   4.982  15.193 -0.0067 -0.2403 -0.0540
12445TIP3    H158750   0.014   5.068  15.150 -1.4408 -1.0221 -1.7807
12445TIP3    H258751  -0.067   4.985  15.247  0.5326 -0.0911  0.7260
12446TIP3   OH258752   0.045   0.891  15.238  0.5098  0.5077  0.3462
12446TIP3    H158753   0.140   0.883  15.227  0.4074 -1.6404  0.8776
12446TIP3    H258754   0.029   0.863  15.328 -0.6457  0.8022  0.2409
12447TIP3   OH258755   1.739   6.269  11.399 -0.4946 -0.6160 -0.0451
12447TIP3    H158756   1.707   6.335  11.337 -0.7956 -0.6590  0.0636
12447TIP3    H258757   1.758   6.193  11.345  0.7973 -0.1153 -0.3022
12448TIP3   OH258758   3.086   4.652  12.574  0.2402 -1.0096 -0.2965
12448TIP3    H158759   3.006   4.687  12.615 -0.2127 -1.5721 -0.6920
12448TIP3    H258760   3.111   4.578  12.630  1.2875  0.0422  0.6307
12449TIP3   OH258761   6.432   5.870   2.408 -0.4760 -0.1750  0.8117
12449TIP3    H158762   6.403   5.879   2.499 -0.6120  1.8026  0.5962
12449TIP3    H258763   6.526   5.889   2.411 -0.8416  1.7150  0.2681
12450TIP3   OH258764   6.503   4.102  13.296  0.2339  0.2705  0.1473
12450TIP3    H158765   6.572   4.046  13.260 -0.5414 -1.0930  0.7490
12450TIP3    H258766   6.450   4.043  13.350  0.5580  1.9658  2.3946
12451TIP3   OH258767   2.829   2.406  15.918  0.4452 -0.1831  0.0467
12451TIP3    H158768   2.862   2.460  15.989  0.4745 -1.4514  1.0074
12451TIP3    H258769   2.821   2.466  15.844  2.9194  0.5920  0.3820
12452TIP3   OH258770   5.878   4.180  15.231 -0.1587  0.2736  1.1230
12452TIP3    H158771   5.878   4.090  15.198  2.1985  0.5537  0.3023
12452TIP3    H258772   5.825   4.229  15.168  1.0405  0.0311 -0.0882
12453TIP3   OH258773   2.001   1.865   3.655 -0.4732  0.2229 -0.2739
12453TIP3    H158774   2.068   1.934   3.654 -0.9838  0.7837  2.0746
12453TIP3    H258775   2.015   1.819   3.737 -2.2816 -0.3604 -0.2670
12454TIP3   OH258776   4.770   4.838   3.081  0.3081  0.3951  0.1292
12454TIP3    H158777   4.833   4.819   3.012  1.0541  0.8755  0.6789
12454TIP3    H258778   4.822   4.871   3.153 -0.7487  2.3724  0.0075
12455TIP3   OH258779   6.367   2.029  10.562  0.5362  0.4302  0.0078
12455TIP3    H158780   6.373   1.952  10.505  2.4573  0.9400 -0.4845
12455TIP3    H258781   6.273   2.042  10.573  0.1683 -1.8731 -0.0577
12456TIP3   OH258782   2.876   3.776   1.105 -0.4275 -0.4114  0.2030
12456TIP3    H158783   2.942   3.786   1.174 -0.8800  1.1381  0.4292
12456TIP3    H258784   2.919   3.721   1.039  0.6667 -0.4026  0.8899
12457TIP3   OH258785   5.827   1.330   1.188 -0.1344 -0.0418  0.1909
12457TIP3    H158786   5.897   1.305   1.128  0.2437  1.2082  0.0940
12457TIP3    H258787   5.853   1.292   1.272  0.6785  0.4121  0.1577
12458TIP3   OH258788   3.218   5.029  11.492  0.8101 -0.4838  0.0861
12458TIP3    H158789   3.192   5.120  11.483  1.6011 -0.3530 -0.9468
12458TIP3    H258790   3.307   5.033  11.528  1.1191 -0.8298 -0.6303
12459TIP3   OH258791   6.623   4.490  17.044  0.3776  0.4951  0.0512
12459TIP3    H158792   6.699   4.460  17.093  0.3635  0.6170  0.1467
12459TIP3    H258793   6.659   4.524  16.962  0.4677  0.9409  0.2743
12460TIP3   OH258794   1.403   5.902  17.142 -0.8510  0.0224 -0.2188
12460TIP3    H158795   1.394   5.887  17.047 -1.2026  1.3046 -0.3998
12460TIP3    H258796   1.373   5.820  17.182 -1.2655 -0.3173 -1.1998
12461TIP3   OH258797   1.342   1.271  12.309 -0.4080 -0.1563  0.0109
12461TIP3    H158798   1.359   1.218  12.386 -0.1390  0.0060  0.0621
12461TIP3    H258799   1.375   1.219  12.235  2.4228  1.1540  0.3250
12462TIP3   OH258800   6.376   4.863   0.099  0.4310  0.7908 -0.2467
12462TIP3    H158801   6.456   4.915   0.107 -0.4908  2.3417 -1.0145
12462TIP3    H258802   6.317   4.899   0.165  0.5109 -0.6512  0.6257
12463TIP3   OH258803   0.122   0.237   0.417 -0.0210 -0.5063  0.0412
12463TIP3    H158804   0.168   0.252   0.334 -1.2245  1.4594 -0.3128
12463TIP3    H258805   0.029   0.249   0.395 -0.6251 -3.0280  1.0396
12464TIP3   OH258806   6.601   1.348  10.828 -0.0803 -0.0243  0.4849
12464TIP3    H158807   6.616   1.421  10.889  0.0410  0.2369  0.1446
12464TIP3    H258808   6.516   1.313  10.854 -0.5124  0.7483  0.1354
12465TIP3   OH258809   3.479   0.894   2.593 -0.0330  0.1516  0.5718
12465TIP3    H158810   3.550   0.937   2.545 -1.0537  1.5172  0.2557
12465TIP3    H258811   3.411   0.880   2.527  0.0600 -1.4552  0.7986
12466TIP3   OH258812   4.138   4.327  12.168  0.3634 -0.4152 -0.2527
12466TIP3    H158813   4.214   4.286  12.208  0.9917  0.0076 -0.9975
12466TIP3    H258814   4.128   4.409  12.216  1.6833  0.5324 -1.5371
12467TIP3   OH258815   4.480   5.320  15.347 -0.4114 -0.3366 -0.1008
12467TIP3    H158816   4.502   5.411  15.330  0.2111 -0.6297 -0.8445
12467TIP3    H258817   4.488   5.311  15.442 -1.6315  0.6832  0.1212
12468TIP3   OH258818   2.359   2.676  15.032 -0.0682 -0.0330 -0.6073
12468TIP3    H158819   2.353   2.694  14.938  2.2211  1.7962 -0.4318
12468TIP3    H258820   2.437   2.723  15.061 -1.0155 -0.1794  2.3247
12469TIP3   OH258821   4.995   2.738  14.205  0.3627  0.0818  0.1650
12469TIP3    H158822   5.028   2.814  14.252  0.5512  0.3136 -0.3407
12469TIP3    H258823   4.982   2.769  14.116  1.6600 -0.8123 -0.3522
12470TIP3   OH258824   0.416   0.861   0.200  0.1292 -0.1780  0.2918
12470TIP3    H158825   0.507   0.892   0.194 -0.2159  1.1410  1.6125
12470TIP3    H258826   0.363   0.940   0.192 -0.9453 -1.0126 -1.0856
12471TIP3   OH258827   6.610   1.994   5.742  0.2636 -0.7069  0.1534
12471TIP3    H158828   6.578   2.037   5.821 -2.0241 -0.1165 -1.0448
12471TIP3    H258829   6.598   1.901   5.759  1.9893 -0.7231  1.4029
12472TIP3   OH258830   6.400   2.652   5.425 -0.0024  0.1658 -0.4996
12472TIP3    H158831   6.454   2.579   5.455 -0.2272 -0.2056 -0.9831
12472TIP3    H258832   6.415   2.722   5.489  0.2681 -0.2815 -0.0755
12473TIP3   OH258833   4.623   3.163  13.581 -0.7714 -0.1534  0.8286
12473TIP3    H158834   4.542   3.203  13.613 -1.8427 -0.2900 -1.6338
12473TIP3    H258835   4.620   3.073  13.614 -2.3525 -0.5933 -0.4827
12474TIP3   OH258836   2.903   4.414  15.620  0.0379  0.5401  0.1509
12474TIP3    H158837   2.954   4.379  15.547 -0.8511  1.4205 -0.9094
12474TIP3    H258838   2.888   4.339  15.677 -0.9237 -0.6051 -1.5630
12475TIP3   OH258839   1.559   6.616  13.091  0.6444 -0.1882 -0.0317
12475TIP3    H158840   1.467   6.618  13.115  0.5828  1.1016 -0.3384
12475TIP3    H258841   1.594   6.538  13.133 -1.0050 -1.7053 -1.4200
12476TIP3   OH258842   6.101   2.363   2.300 -0.3151  0.7764 -0.3233
12476TIP3    H158843   6.046   2.339   2.226  1.1722 -1.3338 -0.7866
12476TIP3    H258844   6.039   2.396   2.366 -1.7154  1.9626 -2.1901
12477TIP3   OH258845   4.689   0.950  14.538 -0.7460 -0.0161 -0.5193
12477TIP3    H158846   4.731   1.035  14.550 -0.9952  0.2665 -1.6468
12477TIP3    H258847   4.729   0.914  14.459 -0.9154 -0.7784 -0.2639
12478TIP3   OH258848   0.819   5.016  16.506 -0.1308 -0.0410 -0.1809
12478TIP3    H158849   0.760   5.086  16.477 -1.4018 -1.6676 -1.6131
12478TIP3    H258850   0.897   5.027  16.451 -1.3463 -1.2678 -2.2522
12479TIP3   OH258851   3.534   3.809  15.261  0.3123 -0.2811  0.4031
12479TIP3    H158852   3.559   3.797  15.352 -0.0638  1.0400  0.6937
12479TIP3    H258853   3.617   3.824  15.215  0.3772  0.4412  0.7581
12480TIP3   OH258854   4.288   1.739  12.601  0.1504  0.6259 -0.3898
12480TIP3    H158855   4.242   1.658  12.627  1.8697 -0.8271 -1.7502
12480TIP3    H258856   4.377   1.727  12.632  0.4593  1.9614 -0.7344
12481TIP3   OH258857   3.008   4.651  13.117  0.1536 -0.3285  0.3554
12481TIP3    H158858   3.074   4.591  13.152  0.4749  0.7801  1.7094
12481TIP3    H258859   3.058   4.728  13.091 -0.4075 -0.1366 -0.1556
12482TIP3   OH258860   0.941   3.738   1.447  0.1166  0.2180  0.3815
12482TIP3    H158861   0.981   3.814   1.489 -1.6585  0.5158  1.5462
12482TIP3    H258862   0.879   3.774   1.384 -0.7519 -0.2565  0.9594
12483TIP3   OH258863   0.869   4.913   3.921  0.7769 -0.0457  0.4382
12483TIP3    H158864   0.917   4.898   4.003 -0.5985 -0.1633  1.2333
12483TIP3    H258865   0.848   5.006   3.922  0.4905 -0.1084  0.3820
12484TIP3   OH258866   1.917   0.617  13.108 -0.6823  0.0403 -0.5822
12484TIP3    H158867   1.832   0.622  13.065 -1.2864 -0.9028  0.4512
12484TIP3    H258868   1.959   0.541  13.068 -1.2272 -0.8109  0.4450
12485TIP3   OH258869   2.364   3.202   3.564 -0.0897 -0.3837  0.5630
12485TIP3    H158870   2.370   3.129   3.503  0.7843 -2.9515  3.6082
12485TIP3    H258871   2.442   3.194   3.620 -0.0188  2.8328  1.0230
12486TIP3   OH258872   4.006   0.979  15.422 -0.0038  0.7465 -0.3110
12486TIP3    H158873   3.916   0.993  15.394 -0.1193 -0.0547 -0.3544
12486TIP3    H258874   3.999   0.948  15.512  0.2815  1.6856  0.0387
12487TIP3   OH258875   6.400   6.422   4.297 -0.0359 -0.3812  0.5635
12487TIP3    H158876   6.405   6.387   4.207  0.0518 -0.3915  0.5722
12487TIP3    H258877   6.488   6.408   4.332  0.7349  2.0955 -0.2618
12488TIP3   OH258878   4.469   5.251   4.554 -0.0205 -0.7171 -0.0270
12488TIP3    H158879   4.446   5.221   4.642 -0.6535 -0.7496 -0.2017
12488TIP3    H258880   4.531   5.322   4.568  0.3354 -1.1182  0.4309
12489TIP3   OH258881   2.376   1.892  12.367 -0.6938 -0.2317  0.5139
12489TIP3    H158882   2.457   1.865  12.324 -0.6762 -0.9260  0.9978
12489TIP3    H258883   2.319   1.816  12.362 -0.9727 -0.0604  1.0466
12490TIP3   OH258884   5.855   6.109   3.262 -0.9138 -0.2961 -0.3225
12490TIP3    H158885   5.846   6.064   3.178 -0.2212  1.9889 -1.6805
12490TIP3    H258886   5.858   6.202   3.239  0.1470  0.3344  2.1635
12491TIP3   OH258887   4.122   6.224   0.763  0.1127 -0.0065 -0.3706
12491TIP3    H158888   4.086   6.137   0.778  1.5438 -0.5281  0.1382
12491TIP3    H258889   4.052   6.272   0.719 -0.8598 -1.2597 -0.2161
12492TIP3   OH258890   1.410   4.806  16.713 -0.3595 -0.2376  0.2993
12492TIP3    H158891   1.341   4.799  16.647  0.5289  1.3135 -0.8332
12492TIP3    H258892   1.476   4.743  16.684 -0.8044 -0.9184  0.7645
12493TIP3   OH258893   6.318   1.898   1.903  0.0278  0.0678  0.3064
12493TIP3    H158894   6.367   1.825   1.864  0.1775  1.0327 -1.3644
12493TIP3    H258895   6.264   1.931   1.831 -1.0530  0.7488  1.4191
12494TIP3   OH258896   0.791   2.726   4.918  0.3745  0.2360  0.5554
12494TIP3    H158897   0.854   2.750   4.987  0.8435 -1.9251  0.8985
12494TIP3    H258898   0.826   2.767   4.839  1.5949  0.0414  0.9784
12495TIP3   OH258899   4.003   1.848   5.387 -0.1720 -0.1068  0.5541
12495TIP3    H158900   3.993   1.913   5.457  1.3426  0.4173  0.2892
12495TIP3    H258901   4.067   1.786   5.422 -1.3706 -1.2823  0.6748
12496TIP3   OH258902   0.682   1.908   5.052 -0.2228 -0.1485  0.2005
12496TIP3    H158903   0.757   1.863   5.012 -0.7385 -1.2838  0.4996
12496TIP3    H258904   0.694   2.000   5.027  0.9297 -0.4121 -0.2803
12497TIP3   OH258905   3.355   4.362  15.424  0.3511 -0.2021  0.1672
12497TIP3    H158906   3.364   4.277  15.466  1.5759 -0.1306  0.0567
12497TIP3    H258907   3.325   4.343  15.336  3.3025 -0.7181 -0.7817
12498TIP3   OH258908   3.714   6.001  11.989 -0.0598  0.0446 -0.1606
12498TIP3    H158909   3.686   6.065  11.923 -1.6228  0.6114  1.0230
12498TIP3    H258910   3.721   6.052  12.070  2.2274 -0.5642  0.0476
12499TIP3   OH258911   1.542   6.766   0.127  0.7803 -0.3838  0.5041
12499TIP3    H158912   1.486   6.786   0.052  3.4632 -1.6933 -1.9771
12499TIP3    H258913   1.559   6.851   0.168 -0.8676  0.3309 -0.2563
12500TIP3   OH258914   0.616   1.323  12.494  0.0122  0.2084  0.1653
12500TIP3    H158915   0.641   1.284  12.411  1.0572 -2.0741  1.5109
12500TIP3    H258916   0.696   1.323  12.546 -0.7714  1.0668  1.3946
12501TIP3   OH258917   4.184   5.493  16.835 -0.1620 -0.0251 -0.0777
12501TIP3    H158918   4.089   5.497  16.845 -0.1534 -0.4835  0.1821
12501TIP3    H258919   4.198   5.483  16.741 -0.4227 -1.5459  0.0280
12502TIP3   OH258920   6.039   2.039   3.239  0.0938 -0.0696 -0.2845
12502TIP3    H158921   6.038   2.125   3.197  1.9659  0.1917  0.1505
12502TIP3    H258922   6.124   2.034   3.283 -0.0630 -2.0587 -0.1204
12503TIP3   OH258923   6.671   6.021   2.411 -0.4578 -0.0020 -0.0218
12503TIP3    H158924   6.725   6.017   2.332  1.5298 -3.7824  1.3894
12503TIP3    H258925   6.733   6.006   2.483 -2.4356  2.0364  2.1592
12504TIP3   OH258926   5.344   5.667   4.906  0.0282  0.3673 -0.6050
12504TIP3    H158927   5.413   5.650   4.970  0.6367 -0.6804 -1.5185
12504TIP3    H258928   5.354   5.759   4.882  1.4772  0.0758 -1.1422
12505TIP3   OH258929   0.780   0.134   1.965 -0.8083 -0.5323 -0.3834
12505TIP3    H158930   0.870   0.166   1.973 -0.7346 -1.1447  1.4523
12505TIP3    H258931   0.790   0.043   1.939 -0.8107 -1.3714  2.4495
12506TIP3   OH258932   2.160   5.609  13.147 -0.3777 -0.2331  0.3493
12506TIP3    H158933   2.243   5.657  13.149 -1.2402  1.2969  0.9123
12506TIP3    H258934   2.146   5.591  13.054  0.7849 -0.8911  0.2889
12507TIP3   OH258935   0.892   2.495   6.391 -0.0123  0.4696  0.1408
12507TIP3    H158936   0.807   2.476   6.430 -0.1958 -2.6215 -1.6029
12507TIP3    H258937   0.956   2.456   6.451  0.1291  1.6278  0.7625
12508TIP3   OH258938   3.112   2.486  14.249  0.2595  0.2518 -0.0916
12508TIP3    H158939   3.057   2.484  14.171  1.0687 -0.6598 -0.6391
12508TIP3    H258940   3.109   2.577  14.277 -3.1260 -0.1140  1.0359
12509TIP3   OH258941   4.401   6.418   4.093  0.1553 -0.2256 -0.3696
12509TIP3    H158942   4.321   6.385   4.053  0.1515  0.2531 -0.7563
12509TIP3    H258943   4.375   6.442   4.182  0.1012 -1.0138 -0.1704
12510TIP3   OH258944   5.007   6.037  15.729 -0.2369 -0.0365 -0.2082
12510TIP3    H158945   5.088   6.007  15.769 -0.2073  1.5380  0.9692
12510TIP3    H258946   5.031   6.117  15.682 -1.4451  1.5596  1.7919
12511TIP3   OH258947   0.037   3.474  14.047 -0.1026 -0.1587 -0.1333
12511TIP3    H158948   0.027   3.503  14.137 -1.0588  0.0506 -0.3014
12511TIP3    H258949  -0.006   3.388  14.044 -0.9724  0.2808 -0.6142
12512TIP3   OH258950   0.921   3.270  11.482 -0.9066 -0.4394 -0.3192
12512TIP3    H158951   0.844   3.296  11.533  0.0251  0.8535  0.4679
12512TIP3    H258952   0.939   3.346  11.427 -0.2556 -0.7843 -0.5777
12513TIP3   OH258953   3.309   0.761  14.497 -0.4677  0.5294 -0.3574
12513TIP3    H158954   3.353   0.676  14.492 -0.1495  0.6062  0.9146
12513TIP3    H258955   3.379   0.823  14.519 -0.5684  1.2504 -1.9588
12514TIP3   OH258956   2.420   2.113  12.205  0.2405 -0.2269  0.5845
12514TIP3    H158957   2.370   2.190  12.231  1.7113  0.9201  0.0944
12514TIP3    H258958   2.411   2.053  12.278 -1.0628  0.3460  0.9052
12515TIP3   OH258959   1.602   0.297  15.249 -0.0165 -0.2124 -0.1233
12515TIP3    H158960   1.642   0.213  15.271  0.3922  0.3760  1.4272
12515TIP3    H258961   1.508   0.277  15.241  0.1156 -0.8762 -0.0693
12516TIP3   OH258962   6.743   4.104  10.682 -0.7994 -0.7468 -0.0402
12516TIP3    H158963   6.810   4.085  10.615  0.0037  2.3611 -0.1925
12516TIP3    H258964   6.660   4.090  10.637 -0.2608 -0.8928 -1.0055
12517TIP3   OH258965   1.805   1.766  17.073  0.5539  0.0176  0.2801
12517TIP3    H158966   1.881   1.723  17.113 -0.0851 -2.4385 -1.0482
12517TIP3    H258967   1.768   1.700  17.015 -0.1476  2.5940 -2.3082
12518TIP3   OH258968   0.548   2.063   5.500 -0.7569  0.5721  0.0316
12518TIP3    H158969   0.608   2.120   5.451  0.1193 -0.0544  0.3468
12518TIP3    H258970   0.492   2.024   5.434  0.0697  0.1408 -0.4180
12519TIP3   OH258971   5.784   4.588  16.950  0.1464 -0.0495  0.0112
12519TIP3    H158972   5.779   4.630  17.036 -0.2582 -0.0858  0.0068
12519TIP3    H258973   5.790   4.661  16.888 -0.2344 -0.0008  0.0267
12520TIP3   OH258974   1.381   3.803  14.393  0.3440 -0.5563  0.1932
12520TIP3    H158975   1.354   3.711  14.400  1.6599 -0.9972 -0.3175
12520TIP3    H258976   1.355   3.829  14.305  0.3076 -0.5580  0.2034
12521TIP3   OH258977   4.656   1.177   3.605 -0.1574 -0.3276 -0.1906
12521TIP3    H158978   4.599   1.197   3.531  1.3999 -1.9810 -1.8984
12521TIP3    H258979   4.725   1.122   3.567  2.3837  1.3450  1.8674
12522TIP3   OH258980   0.208   1.467   2.131 -0.1627 -0.3332 -0.2464
12522TIP3    H158981   0.160   1.461   2.048 -2.4142  0.6428  0.9599
12522TIP3    H258982   0.161   1.409   2.190  0.5868  0.0832  0.7672
12523TIP3   OH258983   3.332   0.478   1.717  0.6193 -0.3144 -0.0245
12523TIP3    H158984   3.302   0.406   1.773 -0.2576  0.4095  0.4520
12523TIP3    H258985   3.397   0.438   1.660  0.4700 -1.3905  0.5366
12524TIP3   OH258986   5.056   2.144  11.839 -0.4577  0.2563 -0.0729
12524TIP3    H158987   5.075   2.052  11.853 -1.0890  0.3237  1.3301
12524TIP3    H258988   5.042   2.152  11.745  1.7742 -0.6485 -0.5173
12525TIP3   OH258989   0.382   6.592  12.329 -0.4883  0.0144  0.1050
12525TIP3    H158990   0.343   6.526  12.386 -0.9676 -1.4196 -1.8498
12525TIP3    H258991   0.323   6.597  12.254  0.0237  2.0256 -0.1864
12526TIP3   OH258992   4.572   0.457   0.835 -0.0992  0.2144 -0.3256
12526TIP3    H158993   4.548   0.384   0.891  1.7863 -1.1930 -1.2870
12526TIP3    H258994   4.612   0.521   0.895 -0.7268 -0.0245  0.3475
12527TIP3   OH258995   3.880   5.582   0.312 -0.4941 -0.2537 -0.3975
12527TIP3    H158996   3.856   5.559   0.222  1.5226 -1.4686 -0.6744
12527TIP3    H258997   3.862   5.503   0.363  2.4971 -1.1432 -0.5865
12528TIP3   OH258998   5.836   3.369   2.050  0.6762 -0.2634 -0.5004
12528TIP3    H158999   5.866   3.414   1.971 -0.2577  2.1333  0.4533
12528TIP3    H259000   5.848   3.434   2.120 -1.6883 -1.1136  0.7451
12529TIP3   OH259001   4.568   3.425  10.142 -0.4057 -0.0509 -0.3369
12529TIP3    H159002   4.590   3.381  10.224  0.1387 -0.1358 -0.5303
12529TIP3    H259003   4.479   3.396  10.123 -0.9395  0.7934  0.7717
12530TIP3   OH259004   0.827   1.804  14.034 -0.6419 -0.5071 -0.0012
12530TIP3    H159005   0.773   1.811  14.113 -1.4764 -0.3092 -0.5846
12530TIP3    H259006   0.804   1.881  13.982  2.0228  0.9340  0.8323
12531TIP3   OH259007   6.378   4.843  14.092 -0.3072 -0.0435 -0.0624
12531TIP3    H159008   6.386   4.778  14.022 -2.5093  0.2658 -0.6633
12531TIP3    H259009   6.299   4.816  14.140 -0.8362  1.7778  0.1175
12532TIP3   OH259010   2.767   3.762   1.666  0.4136  0.1237 -0.6560
12532TIP3    H159011   2.775   3.768   1.571 -0.1338 -1.4150 -0.8024
12532TIP3    H259012   2.677   3.790   1.685  0.5481  0.5092 -0.5734
12533TIP3   OH259013   6.118   3.983  13.302  0.2755  0.1471  0.7633
12533TIP3    H159014   6.119   4.079  13.303 -0.2300  0.1508  1.1436
12533TIP3    H259015   6.143   3.958  13.391  4.6073 -0.1421 -0.4458
12534TIP3   OH259016   6.538   3.136  17.231 -0.6270  0.2362  0.2386
12534TIP3    H159017   6.470   3.091  17.181 -0.4096  0.5015 -0.3104
12534TIP3    H259018   6.555   3.216  17.181  1.8809 -1.0224 -1.0773
12535TIP3   OH259019   5.021   3.812   6.609  0.2693  0.4510  0.4700
12535TIP3    H159020   5.013   3.801   6.515  1.9049  0.6832  0.2848
12535TIP3    H259021   4.932   3.806   6.642 -0.1045 -1.7909 -0.8441
12536TIP3   OH259022   3.605   6.258   4.218  0.2905 -0.1408  0.3616
12536TIP3    H159023   3.615   6.163   4.215 -0.3097 -0.1990 -0.0159
12536TIP3    H259024   3.591   6.279   4.310 -0.5021 -0.5246  0.3337
12537TIP3   OH259025   4.045   1.944   4.629  0.6979 -0.1843  0.0114
12537TIP3    H159026   4.117   1.887   4.601  0.1286 -1.3848  0.9361
12537TIP3    H259027   4.066   2.029   4.591  2.1130 -0.7490 -0.5243
12538TIP3   OH259028   3.727   3.766   3.556 -0.2214  0.2869 -0.1954
12538TIP3    H159029   3.666   3.747   3.627  3.1546 -1.1313  2.5060
12538TIP3    H259030   3.716   3.695   3.494 -1.7175  0.3718 -0.0315
12539TIP3   OH259031   5.115   0.596  11.108 -0.0846  0.5453  0.5729
12539TIP3    H159032   5.128   0.639  11.192 -0.9728 -1.1285  1.6143
12539TIP3    H259033   5.022   0.610  11.087 -0.1376  0.0281  0.4314
12540TIP3   OH259034   4.234   3.502  16.667 -0.1865  0.0556  0.1994
12540TIP3    H159035   4.291   3.453  16.727 -0.9337 -1.7423 -0.5222
12540TIP3    H259036   4.285   3.509  16.586 -0.4646 -0.3543 -0.0057
12541TIP3   OH259037   3.731   0.659  13.286  0.3562 -0.1954 -0.1026
12541TIP3    H159038   3.707   0.672  13.195  1.0392 -0.7256 -0.3618
12541TIP3    H259039   3.669   0.593  13.318  0.6178 -0.5880 -0.4024
12542TIP3   OH259040   3.524   2.048   3.650 -0.0642 -0.1311  0.3192
12542TIP3    H159041   3.570   2.075   3.570 -0.9052  1.7236  0.4174
12542TIP3    H259042   3.593   2.018   3.709  0.3440 -3.8132 -1.9246
12543TIP3   OH259043   0.885   2.599  11.337  0.0201 -0.1334  0.6360
12543TIP3    H159044   0.954   2.582  11.273 -0.5092 -0.8457  0.2442
12543TIP3    H259045   0.853   2.512  11.362 -0.8708  0.1917  0.6635
12544TIP3   OH259046   0.063   0.724  16.146 -0.1901  0.0787 -0.6056
12544TIP3    H159047   0.150   0.753  16.120 -0.1955  1.6361  1.0582
12544TIP3    H259048   0.056   0.749  16.238 -1.8744 -1.2769 -0.3475
12545TIP3   OH259049   3.264   4.542   4.391 -0.0079 -0.0796 -0.2676
12545TIP3    H159050   3.221   4.616   4.348 -2.6631  0.4714  3.1495
12545TIP3    H259051   3.221   4.465   4.354 -1.7308  0.3627  0.7495
12546TIP3   OH259052   6.406   5.367   0.366 -0.2673 -0.9056 -0.9853
12546TIP3    H159053   6.332   5.427   0.378 -0.1617 -0.8200 -0.7747
12546TIP3    H259054   6.470   5.417   0.315 -0.0789 -0.7603 -0.6031
12547TIP3   OH259055   3.986   0.396  16.702  0.1128  0.5012  0.6410
12547TIP3    H159056   4.068   0.389  16.653  0.4873 -3.7254  1.6728
12547TIP3    H259057   4.013   0.423  16.790  0.4529 -1.0791  1.0336
12548TIP3   OH259058   1.794   1.409   4.097 -0.1452  0.2633  0.1377
12548TIP3    H159059   1.733   1.436   4.166 -1.0886 -0.9248 -0.1985
12548TIP3    H259060   1.878   1.398   4.141 -0.7591 -0.5527  1.1171
12549TIP3   OH259061   1.485   3.399   0.556 -0.3463  0.1086 -0.1204
12549TIP3    H159062   1.546   3.372   0.487  0.9361  1.3531  0.5038
12549TIP3    H259063   1.516   3.485   0.583  0.1291 -1.0182  3.0991
12550TIP3   OH259064   6.780   5.063  14.682 -0.5999 -0.6992 -0.1963
12550TIP3    H159065   6.716   5.116  14.730  0.2891 -1.0774  1.4496
12550TIP3    H259066   6.852   5.123  14.663 -0.7087 -0.6838 -0.5491
12551TIP3   OH259067   2.330   4.687  12.585 -0.0843 -0.3236 -0.1671
12551TIP3    H159068   2.380   4.764  12.560  0.2739 -0.8304 -1.0216
12551TIP3    H259069   2.244   4.721  12.611 -0.0871  0.3100 -0.9944
12552TIP3   OH259070   0.245   3.247  11.450 -0.1377  0.0131  0.0875
12552TIP3    H159071   0.195   3.204  11.520 -0.3624 -1.5713 -0.9934
12552TIP3    H259072   0.195   3.227  11.370  0.4992  1.1623 -0.6076
12553TIP3   OH259073   3.814   2.493  14.410 -0.1039  0.2429 -0.4684
12553TIP3    H159074   3.798   2.401  14.385 -1.5088 -0.0142  1.2840
12553TIP3    H259075   3.896   2.490  14.459 -1.4343 -0.5350  1.8191
12554TIP3   OH259076   4.125   6.408   4.933 -0.1869 -0.0374 -0.2583
12554TIP3    H159077   4.110   6.375   4.845  0.4892  0.1814 -0.4578
12554TIP3    H259078   4.177   6.488   4.920 -2.3609  1.5040  0.1510
12555TIP3   OH259079   4.265   3.589   0.971  0.4378  0.1822 -1.0639
12555TIP3    H159080   4.235   3.530   1.041 -0.5706  0.7437 -0.9962
12555TIP3    H259081   4.356   3.565   0.956  0.4148 -0.5235 -0.1426
12556TIP3   OH259082   3.767   0.258  16.112 -0.5415 -0.2910  0.0461
12556TIP3    H159083   3.682   0.247  16.070 -0.5319 -0.8712  0.1747
12556TIP3    H259084   3.824   0.198  16.066  0.4326  1.9491 -1.7722
12557TIP3   OH259085   0.290   5.617  15.835  0.1209  0.0801 -0.1408
12557TIP3    H159086   0.277   5.602  15.741 -0.6369 -0.7611  0.1000
12557TIP3    H259087   0.222   5.680  15.858  0.0120 -0.0689 -0.0566
12558TIP3   OH259088   0.832   1.607   2.018 -0.1284 -0.8652  0.1157
12558TIP3    H159089   0.841   1.512   2.022 -0.0739 -0.9109 -0.8011
12558TIP3    H259090   0.920   1.639   1.994 -0.0994 -0.5741  0.6111
12559TIP3   OH259091   6.146   2.699  12.164 -0.3030  0.8319 -0.7642
12559TIP3    H159092   6.234   2.667  12.182 -0.1901  1.0332 -0.9638
12559TIP3    H259093   6.090   2.650  12.224  0.2365  2.5354  1.1826
12560TIP3   OH259094   3.042   4.060  13.997 -0.3813 -0.4181  0.7386
12560TIP3    H159095   2.994   4.036  14.076 -0.1281 -0.1080  0.9874
12560TIP3    H259096   3.038   3.982  13.942 -2.3046  0.0453  0.1963
12561TIP3   OH259097   6.590   5.045  15.382 -0.0929 -0.5561  0.0776
12561TIP3    H159098   6.524   5.101  15.423 -0.4095 -0.2471 -0.8531
12561TIP3    H259099   6.672   5.096  15.387  0.0530 -0.8771  1.0929
12562TIP3   OH259100   6.361   3.889   5.788  0.5165 -0.0497  0.4210
12562TIP3    H159101   6.286   3.831   5.776  2.3887 -2.0289 -2.2410
12562TIP3    H259102   6.433   3.832   5.814  1.4291  1.6519  1.7640
12563TIP3   OH259103   1.764   6.454   5.767 -0.5519 -0.3623 -0.2460
12563TIP3    H159104   1.785   6.547   5.767 -2.2714  0.0519 -0.0567
12563TIP3    H259105   1.765   6.428   5.859  0.8743 -0.7685 -0.3678
12564TIP3   OH259106   3.624   3.997   4.322 -0.1532 -0.0957  0.2651
12564TIP3    H159107   3.637   4.004   4.417 -1.6742 -0.0537  0.4772
12564TIP3    H259108   3.607   3.904   4.307  0.3940 -0.1545 -0.0189
12565TIP3   OH259109   2.973   2.571  16.603 -0.2102 -0.3181  0.9530
12565TIP3    H159110   2.926   2.509  16.658 -0.3130 -0.6003  0.5513
12565TIP3    H259111   3.064   2.541  16.605 -0.3163 -0.6717  0.4987
12566TIP3   OH259112   2.143   2.374  11.687  0.2430 -0.3673 -0.9090
12566TIP3    H159113   2.180   2.458  11.712 -1.9672 -0.1177  1.6911
12566TIP3    H259114   2.067   2.396  11.633 -0.0565 -0.7353 -0.6358
12567TIP3   OH259115   2.166   0.647   3.645 -0.3082 -0.8549  0.3647
12567TIP3    H159116   2.170   0.736   3.680  0.1536 -1.1764  1.1570
12567TIP3    H259117   2.253   0.611   3.663  0.3306 -0.6584 -2.1757
12568TIP3   OH259118   6.774   4.457  15.686  0.6443  0.1114 -0.1514
12568TIP3    H159119   6.832   4.383  15.702  0.5215 -0.6093 -2.7705
12568TIP3    H259120   6.832   4.532  15.672  0.8779 -0.1271 -0.4620
12569TIP3   OH259121   3.833   2.823  12.890 -0.3963 -0.8356  0.6860
12569TIP3    H159122   3.811   2.860  12.975  0.6143  0.5125  0.3804
12569TIP3    H259123   3.785   2.876  12.827  1.9281  0.7353  0.1661
12570TIP3   OH259124   6.211   5.290  12.033 -0.0107  0.1978 -0.3212
12570TIP3    H159125   6.283   5.281  12.096 -0.6103  1.0862  0.4839
12570TIP3    H259126   6.217   5.210  11.979  0.4982 -0.5625  0.8494
12571TIP3   OH259127   5.423   0.853   5.950 -0.1368  0.5264 -0.4435
12571TIP3    H159128   5.411   0.911   5.875  1.5641 -0.2502 -1.3339
12571TIP3    H259129   5.507   0.880   5.987  0.2810 -0.8403 -0.3841
12572TIP3   OH259130   6.400   3.262   3.590 -0.1783  0.1230  0.1026
12572TIP3    H159131   6.354   3.329   3.641 -0.7567 -0.6139  0.5596
12572TIP3    H259132   6.449   3.213   3.655 -0.5913 -0.5608 -0.0978
12573TIP3   OH259133   3.897   5.187  14.294 -0.1065  0.4302  0.4305
12573TIP3    H159134   3.875   5.258  14.233  0.2070  0.8759  0.8313
12573TIP3    H259135   3.883   5.107  14.244  1.7670  0.8374 -0.7581
12574TIP3   OH259136   2.219   6.231   0.828 -0.5472 -1.1098  0.3801
12574TIP3    H159137   2.250   6.252   0.740  0.2943 -0.2597  0.8722
12574TIP3    H259138   2.152   6.297   0.847  0.5566 -0.1829  1.0791
12575TIP3   OH259139   2.230   5.244   0.808 -0.3672 -0.9089 -0.0470
12575TIP3    H159140   2.280   5.198   0.875  0.8657  1.4444  0.6942
12575TIP3    H259141   2.263   5.209   0.725  1.3223 -0.6128  0.4833
12576TIP3   OH259142   5.044   2.317   1.115  0.7319  0.1925 -0.2830
12576TIP3    H159143   5.127   2.364   1.121  0.0378  1.4264 -0.1520
12576TIP3    H259144   4.978   2.386   1.113 -0.2452 -0.7443 -1.2772
12577TIP3   OH259145   5.722   5.300  14.077 -0.8444 -0.2010 -0.1504
12577TIP3    H159146   5.729   5.364  14.006 -0.2615  0.4004  0.4477
12577TIP3    H259147   5.811   5.268  14.090 -0.8337  0.2082  0.7886
12578TIP3   OH259148   4.692   0.779   2.728 -0.7810 -0.0502 -0.5484
12578TIP3    H159149   4.726   0.689   2.724  0.0925  0.2366  0.3314
12578TIP3    H259150   4.738   0.824   2.657 -0.7122 -0.1290 -0.5546
12579TIP3   OH259151   2.550   5.993  13.314  0.1258  0.5463  0.5506
12579TIP3    H159152   2.595   5.915  13.347  0.4600  0.3431 -0.3802
12579TIP3    H259153   2.475   6.003  13.372 -1.3036 -1.8812 -0.7759
12580TIP3   OH259154   6.687   3.724  13.132  0.2624 -0.2389 -0.6478
12580TIP3    H159155   6.754   3.769  13.183 -0.9034 -1.2117  1.8456
12580TIP3    H259156   6.730   3.646  13.098  0.6632 -0.4095  0.2234
12581TIP3   OH259157   4.552   4.250   4.369  0.2569  0.2769 -0.1202
12581TIP3    H159158   4.504   4.332   4.377  0.0104  0.0040  1.4961
12581TIP3    H259159   4.588   4.250   4.281  0.7928  2.4249  0.0857
12582TIP3   OH259160   6.475   2.751   0.681  0.6144 -0.0336 -0.5661
12582TIP3    H159161   6.464   2.846   0.694  0.3264  0.1580 -2.1220
12582TIP3    H259162   6.387   2.718   0.664  0.0043 -1.3502  4.2836
12583TIP3   OH259163   5.180   4.084   6.140  0.5732 -0.0472  0.5962
12583TIP3    H159164   5.275   4.075   6.134  0.6541 -1.4889  3.3975
12583TIP3    H259165   5.149   3.997   6.164 -1.1856  1.0613  2.4774
12584TIP3   OH259166   6.277   5.962  17.189 -0.1587 -0.3196 -0.1883
12584TIP3    H159167   6.302   5.925  17.104 -1.2496 -1.3591 -0.0748
12584TIP3    H259168   6.246   5.887  17.239  0.5010  0.2865  1.1480
12585TIP3   OH259169   4.378   4.528   5.830 -0.5796 -0.2799  0.1374
12585TIP3    H159170   4.375   4.598   5.764  1.4818 -1.2931 -1.0825
12585TIP3    H259171   4.471   4.517   5.849 -0.9491 -2.0358  1.0317
12586TIP3   OH259172   3.976   2.166   3.575  0.3518 -0.1069 -0.2092
12586TIP3    H159173   3.905   2.162   3.639  0.5815  0.6860  0.1052
12586TIP3    H259174   3.960   2.093   3.516 -0.6421 -0.0149 -0.0511
12587TIP3   OH259175   1.951   6.438   5.115 -0.2855  0.0887 -1.0138
12587TIP3    H159176   2.032   6.485   5.134  0.5083 -1.7110  0.1297
12587TIP3    H259177   1.907   6.492   5.049  0.7803  2.2114 -0.0204
12588TIP3   OH259178   5.457   6.093   0.057  0.4005 -0.0821  0.7098
12588TIP3    H159179   5.406   6.116   0.135 -0.6187  1.5667 -0.4200
12588TIP3    H259180   5.470   6.176   0.011  1.4657 -0.9506 -0.6119
12589TIP3   OH259181   3.619   0.208   1.982  0.7747  0.3332  0.6166
12589TIP3    H159182   3.572   0.241   2.059 -0.6871  2.1763 -1.0405
12589TIP3    H259183   3.559   0.144   1.943  0.4637  1.2588 -0.4135
12590TIP3   OH259184   4.919   3.202   3.899  0.8044 -0.6734  0.3328
12590TIP3    H159185   4.909   3.183   3.805 -0.5892 -0.8976  0.5269
12590TIP3    H259186   5.013   3.218   3.909  1.0589 -1.1945 -1.0052
12591TIP3   OH259187   0.170   2.224   3.578  0.3993 -0.6581  0.2964
12591TIP3    H159188   0.239   2.186   3.633  1.2068 -0.4570 -0.5591
12591TIP3    H259189   0.093   2.172   3.597  0.9042 -1.1875  0.9307
12592TIP3   OH259190   0.165   1.533  13.883 -0.1067 -0.1492 -0.1892
12592TIP3    H159191   0.155   1.543  13.788 -0.5195 -1.0634 -0.2456
12592TIP3    H259192   0.140   1.442  13.900  0.3725 -0.1078  0.7410
12593TIP3   OH259193   3.778   2.580   2.820  0.1133  0.2035  0.4301
12593TIP3    H159194   3.699   2.633   2.808 -0.5461 -0.5603  1.2745
12593TIP3    H259195   3.819   2.577   2.734  1.0633  3.4773  0.6967
12594TIP3   OH259196   3.609   5.861  16.519 -0.1764  0.1795  0.4944
12594TIP3    H159197   3.578   5.818  16.598  1.1653 -0.5520  0.6380
12594TIP3    H259198   3.530   5.897  16.479 -1.5251 -3.2741 -0.1559
12595TIP3   OH259199   5.847   0.409  15.062 -0.2794 -0.7298  0.2037
12595TIP3    H159200   5.782   0.356  15.016  0.1151  0.4760 -1.7951
12595TIP3    H259201   5.923   0.408  15.005 -0.6781  3.0031 -0.5438
12596TIP3   OH259202   2.460   0.754  15.927  0.9095 -0.0204 -0.7975
12596TIP3    H159203   2.421   0.713  16.005 -0.8255 -0.1279 -1.6868
12596TIP3    H259204   2.545   0.712  15.918  1.9039  1.2786  2.0807
12597TIP3   OH259205   1.941   4.517   2.648  0.1421 -0.3276 -0.0879
12597TIP3    H159206   1.994   4.444   2.617  1.5949 -0.1380  1.8281
12597TIP3    H259207   1.997   4.594   2.636 -0.8438  0.2986 -0.7850
12598TIP3   OH259208   0.258   1.711   0.401  0.1660  0.0919  0.0101
12598TIP3    H159209   0.310   1.785   0.432  1.9583 -0.1985 -2.1841
12598TIP3    H259210   0.183   1.707   0.461  1.1146  2.3890  1.3915
12599TIP3   OH259211   3.877   1.385   1.830 -0.0870 -0.5142  0.4093
12599TIP3    H159212   3.889   1.329   1.753 -4.9160  1.3948 -1.9393
12599TIP3    H259213   3.912   1.470   1.802 -0.7899 -0.1189  0.7337
12600TIP3   OH259214   1.657   2.190   3.048  0.0200 -0.4351 -0.4523
12600TIP3    H159215   1.620   2.143   3.124 -0.4722  1.4753  0.5260
12600TIP3    H259216   1.751   2.182   3.060 -0.0515 -0.2459  0.2998
12601TIP3   OH259217   4.760   1.608   5.399 -0.1981 -0.2753 -0.4003
12601TIP3    H159218   4.767   1.550   5.323 -0.5848 -1.4010  0.4125
12601TIP3    H259219   4.850   1.633   5.419 -0.2063  1.2868 -2.1736
12602TIP3   OH259220   6.340   3.077   4.246  0.1484  0.1997  0.1793
12602TIP3    H159221   6.361   2.986   4.224 -0.3454  0.2860 -0.7047
12602TIP3    H259222   6.410   3.105   4.304 -0.0978 -0.9807  1.0553
12603TIP3   OH259223   6.209   6.484  15.874  0.3371 -0.1884  0.4360
12603TIP3    H159224   6.231   6.545  15.804 -0.1425 -0.9525 -0.3881
12603TIP3    H259225   6.272   6.412  15.863  1.0123  0.2129  1.5040
12604TIP3   OH259226   2.047   4.985   0.131  0.5161  0.3891 -0.3401
12604TIP3    H159227   2.051   4.928   0.208 -0.9104 -0.1922 -0.6968
12604TIP3    H259228   2.017   4.929   0.060  0.8258  1.1710 -1.1042
12605TIP3   OH259229   5.673   0.235  12.581  0.3079 -0.3964 -0.0990
12605TIP3    H159230   5.669   0.140  12.592  1.8789 -0.3923  0.6510
12605TIP3    H259231   5.650   0.250  12.490  0.2223 -1.4960 -0.2666
12606TIP3   OH259232   6.636   1.986   0.285 -0.0193  0.1813 -0.4546
12606TIP3    H159233   6.617   2.077   0.305 -1.5033 -0.0426 -0.8200
12606TIP3    H259234   6.551   1.943   0.283  0.5015 -0.8089 -2.2385
12607TIP3   OH259235   2.694   2.550  14.222  0.1059 -0.0871 -0.0715
12607TIP3    H159236   2.698   2.573  14.314  1.7627 -0.0830 -0.1259
12607TIP3    H259237   2.705   2.633  14.175  2.0719 -0.4328 -0.2604
12608TIP3   OH259238   6.646   0.111   0.829  0.7710  0.2483 -0.1881
12608TIP3    H159239   6.618   0.020   0.840  2.0170 -0.2914 -1.3313
12608TIP3    H259240   6.713   0.108   0.761  1.7671  1.8599  0.6721
12609TIP3   OH259241   2.677   1.767   4.204  0.4193 -0.1914 -0.1696
12609TIP3    H159242   2.675   1.839   4.267  0.8392 -1.0188  0.8107
12609TIP3    H259243   2.586   1.751   4.182  0.3231  0.6479 -0.4166
12610TIP3   OH259244   1.272   0.436  16.849 -0.4494  0.3761  0.4618
12610TIP3    H159245   1.211   0.457  16.778  1.3314  1.5252 -0.7544
12610TIP3    H259246   1.299   0.521  16.884  1.8816 -0.0236 -0.2558
12611TIP3   OH259247   1.927   1.778   4.471 -0.0951  0.3392  0.4687
12611TIP3    H159248   1.947   1.821   4.554  0.2838  1.5021 -0.2073
12611TIP3    H259249   2.005   1.725   4.452 -0.2491 -0.0536  0.9347
12612TIP3   OH259250   2.571   1.038  16.728 -0.1111 -0.1691 -0.1771
12612TIP3    H159251   2.588   1.132  16.725 -0.4051 -0.1085 -0.0014
12612TIP3    H259252   2.644   0.998  16.680 -2.1147  0.4080 -3.8886
12613TIP3   OH259253   2.341   1.039  16.900  0.0210 -0.0186 -0.1514
12613TIP3    H159254   2.424   1.060  16.857  0.7734 -0.0367  1.2590
12613TIP3    H259255   2.280   1.106  16.868  0.8711  0.6669 -0.3525
12614TIP3   OH259256   4.400   3.599  12.145  0.8361  0.3277  0.1094
12614TIP3    H159257   4.470   3.652  12.105  0.8613  0.5303  0.4216
12614TIP3    H259258   4.363   3.550  12.072  1.4679  0.0351 -0.0229
12615TIP3   OH259259   1.268   0.527  14.816  0.3075  0.1234 -0.2264
12615TIP3    H159260   1.233   0.610  14.782 -0.0292  0.3062  0.5573
12615TIP3    H259261   1.336   0.554  14.878  1.2147 -0.2169 -1.0581
12616TIP3   OH259262   0.401   6.364  14.880 -0.6825  0.0729  0.9387
12616TIP3    H159263   0.460   6.439  14.867 -1.0798  1.2979  5.4644
12616TIP3    H259264   0.444   6.292  14.833  0.3461  2.7462 -2.4758
12617TIP3   OH259265   2.474   2.754  13.263  0.3803 -0.1426 -0.1653
12617TIP3    H159266   2.510   2.676  13.221  1.4897 -0.3405  1.1161
12617TIP3    H259267   2.549   2.793  13.308 -0.4554  0.9366  0.3004
12618TIP3   OH259268   4.274   6.711   5.200 -0.2137  0.6208 -0.4621
12618TIP3    H159269   4.223   6.769   5.257 -0.5973  0.6010 -0.7783
12618TIP3    H259270   4.215   6.639   5.180 -0.2413  0.8416 -1.2292
12619TIP3   OH259271   3.132   4.568  15.355 -0.1623 -0.2870 -0.1945
12619TIP3    H159272   3.098   4.657  15.359 -2.4231 -1.0536 -1.8742
12619TIP3    H259273   3.150   4.546  15.447 -0.3804  1.5775  0.3204
12620TIP3   OH259274   1.358   1.298  13.224 -0.1957 -0.3940 -0.4776
12620TIP3    H159275   1.449   1.284  13.199  0.2819  1.4355  0.1226
12620TIP3    H259276   1.326   1.363  13.162 -1.0285 -0.8621 -0.5421
12621TIP3   OH259277   0.650   6.565  13.671 -0.2989 -0.2725  0.0963
12621TIP3    H159278   0.618   6.531  13.755 -0.5125  2.3099  1.1216
12621TIP3    H259279   0.728   6.513  13.652 -0.4159 -1.0964  1.7667
12622TIP3   OH259280   3.284   4.668   0.407  0.1255 -0.0510  0.0822
12622TIP3    H159281   3.202   4.681   0.455  0.2987  0.2155  0.3147
12622TIP3    H259282   3.263   4.605   0.339  0.3507 -1.9202  1.7202
12623TIP3   OH259283   4.620   3.273  16.962  0.0778  0.0044  0.2139
12623TIP3    H159284   4.663   3.359  16.960 -1.3299  0.7119 -1.4235
12623TIP3    H259285   4.683   3.215  17.005  1.5286  1.6102  0.2923
12624TIP3   OH259286   6.263   5.967  14.859  0.4695 -0.7237 -0.4910
12624TIP3    H159287   6.204   5.892  14.860 -0.8232  0.2704  1.5380
12624TIP3    H259288   6.232   6.021  14.787 -1.2023 -0.1486  0.6351
12625TIP3   OH259289   4.104   2.124  12.908 -0.5911  0.0096 -0.7857
12625TIP3    H159290   4.010   2.133  12.922 -0.3769  0.4046  0.4710
12625TIP3    H259291   4.135   2.213  12.892  0.0216  0.3350  1.9045
12626TIP3   OH259292   2.521   0.481  15.012  0.0769 -0.1712  0.5121
12626TIP3    H159293   2.515   0.510  14.921  0.9525 -1.6794 -0.0477
12626TIP3    H259294   2.582   0.544  15.052 -2.4419  2.1668  0.7989
12627TIP3   OH259295   2.394   6.134   2.708 -0.0446 -0.4639 -0.3841
12627TIP3    H159296   2.372   6.110   2.798  0.0283 -0.4828 -0.3712
12627TIP3    H259297   2.314   6.173   2.673 -0.5067 -1.7018 -0.7456
12628TIP3   OH259298   5.266   5.845  11.554 -0.7252  0.1235  0.0502
12628TIP3    H159299   5.324   5.781  11.513  1.0254  1.2886  0.6710
12628TIP3    H259300   5.295   5.850  11.645 -1.0911  1.5295  0.1029
12629TIP3   OH259301   6.488   4.537  15.070  0.5720 -0.5624 -0.1822
12629TIP3    H159302   6.461   4.563  14.982  1.1603 -1.6265 -0.6770
12629TIP3    H259303   6.416   4.568  15.127  0.3746  0.4693 -0.9724
12630TIP3   OH259304   0.271   4.234  14.224  0.4301 -0.1042  0.5386
12630TIP3    H159305   0.278   4.170  14.154  0.7094  1.0278 -0.4777
12630TIP3    H259306   0.355   4.227  14.271  1.3413  1.0126 -0.8835
12631TIP3   OH259307   4.427   0.151   1.278  0.0162  0.1941 -0.4832
12631TIP3    H159308   4.432   0.056   1.284 -1.4172  0.2202  1.8353
12631TIP3    H259309   4.515   0.181   1.301  0.3359 -0.5435 -0.7166
12632TIP3   OH259310   4.617   0.608  15.252 -0.1183 -0.0103  0.1744
12632TIP3    H159311   4.701   0.586  15.292 -0.5303 -1.0076  0.5142
12632TIP3    H259312   4.631   0.694  15.213  1.1105 -0.2449  0.0695
12633TIP3   OH259313   5.803   4.543  15.799 -0.1795  0.6327  0.5032
12633TIP3    H159314   5.715   4.580  15.786 -0.5853 -0.2331  0.7260
12633TIP3    H259315   5.858   4.588  15.736 -0.6949  1.5200  0.6804
12634TIP3   OH259316   3.459   2.794   4.338 -0.3579 -0.6764  0.1266
12634TIP3    H159317   3.382   2.847   4.353 -0.0165 -0.8845  2.8368
12634TIP3    H259318   3.428   2.720   4.286 -1.3246  0.8555 -1.4928
12635TIP3   OH259319   4.083   1.397  13.527  0.3208  0.3697 -0.4174
12635TIP3    H159320   4.077   1.315  13.477  2.4438  0.1229 -0.3095
12635TIP3    H259321   4.062   1.465  13.463 -0.7752 -0.1878 -0.6768
12636TIP3   OH259322   5.050   5.653  14.882  0.1711  0.7136  0.0609
12636TIP3    H159323   5.067   5.743  14.910  0.4629  0.6959 -0.0629
12636TIP3    H259324   5.099   5.599  14.944  0.6877  0.6689 -0.3924
12637TIP3   OH259325   0.876   1.948  15.539  0.3132  0.1852  0.0884
12637TIP3    H159326   0.782   1.944  15.552 -0.0129 -0.0280 -2.1181
12637TIP3    H259327   0.887   1.960  15.444  2.4785  0.7472  0.3747
12638TIP3   OH259328   5.288   4.662  13.552 -0.0931 -0.0259  0.0681
12638TIP3    H159329   5.305   4.749  13.516  1.8772 -1.0294 -1.5167
12638TIP3    H259330   5.218   4.627  13.497 -0.9108  0.5335  0.7259
12639TIP3   OH259331   3.372   2.210   5.664  0.3349 -0.2699  0.0309
12639TIP3    H159332   3.364   2.202   5.759  0.3514 -0.4980  0.0123
12639TIP3    H259333   3.314   2.143   5.628  0.9401 -0.7265 -0.1134
12640TIP3   OH259334   3.216   2.917   0.322 -0.6204 -0.2117  0.3726
12640TIP3    H159335   3.139   2.964   0.290 -2.5529 -3.6059 -0.2440
12640TIP3    H259336   3.284   2.936   0.258 -2.7889 -2.1842 -2.6848
12641TIP3   OH259337   1.720   3.096  11.189  0.1433 -0.2487 -0.0742
12641TIP3    H159338   1.681   3.167  11.239  0.1034 -1.0338  1.0322
12641TIP3    H259339   1.782   3.056  11.249  0.2661 -1.0619 -0.7322
12642TIP3   OH259340   5.706   5.818  15.701  0.1027  0.4223  0.0972
12642TIP3    H159341   5.672   5.733  15.672  1.0894 -0.5507  1.7447
12642TIP3    H259342   5.674   5.880  15.635 -1.7393 -1.0115 -0.4048
12643TIP3   OH259343   2.696   3.251   3.255 -0.2664  0.2078  0.1060
12643TIP3    H159344   2.715   3.297   3.337 -1.7171 -0.4761  0.8450
12643TIP3    H259345   2.719   3.160   3.273 -1.8588 -0.1975  0.2380
12644TIP3   OH259346   4.712   5.928  13.038  0.0904  0.2523 -0.3096
12644TIP3    H159347   4.654   5.856  13.015 -0.6377  0.6589  0.2273
12644TIP3    H259348   4.655   5.993  13.078  1.4174 -0.7053  3.3015
12645TIP3   OH259349   5.120   2.021  15.802 -0.7696 -0.1638  0.0555
12645TIP3    H159350   5.199   1.970  15.782 -0.2974  1.1671 -1.6644
12645TIP3    H259351   5.050   1.957  15.807  0.0029 -1.1095 -0.9936
12646TIP3   OH259352   1.486   6.705  15.595 -0.4745  0.2837 -0.3843
12646TIP3    H159353   1.438   6.692  15.514  0.6782 -0.3124 -0.9898
12646TIP3    H259354   1.502   6.799  15.600 -2.0945  0.5466  0.0660
12647TIP3   OH259355   4.633   1.476   2.221 -0.1058 -0.3336  0.5546
12647TIP3    H159356   4.567   1.452   2.287 -2.1227  0.6919 -1.0468
12647TIP3    H259357   4.617   1.568   2.204  0.3786 -0.5995 -1.4002
12648TIP3   OH259358   0.587   5.968   3.620  0.6758  0.0842  0.2294
12648TIP3    H159359   0.651   5.906   3.656  1.0543  0.5310  0.3299
12648TIP3    H259360   0.549   5.923   3.545  0.2773 -0.6439  0.8604
12649TIP3   OH259361   4.367   6.657  13.796 -0.2934  0.6779 -0.8850
12649TIP3    H159362   4.433   6.663  13.865 -0.0182 -2.7452 -0.7517
12649TIP3    H259363   4.285   6.679  13.840  0.2992  1.6445 -0.2435
12650TIP3   OH259364   2.688   6.498   0.676  0.1466  0.2444 -0.0757
12650TIP3    H159365   2.625   6.570   0.678  0.5300  0.6580 -2.2606
12650TIP3    H259366   2.634   6.420   0.690 -0.5125  0.7858  0.4686
12651TIP3   OH259367   5.117   1.419   4.507  0.1955 -0.0779 -0.0500
12651TIP3    H159368   5.135   1.469   4.587 -0.7371  2.0397 -1.1240
12651TIP3    H259369   5.170   1.340   4.516  0.9071  0.6122  2.1814
12652TIP3   OH259370   5.390   1.681   2.242  0.4955 -0.2138 -0.3107
12652TIP3    H159371   5.317   1.723   2.197  1.0496 -0.0385 -1.0363
12652TIP3    H259372   5.461   1.678   2.178  0.6503 -1.7486 -0.0977
12653TIP3   OH259373   5.213   4.358  13.402  0.0362  0.3636  0.3262
12653TIP3    H159374   5.216   4.313  13.317 -0.0139  0.7256  0.1324
12653TIP3    H259375   5.304   4.355  13.434  0.8888  3.6142 -1.5249
12654TIP3   OH259376   2.802   6.043  12.861  0.7787  0.1446 -0.5238
12654TIP3    H159377   2.852   5.962  12.845  0.2792 -0.3597  0.4075
12654TIP3    H259378   2.787   6.043  12.955  0.1582  0.9714 -0.6174
12655TIP3   OH259379   5.332   3.294  11.806  0.6062 -0.0718  0.2243
12655TIP3    H159380   5.253   3.346  11.823 -0.3609 -0.7850 -1.9607
12655TIP3    H259381   5.402   3.359  11.801 -0.0756  0.7096  0.6921
12656TIP3   OH259382   1.938   2.382  11.100  0.0674  0.2324 -0.1877
12656TIP3    H159383   1.911   2.323  11.030 -2.0279  0.2616  0.5464
12656TIP3    H259384   2.002   2.332  11.150 -0.5875 -0.8750 -0.4426
12657TIP3   OH259385   3.056   1.213  11.927 -0.3945  0.0866  0.2615
12657TIP3    H159386   2.995   1.143  11.902  0.3453 -0.1892 -0.8166
12657TIP3    H259387   3.004   1.293  11.920 -1.5015 -0.3978  2.3452
12658TIP3   OH259388   2.271   2.389  15.070 -0.0020  0.4828  0.2530
12658TIP3    H159389   2.330   2.352  15.136 -2.4000 -0.6682  1.8137
12658TIP3    H259390   2.285   2.483  15.075  3.4548  0.1305 -1.1351
12659TIP3   OH259391   4.924   4.018   4.438  0.3436 -0.0550  0.0675
12659TIP3    H159392   4.831   4.018   4.461  0.5436  0.1288  0.8859
12659TIP3    H259393   4.940   4.105   4.401  0.0234 -0.3494 -0.7744
12660TIP3   OH259394   0.306   2.535   1.862  0.1305 -0.0943 -0.0752
12660TIP3    H159395   0.259   2.456   1.885 -0.1785  0.6423  1.9489
12660TIP3    H259396   0.240   2.593   1.824 -0.3376  0.3607  1.3688
12661TIP3   OH259397   0.004   4.951   3.633 -0.3331 -0.1952 -0.3617
12661TIP3    H159398   0.063   4.884   3.598  0.1609  0.7639 -1.3546
12661TIP3    H259399  -0.080   4.906   3.643 -0.6332 -0.3326 -3.2908
12662TIP3   OH259400   4.520   5.151   4.308 -0.5659 -0.2803  0.1434
12662TIP3    H159401   4.606   5.113   4.326  0.4832  1.8209 -0.2676
12662TIP3    H259402   4.491   5.185   4.393 -0.9518 -0.8613  0.2523
12663TIP3   OH259403   5.122   3.717  14.593 -0.1292  0.4135  0.0296
12663TIP3    H159404   5.106   3.695  14.685 -0.6863 -0.0925 -0.1842
12663TIP3    H259405   5.119   3.813  14.590  0.0685  0.4352  0.5692
12664TIP3   OH259406   3.959   2.081  14.672  0.6000 -0.2520 -0.0628
12664TIP3    H159407   4.012   2.085  14.592 -0.3273  2.1559 -0.6306
12664TIP3    H259408   3.878   2.038  14.644  1.1840 -1.4796  0.1403
12665TIP3   OH259409   5.047   2.650   1.827 -0.2648  0.8666  0.0191
12665TIP3    H159410   5.112   2.643   1.757  0.5800 -0.8798  0.9413
12665TIP3    H259411   5.096   2.633   1.907 -2.1371 -2.5306  0.5793
12666TIP3   OH259412   1.014   1.386  11.906  0.0567 -0.2200 -0.4132
12666TIP3    H159413   0.940   1.435  11.942 -0.0907 -0.7302 -0.0251
12666TIP3    H259414   1.031   1.428  11.821 -0.7871 -0.2228 -0.5891
12667TIP3   OH259415   1.162   0.920   1.651 -0.6965  0.0795  0.4053
12667TIP3    H159416   1.105   0.898   1.725 -0.2417  0.4876  0.8778
12667TIP3    H259417   1.162   0.841   1.597 -0.6718 -0.3849  1.0733
12668TIP3   OH259418   5.264   4.690   4.699  0.1577 -0.0147 -0.0461
12668TIP3    H159419   5.320   4.767   4.689 -1.7287  1.2524 -1.0529
12668TIP3    H259420   5.277   4.639   4.619  0.3946 -0.0870  0.0371
12669TIP3   OH259421   5.486   5.212   3.920 -0.2571  0.6465  0.1442
12669TIP3    H159422   5.462   5.278   3.855 -2.7269 -0.3255  0.0057
12669TIP3    H259423   5.404   5.190   3.963  0.8976 -0.7388  1.7143
12670TIP3   OH259424   3.927   3.211  14.627 -0.2750 -0.3484 -0.1128
12670TIP3    H159425   3.874   3.289  14.612  0.0732 -0.1364 -0.2556
12670TIP3    H259426   3.972   3.196  14.544 -1.0242 -1.2250 -0.3567
12671TIP3   OH259427   6.174   3.331  15.033  1.0987  0.5379  0.4651
12671TIP3    H159428   6.245   3.386  15.001  1.2933 -1.0951 -2.0669
12671TIP3    H259429   6.217   3.269  15.093  1.7275 -0.1083 -0.6500
12672TIP3   OH259430   6.465   5.864  15.985 -0.4078 -0.3328  0.0213
12672TIP3    H159431   6.510   5.905  15.911 -0.1050  1.2342  1.0529
12672TIP3    H259432   6.525   5.795  16.014 -0.6036 -1.0747 -1.2840
12673TIP3   OH259433   2.754   5.053   1.641 -0.1060  0.2969  0.1722
12673TIP3    H159434   2.815   4.999   1.690 -1.9478 -2.2197 -0.1907
12673TIP3    H259435   2.674   5.000   1.636 -1.0000  1.8214 -2.7869
12674TIP3   OH259436   0.124   0.333  13.836 -0.2473 -0.0392 -0.0176
12674TIP3    H159437   0.165   0.402  13.784  0.1450 -0.0657  0.2498
12674TIP3    H259438   0.163   0.252  13.803 -0.5902 -0.1206 -0.2225
12675TIP3   OH259439   5.973   4.440  16.014  0.0480  0.0724 -0.2632
12675TIP3    H159440   5.912   4.497  15.967 -1.3096 -0.8249  0.3760
12675TIP3    H259441   6.005   4.494  16.087 -1.4904 -0.0640  0.5366
12676TIP3   OH259442   0.438   5.930  12.580  0.2852 -0.2187 -0.7291
12676TIP3    H159443   0.502   5.865  12.610  1.3762  0.9265 -0.5344
12676TIP3    H259444   0.477   5.967  12.500  0.2958  1.1326 -0.1034
12677TIP3   OH259445   3.328   4.330  13.114 -0.3768 -0.3606 -0.2044
12677TIP3    H159446   3.415   4.294  13.098  0.3559  0.6461  1.3364
12677TIP3    H259447   3.324   4.410  13.061 -1.5884 -2.0795 -2.7655
12678TIP3   OH259448   1.106   6.048  11.991  0.0753  0.0693 -0.1906
12678TIP3    H159449   1.092   5.954  11.982  0.0334  0.0230  0.3452
12678TIP3    H259450   1.109   6.063  12.085 -1.6425  0.8544 -0.2330
12679TIP3   OH259451   0.013   2.110   4.163  0.6286  0.0544  0.0871
12679TIP3    H159452  -0.018   2.107   4.254  1.6764  2.0512  0.5332
12679TIP3    H259453   0.106   2.090   4.169  1.1677  2.3535 -0.2826
12680TIP3   OH259454   1.113   1.019  16.716  0.2177  0.1115 -0.5590
12680TIP3    H159455   1.187   0.990  16.662  0.7182  0.8695 -0.2768
12680TIP3    H259456   1.140   1.001  16.806 -0.0106  0.2359 -0.4650
12681TIP3   OH259457   6.239   5.100  11.855  0.5791 -0.5412 -0.2633
12681TIP3    H159458   6.161   5.055  11.821 -0.9952 -0.3239  2.9016
12681TIP3    H259459   6.311   5.041  11.833 -0.6210 -1.4578 -1.9527
12682TIP3   OH259460   4.634   3.563   0.223  0.0687 -0.1565 -0.2030
12682TIP3    H159461   4.558   3.611   0.257  1.3326  0.7806  1.3997
12682TIP3    H259462   4.694   3.632   0.196  1.2500 -0.8431  0.6275
12683TIP3   OH259463   4.085   1.591   0.669  0.2785  0.0253  0.2640
12683TIP3    H159464   4.051   1.527   0.606 -1.8574  1.6816 -0.3295
12683TIP3    H259465   4.164   1.626   0.628  1.0784 -1.7166  0.2824
12684TIP3   OH259466   6.545   3.981  14.412  0.2773 -0.5404 -0.2736
12684TIP3    H159467   6.636   3.953  14.416  0.2335 -0.6310  0.0623
12684TIP3    H259468   6.522   4.001  14.503  0.7102  1.8554 -0.6517
12685TIP3   OH259469   2.670   1.122  11.621  0.3091  0.2999  0.3898
12685TIP3    H159470   2.646   1.083  11.537  0.7587  0.6585  0.0918
12685TIP3    H259471   2.764   1.134  11.616  0.6646 -1.5538  1.7433
12686TIP3   OH259472   2.449   3.118   0.878  0.2563 -0.7143  0.3816
12686TIP3    H159473   2.508   3.183   0.916  0.5198 -0.6420 -0.1419
12686TIP3    H259474   2.482   3.034   0.908 -1.0133 -0.5375  2.3573
12687TIP3   OH259475   4.769   2.885  12.844  0.3382 -0.2156  0.0513
12687TIP3    H159476   4.795   2.844  12.927  1.0148  0.0299 -0.0431
12687TIP3    H259477   4.745   2.811  12.788  0.2151 -0.4013  0.3428
12688TIP3   OH259478   5.525   5.768  12.646 -0.1568 -0.6323  0.2943
12688TIP3    H159479   5.462   5.727  12.705 -0.3925 -1.3009 -0.4080
12688TIP3    H259480   5.481   5.848  12.617 -1.2374 -1.7390 -1.1988
12689TIP3   OH259481   4.001   3.086  15.322 -0.4126  0.6056 -0.2466
12689TIP3    H159482   4.003   3.065  15.229 -0.0428 -0.3209 -0.0354
12689TIP3    H259483   4.013   3.181  15.326  1.6749  0.3938 -1.0424
12690TIP3   OH259484   0.761   0.029   4.158  0.0208 -0.3812 -0.0017
12690TIP3    H159485   0.674   0.054   4.128  0.8186  3.1039  0.3882
12690TIP3    H259486   0.820   0.061   4.090  1.1515 -0.8444  0.7403
12691TIP3   OH259487   5.930   5.555   1.376 -0.0244  0.4175 -0.3195
12691TIP3    H159488   5.870   5.609   1.427 -0.6344 -0.6210  0.0736
12691TIP3    H259489   5.979   5.617   1.322 -0.8044  1.3437  0.0416
12692TIP3   OH259490   4.854   6.621  14.358 -0.0529  0.2447 -0.4006
12692TIP3    H159491   4.892   6.650  14.441  2.8613 -1.5010 -1.0484
12692TIP3    H259492   4.796   6.692  14.332  0.8071  1.8749  1.9549
12693TIP3   OH259493   6.362   3.578   0.612  0.2677 -0.4692 -0.1647
12693TIP3    H159494   6.386   3.490   0.582  0.3115 -0.0600 -1.3671
12693TIP3    H259495   6.341   3.567   0.704  1.5648 -1.5042  0.0214
12694TIP3   OH259496   1.954   1.125  12.194 -0.6381 -0.1241 -0.5880
12694TIP3    H159497   1.877   1.182  12.195 -0.3768  0.2402 -1.1581
12694TIP3    H259498   2.028   1.185  12.182 -0.2503 -0.4532  0.1191
12695TIP3   OH259499   6.724   5.491  15.397  0.5992 -0.3757 -0.0002
12695TIP3    H159500   6.638   5.467  15.362  1.1651  1.9646 -3.2147
12695TIP3    H259501   6.717   5.585  15.412  1.9697 -0.5358  1.6551
12696TIP3   OH259502   4.993   2.285   0.158 -0.0874  0.0886 -0.3680
12696TIP3    H159503   4.969   2.199   0.192  1.4554 -0.6431 -1.0762
12696TIP3    H259504   4.942   2.293   0.077 -0.6823  0.0979  0.0041
12697TIP3   OH259505   5.913   0.371   1.974 -0.2000  0.2284  0.0602
12697TIP3    H159506   5.832   0.327   1.947 -0.1468  1.9440 -3.1576
12697TIP3    H259507   5.889   0.463   1.984  1.2511  0.6905 -0.5337
12698TIP3   OH259508   1.108   2.617  12.956  0.2836 -0.4598  0.4608
12698TIP3    H159509   1.140   2.541  13.004  0.6218  0.0797  1.1142
12698TIP3    H259510   1.140   2.605  12.867  2.6721  0.2509  1.1933
12699TIP3   OH259511   3.908   4.120  13.560 -0.0405  0.4493  0.0417
12699TIP3    H159512   3.932   4.081  13.476 -0.4464 -1.5770  0.8388
12699TIP3    H259513   3.816   4.145  13.550  0.1934  1.1426 -0.4356
12700TIP3   OH259514   1.918   3.260   0.344 -0.6067 -0.2020  0.3144
12700TIP3    H159515   1.827   3.285   0.333 -0.3131  0.0504 -1.7952
12700TIP3    H259516   1.957   3.331   0.395 -1.2799  0.3782  0.0269
12701TIP3   OH259517   6.439   4.082   5.581 -0.2239 -0.1756  0.4475
12701TIP3    H159518   6.409   3.997   5.549  0.2157 -0.6467  1.2667
12701TIP3    H259519   6.366   4.141   5.564 -0.7785 -0.8504  0.4558
12702TIP3   OH259520   2.155   3.022  14.958 -0.1283 -0.9427  0.3080
12702TIP3    H159521   2.158   2.928  14.971 -3.6380 -1.1149  0.4528
12702TIP3    H259522   2.117   3.057  15.039 -2.8893  0.0703 -1.3358
12703TIP3   OH259523   5.425   1.761   2.492 -0.1797 -0.7644 -0.8865
12703TIP3    H159524   5.404   1.735   2.403 -0.5131  0.5609 -1.2047
12703TIP3    H259525   5.352   1.817   2.519 -0.3212 -1.5384  0.3866
12704TIP3   OH259526   2.868   1.889  12.688  0.2622  0.3637 -0.3756
12704TIP3    H159527   2.845   1.802  12.657 -0.9216  1.4417 -2.5979
12704TIP3    H259528   2.784   1.933  12.704  0.8382  1.2268  0.3932
12705TIP3   OH259529   0.229   1.431  12.434 -0.4033 -0.1624 -0.0288
12705TIP3    H159530   0.196   1.448  12.346 -0.2658  0.5233  0.0464
12705TIP3    H259531   0.176   1.488  12.490 -1.9885 -2.2183  0.5988
12706TIP3   OH259532   4.021   6.746  12.276 -0.3866 -0.2650  0.2492
12706TIP3    H159533   3.980   6.779  12.196 -2.4180  2.8630  2.5033
12706TIP3    H259534   3.950   6.703  12.324  0.3357 -0.2564  1.3506
12707TIP3   OH259535   2.169   2.577  13.327 -0.5985  0.1718 -0.3024
12707TIP3    H159536   2.142   2.637  13.396 -0.5448  0.0953 -0.2130
12707TIP3    H259537   2.199   2.633  13.255 -2.0423  0.2720 -0.8346
12708TIP3   OH259538   5.156   1.868  11.290  0.3353 -0.1395  0.1923
12708TIP3    H159539   5.076   1.848  11.242  0.9091  0.0126 -0.8376
12708TIP3    H259540   5.138   1.952  11.332  0.3020  0.3559 -0.8151
12709TIP3   OH259541   3.747   0.131  12.333 -0.0251  0.1993  0.0664
12709TIP3    H159542   3.657   0.158  12.312 -0.7631 -2.4227 -0.3730
12709TIP3    H259543   3.786   0.112  12.248 -0.1743 -1.9149  0.4338
12710TIP3   OH259544   0.019   2.089   4.876 -0.3314 -0.4876 -0.4803
12710TIP3    H159545   0.074   2.053   4.806  0.1862 -1.2348  0.2981
12710TIP3    H259546  -0.023   2.012   4.915 -3.0001  0.1664 -1.9077
12711TIP3   OH259547   3.052   2.970   3.026  0.3930  0.0868 -0.4773
12711TIP3    H159548   2.958   2.951   3.017  0.3443 -0.6303  1.3686
12711TIP3    H259549   3.055   3.047   3.083  0.9411  0.1885 -0.6445
12712TIP3   OH259550   1.998   4.629  16.379 -0.1416  0.0957 -0.7393
12712TIP3    H159551   2.000   4.533  16.381  2.6560  0.0176 -3.4433
12712TIP3    H259552   2.032   4.655  16.465 -0.7497 -1.3333 -0.0559
12713TIP3   OH259553   5.728   0.595   5.890  0.3013 -0.6718 -0.3379
12713TIP3    H159554   5.771   0.544   5.959 -1.8637 -1.0487  0.7681
12713TIP3    H259555   5.711   0.680   5.930  3.0618  0.7150 -1.8888
12714TIP3   OH259556   6.217   3.750  15.981 -0.5487  0.3012 -0.7247
12714TIP3    H159557   6.172   3.833  15.969  0.4450  0.5058 -3.4859
12714TIP3    H259558   6.304   3.764  15.942  0.1991 -1.5415  0.2067
12715TIP3   OH259559   6.430   3.463   3.423 -0.7162 -0.1798 -0.5715
12715TIP3    H159560   6.412   3.538   3.480  0.1165  0.2079 -0.8076
12715TIP3    H259561   6.394   3.388   3.470 -1.8891  0.4126 -0.5066
12716TIP3   OH259562   0.730   2.001  13.892  0.1673  0.4144 -0.0803
12716TIP3    H159563   0.672   2.035  13.960  1.5432  0.5904  1.0238
12716TIP3    H259564   0.769   2.079  13.852  0.0165  0.2823 -0.4871
12717TIP3   OH259565   4.825   1.377  11.399  0.1370  0.6680  0.3071
12717TIP3    H159566   4.892   1.445  11.401 -1.6778  2.5673 -0.7866
12717TIP3    H259567   4.743   1.425  11.386 -1.2043 -1.7328 -0.4052
12718TIP3   OH259568   4.064   3.278   3.966 -0.1032  0.3994 -0.1300
12718TIP3    H159569   3.994   3.216   3.948  1.0241 -0.6132 -1.1447
12718TIP3    H259570   4.021   3.363   3.967 -1.3086 -0.1897 -0.9607
12719TIP3   OH259571   3.555   2.119  17.061 -0.1243 -0.6465  0.3882
12719TIP3    H159572   3.612   2.176  17.009  0.6786 -0.1533  1.7877
12719TIP3    H259573   3.614   2.078  17.125 -1.3458 -0.0488  1.9388
12720TIP3   OH259574   1.724   3.542  14.268 -0.7711  0.9198 -0.0729
12720TIP3    H159575   1.733   3.538  14.363  0.3723 -1.6949 -0.2693
12720TIP3    H259576   1.635   3.509  14.251 -0.3817 -0.1656 -0.0161
12721TIP3   OH259577   3.020   4.527   2.499 -0.0667  0.2131 -0.3851
12721TIP3    H159578   3.098   4.524   2.443  0.8382 -1.6867  0.9206
12721TIP3    H259579   2.991   4.436   2.503 -1.3690  0.6612  0.5048
12722TIP3   OH259580   3.026   6.483   5.504  0.4036  0.1443 -0.4372
12722TIP3    H159581   3.044   6.540   5.579 -0.8422 -0.1889  0.1261
12722TIP3    H259582   2.968   6.535   5.447  0.4445 -0.0188 -0.6304
12723TIP3   OH259583   4.884   5.581  14.509 -0.2075  0.0674  0.5103
12723TIP3    H159584   4.874   5.616  14.598  1.3389  0.2179  0.6294
12723TIP3    H259585   4.931   5.648  14.461 -2.4707  0.7001 -0.9055
12724TIP3   OH259586   6.632   2.381   4.408 -0.2673 -0.7959 -0.1692
12724TIP3    H159587   6.706   2.329   4.377 -0.7573 -2.2127  0.9577
12724TIP3    H259588   6.593   2.327   4.477  0.0221  1.6574  1.9792
12725TIP3   OH259589   5.201   1.730   2.032 -0.4374 -0.0149 -0.2690
12725TIP3    H159590   5.175   1.643   2.000 -0.1188 -0.3772  0.4384
12725TIP3    H259591   5.121   1.783   2.026 -0.1576  0.1700 -2.4699
12726TIP3   OH259592   4.329   5.368  10.914  0.0005  0.3920 -0.5173
12726TIP3    H159593   4.289   5.398  10.832  0.5564 -0.4641 -1.1138
12726TIP3    H259594   4.413   5.330  10.887  0.3829  0.4909  0.5015
12727TIP3   OH259595   3.093   1.685   4.835 -0.2000  0.0972  0.2064
12727TIP3    H159596   3.104   1.678   4.930 -1.2494 -1.7681  0.1999
12727TIP3    H259597   3.138   1.609   4.799 -2.5481 -0.9446 -0.5782
12728TIP3   OH259598   4.206   6.121   3.448 -0.3027 -0.0549 -0.3739
12728TIP3    H159599   4.297   6.144   3.430 -0.5371 -0.4285 -2.1235
12728TIP3    H259600   4.208   6.087   3.538  1.2865 -0.1094 -0.4065
12729TIP3   OH259601   4.080   3.707  12.497  0.2513  0.0015 -0.4424
12729TIP3    H159602   4.082   3.616  12.465  1.4194  0.3022 -1.2264
12729TIP3    H259603   4.043   3.700  12.585  0.2365 -1.2270 -0.5349
12730TIP3   OH259604   5.983   6.064  16.164 -0.0490  0.1316 -0.2057
12730TIP3    H159605   5.906   6.043  16.218  0.2325 -0.7267 -0.1356
12730TIP3    H259606   5.947   6.111  16.088 -0.6554 -0.3568 -0.2208
12731TIP3   OH259607   5.042   2.360  14.861 -0.3185  0.0943  0.4640
12731TIP3    H159608   5.116   2.395  14.911  0.0431 -0.9481  0.6836
12731TIP3    H259609   4.994   2.437  14.831  0.0691  0.7553  1.5112
12732TIP3   OH259610   4.563   3.729  12.674 -0.5448  0.4196 -0.4739
12732TIP3    H159611   4.491   3.702  12.731 -0.0003 -1.6249 -0.7100
12732TIP3    H259612   4.598   3.808  12.715  1.0330 -2.0263  3.1397
12733TIP3   OH259613   0.995   0.467   4.797  0.3265  0.0598  0.2937
12733TIP3    H159614   1.064   0.435   4.741  1.6192  0.9721  1.3320
12733TIP3    H259615   1.005   0.563   4.796 -3.4648  0.5812 -2.7913
12734TIP3   OH259616   6.247   5.953   5.644  0.5303 -0.5479  0.8377
12734TIP3    H159617   6.250   5.975   5.551  1.2331  1.0194  1.2175
12734TIP3    H259618   6.154   5.938   5.662  0.3248 -0.2961 -0.0057
12735TIP3   OH259619   5.326   6.289  16.746 -0.1832  0.0413  0.1203
12735TIP3    H159620   5.262   6.221  16.766 -0.0287 -0.3804 -0.8091
12735TIP3    H259621   5.312   6.310  16.654 -1.2902  2.3956  0.7838
12736TIP3   OH259622   2.417   0.295   2.335 -0.0791 -0.3965 -0.3623
12736TIP3    H159623   2.350   0.248   2.284 -0.1569  1.1992 -1.7949
12736TIP3    H259624   2.491   0.304   2.274  0.1610  0.7633  0.0811
12737TIP3   OH259625   4.460   0.252  15.716 -0.3292  0.1520  0.0303
12737TIP3    H159626   4.447   0.164  15.680 -0.5480 -1.6460  4.2570
12737TIP3    H259627   4.554   0.257  15.733 -0.3414  0.6938 -0.0573
12738TIP3   OH259628   3.157   4.414   5.430 -0.8204  0.1142  0.0480
12738TIP3    H159629   3.155   4.355   5.506  2.4095 -0.0212  0.1085
12738TIP3    H259630   3.105   4.369   5.363 -1.7594 -0.8773  1.4198
12739TIP3   OH259631   4.899   1.039  10.721 -0.2787  0.3646  0.2266
12739TIP3    H159632   4.923   1.062  10.811  1.6079  0.2732 -0.2327
12739TIP3    H259633   4.896   0.943  10.720  0.5010  0.3373  0.0075
12740TIP3   OH259634   2.953   1.826  10.852  0.2276  0.0770  0.0538
12740TIP3    H159635   2.878   1.851  10.798 -0.1378  0.8981  0.9321
12740TIP3    H259636   3.027   1.827  10.793 -0.0741  1.5247 -0.3135
12741TIP3   OH259637   4.063   4.213  15.436  0.9083  0.6936 -0.3183
12741TIP3    H159638   4.128   4.230  15.504  2.7761  0.7640 -2.0678
12741TIP3    H259639   4.005   4.147  15.474  2.1199  0.4727  1.1978
12742TIP3   OH259640   4.534   2.718  17.007 -0.3137  0.0134  0.5938
12742TIP3    H159641   4.469   2.717  16.936  1.4312  0.0579 -1.0748
12742TIP3    H259642   4.576   2.803  16.999 -0.3860  0.1786  1.9714
12743TIP3   OH259643   4.430   3.054  10.703 -0.2849 -0.2575  0.3994
12743TIP3    H159644   4.345   3.023  10.734 -0.4439  0.5862  0.8235
12743TIP3    H259645   4.413   3.089  10.616 -0.6955  1.3470  1.0976
12744TIP3   OH259646   4.882   4.149   2.287  0.2114 -0.3247  0.2516
12744TIP3    H159647   4.813   4.193   2.236 -0.2029 -1.8521 -0.5354
12744TIP3    H259648   4.926   4.220   2.333 -2.0161  0.6796  0.9183
12745TIP3   OH259649   2.561   5.021   6.428  0.3947  0.1068  0.0475
12745TIP3    H159650   2.487   5.050   6.375  0.4825  0.5768  0.1857
12745TIP3    H259651   2.616   4.971   6.367 -1.0525 -2.0064  0.4016
12746TIP3   OH259652   1.816   0.174   1.544  0.2847 -0.5818 -0.2460
12746TIP3    H159653   1.828   0.106   1.610 -0.4627 -1.7921 -1.3324
12746TIP3    H259654   1.878   0.151   1.475  0.9341  0.5733 -0.0518
12747TIP3   OH259655   5.879   0.228   3.600 -0.3161  0.3303 -0.0313
12747TIP3    H159656   5.880   0.320   3.576 -1.5521  0.4827  0.4479
12747TIP3    H259657   5.962   0.214   3.645  0.1673  1.0478 -0.6962
12748TIP3   OH259658   4.478   3.098   0.066  0.3064  0.5581  0.6102
12748TIP3    H159659   4.439   3.023   0.111  1.2290 -0.1418  0.2478
12748TIP3    H259660   4.407   3.134   0.013  0.4525 -1.4252 -0.9677
12749TIP3   OH259661   3.817   3.145   3.968 -0.5035  0.6285 -0.3724
12749TIP3    H159662   3.777   3.214   3.915 -2.2796  0.6768  1.0005
12749TIP3    H259663   3.780   3.064   3.933 -1.4363  0.6403  0.5660
12750TIP3   OH259664   5.014   1.240  15.471 -0.0031  0.1997  0.4165
12750TIP3    H159665   5.088   1.300  15.460 -0.1448  0.3715  0.3947
12750TIP3    H259666   4.966   1.246  15.389  0.6847 -0.9099 -0.0756
12751TIP3   OH259667   5.728   5.155   5.426 -0.6434  0.1370 -0.2188
12751TIP3    H159668   5.760   5.218   5.362 -0.6751 -1.1636 -1.5330
12751TIP3    H259669   5.701   5.079   5.374 -0.2113 -1.1296  1.3677
12752TIP3   OH259670   4.144   1.884  11.739  0.2507  0.2437 -0.0212
12752TIP3    H159671   4.137   1.884  11.835 -2.4175 -1.9959 -0.1699
12752TIP3    H259672   4.192   1.804  11.719 -0.2503  0.0965 -0.6300
12753TIP3   OH259673   2.233   5.104   2.636 -0.4100 -0.4335 -0.0299
12753TIP3    H159674   2.297   5.107   2.707  0.1750  0.5009 -0.5747
12753TIP3    H259675   2.148   5.096   2.680 -0.0317 -0.1325  0.7664
12754TIP3   OH259676   1.267   2.262  16.588  0.6371  0.7682 -0.1481
12754TIP3    H159677   1.172   2.258  16.598  0.4475 -0.4733 -2.2341
12754TIP3    H259678   1.281   2.277  16.495  2.5469 -1.1934 -0.2021
12755TIP3   OH259679   4.535   2.514   1.206  0.1929  0.2076  0.7478
12755TIP3    H159680   4.542   2.476   1.118 -0.3107  2.6737 -0.3814
12755TIP3    H259681   4.442   2.503   1.230  0.3609 -0.5990  1.0674
12756TIP3   OH259682   0.131   0.546  15.355  0.5790  0.4222  0.0790
12756TIP3    H159683   0.213   0.497  15.359  1.1550  1.1732 -1.7421
12756TIP3    H259684   0.111   0.550  15.261 -1.7556 -0.1008  0.5296
12757TIP3   OH259685   0.413   0.619   5.063  0.3737 -0.2744 -0.2242
12757TIP3    H159686   0.424   0.607   5.157 -2.0332 -2.1086 -0.1182
12757TIP3    H259687   0.349   0.552   5.038  1.2068 -0.0048 -3.2166
12758TIP3   OH259688   2.442   5.750   2.093 -0.0146  0.6002 -0.3143
12758TIP3    H159689   2.522   5.798   2.072 -0.8779  1.8509 -0.8333
12758TIP3    H259690   2.468   5.686   2.159  2.1414 -1.3525 -2.9644
12759TIP3   OH259691   2.347   6.361   0.592  0.0990 -0.4491  0.5974
12759TIP3    H159692   2.382   6.357   0.681  0.6905 -0.1933  0.3784
12759TIP3    H259693   2.390   6.437   0.553 -0.0200 -0.6710  0.0344
12760TIP3   OH259694   4.364   6.595  12.599 -0.1835  0.3845 -0.0344
12760TIP3    H159695   4.356   6.683  12.564 -1.7566 -0.0604 -0.8324
12760TIP3    H259696   4.442   6.559  12.554  0.1360  1.1659 -0.1156
12761TIP3   OH259697   2.071   5.610   2.801  0.2461 -1.0036  0.6594
12761TIP3    H159698   2.095   5.548   2.732 -0.0124 -2.0367  1.4927
12761TIP3    H259699   2.134   5.593   2.872  0.0249 -0.4676  0.9933
12762TIP3   OH259700   4.328   2.939  14.959 -0.2135  0.0835 -0.6299
12762TIP3    H159701   4.395   2.977  15.016 -0.1059  1.5140 -1.6515
12762TIP3    H259702   4.300   2.859  15.003 -1.6418  2.1838  2.5039
12763TIP3   OH259703   3.160   0.037  12.845 -0.0642 -0.1777 -0.5490
12763TIP3    H159704   3.220  -0.015  12.898 -0.4365 -0.3224 -0.2699
12763TIP3    H259705   3.205   0.122  12.836  0.4275 -0.4636 -0.7991
12764TIP3   OH259706   6.227   4.680   1.315  0.3731  0.0217 -0.2185
12764TIP3    H159707   6.189   4.619   1.378  0.5219 -0.0610 -0.2057
12764TIP3    H259708   6.246   4.626   1.238  0.1314  0.1345 -0.3574
12765TIP3   OH259709   2.613   0.643   6.068 -0.3490  0.0809 -0.2366
12765TIP3    H159710   2.518   0.636   6.079 -0.1119 -0.4249  1.8426
12765TIP3    H259711   2.639   0.559   6.031 -0.5326 -0.4512  0.8103
12766TIP3   OH259712   3.277   4.208   0.118  0.1989 -0.2608  0.0399
12766TIP3    H159713   3.253   4.194   0.210 -0.1364  1.8766  0.2952
12766TIP3    H259714   3.219   4.278   0.088 -0.3649 -1.6090 -2.0959
12767TIP3   OH259715   0.633   6.728   2.362 -0.0078 -0.3182  0.2983
12767TIP3    H159716   0.603   6.637   2.367 -3.2947  0.8010  2.3406
12767TIP3    H259717   0.576   6.768   2.296 -0.8863  1.0634  1.8685
12768TIP3   OH259718   4.689   3.165   4.031  0.3464 -0.3414  0.2909
12768TIP3    H159719   4.689   3.081   3.984  0.7493  1.5756 -3.2889
12768TIP3    H259720   4.777   3.199   4.020  0.2218  0.5256  1.8230
12769TIP3   OH259721   5.782   2.683   0.408  0.7373  0.1024  0.1601
12769TIP3    H159722   5.806   2.592   0.391  0.7373  0.0061  0.6753
12769TIP3    H259723   5.862   2.732   0.389  0.9090 -0.0659  0.4395
12770TIP3   OH259724   1.837   5.496   2.685  0.0472  0.0748 -0.2492
12770TIP3    H159725   1.755   5.510   2.732  0.2330 -0.2577  0.1753
12770TIP3    H259726   1.902   5.544   2.736 -0.0827  1.2764 -1.2133
12771TIP3   OH259727   1.535   6.772   0.430 -0.5235 -0.1890 -0.1089
12771TIP3    H159728   1.594   6.792   0.502 -0.0422 -1.5344 -0.1217
12771TIP3    H259729   1.448   6.792   0.465 -0.2304 -0.1154  0.5972
12772TIP3   OH259730   1.591   2.111  14.763 -0.1303  0.3379 -0.7491
12772TIP3    H159731   1.564   2.202  14.753  2.0977  1.0736 -0.2310
12772TIP3    H259732   1.563   2.088  14.852 -0.2078  0.6881 -0.6803
12773TIP3   OH259733   0.286   3.925  13.161  0.6596  0.0841 -0.2048
12773TIP3    H159734   0.329   3.992  13.107  1.3302 -0.3312 -0.1879
12773TIP3    H259735   0.310   3.842  13.119 -1.0175 -0.0899 -0.8366
12774TIP3   OH259736   6.329   0.569  15.818  0.5423  0.4074  0.2415
12774TIP3    H159737   6.403   0.629  15.809  1.7469 -0.8601  1.4657
12774TIP3    H259738   6.331   0.541  15.909 -1.3993  0.2768  0.2623
12775TIP3   OH259739   2.677   1.196   4.871 -0.0910  0.3393  0.5931
12775TIP3    H159740   2.737   1.259   4.909 -0.8949  1.1739  0.4981
12775TIP3    H259741   2.702   1.192   4.778 -0.9053  1.5446  0.3110
12776TIP3   OH259742   0.978   4.238  11.240  0.2439  0.8463 -0.4046
12776TIP3    H159743   1.034   4.249  11.317 -0.3299  0.7072  0.0297
12776TIP3    H259744   0.928   4.319  11.235 -0.2524  0.5496 -0.2048
12777TIP3   OH259745   4.821   0.958  13.418  0.0512  0.0831 -0.0124
12777TIP3    H159746   4.793   0.879  13.371 -0.0464 -1.0574  1.9154
12777TIP3    H259747   4.884   0.927  13.482 -0.4526  1.4936  1.1942
12778TIP3   OH259748   2.623   4.227   4.530 -0.2540  0.3939 -0.0422
12778TIP3    H159749   2.681   4.299   4.553 -0.8376  0.6400  0.6590
12778TIP3    H259750   2.674   4.174   4.469  1.1392 -0.0128  1.4553
12779TIP3   OH259751   6.513   2.069   5.091 -0.0791  0.5716  0.2929
12779TIP3    H159752   6.500   2.042   5.000 -0.3794  1.9483 -0.0811
12779TIP3    H259753   6.456   2.011   5.142  0.5292 -0.5864 -0.3332
12780TIP3   OH259754   2.975   0.736   6.506 -0.0830 -0.2125 -0.4759
12780TIP3    H159755   2.990   0.798   6.577 -0.4428 -0.0706 -0.5222
12780TIP3    H259756   3.062   0.713   6.474  0.1901 -1.9957  1.4799
12781TIP3   OH259757   2.950   2.160  15.966 -0.1533  0.2874 -0.1628
12781TIP3    H159758   3.036   2.169  15.924 -0.5874 -1.8917 -1.5813
12781TIP3    H259759   2.915   2.249  15.968  1.3216  0.9041 -1.3542
12782TIP3   OH259760   0.347   0.624   3.366 -0.2744 -0.0647 -0.5911
12782TIP3    H159761   0.273   0.680   3.390 -0.2849  0.1154 -1.0354
12782TIP3    H259762   0.382   0.664   3.287  1.0025  0.5121  0.2454
12783TIP3   OH259763   3.713   3.465   3.525 -0.8469 -0.1629 -0.1426
12783TIP3    H159764   3.792   3.428   3.564 -1.1412 -0.2071  0.4245
12783TIP3    H259765   3.722   3.449   3.432 -0.5657 -0.9026  0.0095
12784TIP3   OH259766   5.197   3.877  10.174 -0.7227 -0.1946 -0.2637
12784TIP3    H159767   5.202   3.972  10.184 -1.8585 -0.1848  0.4042
12784TIP3    H259768   5.248   3.843  10.247 -2.2309 -0.0831  0.8880
12785TIP3   OH259769   3.804   6.004   5.279  0.2156  0.0734 -0.1426
12785TIP3    H159770   3.825   5.922   5.234  0.7574  0.9450 -1.4862
12785TIP3    H259771   3.723   6.034   5.239 -0.8164 -0.5774  1.4127
12786TIP3   OH259772   3.278   5.315   4.680 -0.0133 -0.2713 -0.1346
12786TIP3    H159773   3.279   5.221   4.698  0.2997 -0.3827 -0.7345
12786TIP3    H259774   3.187   5.341   4.692 -0.0515 -0.6016  0.2905
12787TIP3   OH259775   1.891   5.141   1.901  0.0946 -0.0465 -0.3522
12787TIP3    H159776   1.907   5.047   1.909  2.2224  0.1808 -1.6759
12787TIP3    H259777   1.847   5.165   1.983  0.2701 -2.0364  0.3408
12788TIP3   OH259778   5.195   4.834   3.933  0.3274  0.0594  0.3130
12788TIP3    H159779   5.197   4.877   4.019 -1.2645  2.6490 -0.8706
12788TIP3    H259780   5.206   4.906   3.871  4.4094 -2.0636 -1.6625
12789TIP3   OH259781   2.996   6.089  16.862 -0.1598  0.8315  0.2555
12789TIP3    H159782   2.909   6.062  16.890 -0.0137 -1.2268 -1.1908
12789TIP3    H259783   2.988   6.106  16.768  0.5283  2.6772  0.5042
12790TIP3   OH259784   0.660   5.042  10.863  0.0558  0.2161  0.2328
12790TIP3    H159785   0.664   5.126  10.817 -0.3666  1.0465  1.6783
12790TIP3    H259786   0.568   5.033  10.886  0.4139  0.2227  1.6655
12791TIP3   OH259787   3.239   1.248   1.762  0.5375 -0.2537 -0.4652
12791TIP3    H159788   3.147   1.220   1.764  0.9844 -1.7842 -0.6248
12791TIP3    H259789   3.256   1.280   1.850 -0.2165  0.2572 -0.5017
12792TIP3   OH259790   0.385   2.320  16.452 -0.5834 -0.1554 -0.0646
12792TIP3    H159791   0.331   2.397  16.469 -0.1593  0.6268 -2.1163
12792TIP3    H259792   0.454   2.324  16.519 -1.6437  0.2057  1.0091
12793TIP3   OH259793   3.540   3.167  13.595  0.5302  0.1135 -0.1957
12793TIP3    H159794   3.635   3.176  13.605  0.3980  0.0187  1.4108
12793TIP3    H259795   3.512   3.125  13.677 -1.0031  0.9395 -0.2823
12794TIP3   OH259796   3.372   3.531   0.753 -0.2875  0.1527 -0.8771
12794TIP3    H159797   3.327   3.597   0.806 -0.5619 -0.5366 -0.2406
12794TIP3    H259798   3.302   3.480   0.713 -0.0918 -1.0165  0.2310
12795TIP3   OH259799   3.127   1.916  13.757 -0.4955 -0.2825  0.2716
12795TIP3    H159800   3.107   1.858  13.683  2.0574  0.1503 -0.7904
12795TIP3    H259801   3.046   1.965  13.771 -1.5658 -1.5927 -1.0925
12796TIP3   OH259802   0.460   0.266  11.976 -0.0800  0.2526  0.0930
12796TIP3    H159803   0.428   0.203  12.040  2.4013 -0.0104  1.1128
12796TIP3    H259804   0.489   0.212  11.902  1.4094  0.2171  0.6877
12797TIP3   OH259805   6.471   2.988  14.629 -0.3562 -0.7377  0.1744
12797TIP3    H159806   6.410   2.914  14.629 -1.8680  0.4806 -0.5687
12797TIP3    H259807   6.557   2.947  14.636 -1.2327 -2.4994  1.1299
12798TIP3   OH259808   5.245   3.762  11.179  0.0406  0.0153  0.7531
12798TIP3    H159809   5.189   3.732  11.107 -0.5213 -0.4215  1.3701
12798TIP3    H259810   5.280   3.846  11.149  1.1374 -0.9432 -0.7337
12799TIP3   OH259811   0.241   4.504  14.192 -0.0073 -0.0588 -0.3699
12799TIP3    H159812   0.300   4.517  14.119  2.3841 -1.3347  1.2458
12799TIP3    H259813   0.275   4.425  14.236 -2.6228 -0.5420  0.8815
12800TIP3   OH259814   2.562   4.040   2.765 -0.2647 -0.1272  0.4662
12800TIP3    H159815   2.638   4.019   2.710  0.0011  1.6969  0.0980
12800TIP3    H259816   2.583   4.125   2.803 -0.8861 -0.8891  2.6302
12801TIP3   OH259817   2.613   5.306  17.180  0.1701  0.0787 -0.3856
12801TIP3    H159818   2.706   5.327  17.170 -0.0589  1.1225 -0.3808
12801TIP3    H259819   2.598   5.308  17.275  0.1426 -0.1192 -0.3849
12802TIP3   OH259820   5.666   4.567   1.147 -0.0045  0.5222 -0.0530
12802TIP3    H159821   5.631   4.530   1.067  1.3245  0.3106 -0.5587
12802TIP3    H259822   5.727   4.500   1.180  1.8595  1.8989 -0.5878
12803TIP3   OH259823   4.568   5.897  11.974 -0.1825 -0.3903  0.2506
12803TIP3    H159824   4.596   5.973  11.923 -0.5949  0.3079  1.0604
12803TIP3    H259825   4.634   5.890  12.044  0.8997 -1.8896 -0.8854
12804TIP3   OH259826   4.697   6.646   1.574  0.0181 -0.0507 -0.4410
12804TIP3    H159827   4.611   6.679   1.600 -0.5716 -0.3440 -1.9878
12804TIP3    H259828   4.737   6.718   1.526  0.6437  0.0721  0.2414
12805TIP3   OH259829   3.367   4.107   4.217  0.0993  0.1121 -0.3505
12805TIP3    H159830   3.343   4.102   4.124  0.0423  1.3984 -0.4065
12805TIP3    H259831   3.463   4.113   4.217  0.1609 -0.7210 -0.2816
12806TIP3   OH259832   0.936   1.783   0.202  0.4691 -0.1851 -0.7980
12806TIP3    H159833   0.995   1.710   0.219  0.3483 -0.4317 -1.4099
12806TIP3    H259834   0.923   1.825   0.287  2.0077  0.2399 -0.7580
12807TIP3   OH259835   4.664   4.263   2.115  0.2695  0.3370  0.9250
12807TIP3    H159836   4.677   4.281   2.022 -1.6626 -2.1732  0.1057
12807TIP3    H259837   4.636   4.346   2.152  3.6334  2.0402 -0.1564
12808TIP3   OH259838   4.395   2.103   1.261 -0.0701 -0.3290  0.0101
12808TIP3    H159839   4.309   2.111   1.220 -0.2963  0.8314  0.6841
12808TIP3    H259840   4.389   2.154   1.341  1.3658  0.0730 -0.1106
12809TIP3   OH259841   2.337   0.898  17.157  0.1048  0.4287  0.0024
12809TIP3    H159842   2.330   0.935  17.068 -0.6255  1.5520  0.5134
12809TIP3    H259843   2.287   0.817  17.153 -1.7675  1.5655 -0.0519
12810TIP3   OH259844   0.959   4.867   1.923 -0.2050  0.1521  0.0468
12810TIP3    H159845   0.941   4.919   1.846  3.5753  1.4605 -0.0656
12810TIP3    H259846   0.985   4.781   1.889 -3.8280 -1.0285  0.1307
12811TIP3   OH259847   6.100   1.078  15.095  0.0008 -0.4047  0.2936
12811TIP3    H159848   6.106   0.995  15.047  1.2351  0.6708 -1.4666
12811TIP3    H259849   6.011   1.110  15.077  0.5533  0.1522 -1.6236
12812TIP3   OH259850   4.567   1.496   3.583 -0.0755 -0.2004 -0.2140
12812TIP3    H159851   4.561   1.401   3.576 -1.3535 -0.2132  0.7286
12812TIP3    H259852   4.515   1.529   3.509 -2.7311 -0.2818  1.5270
12813TIP3   OH259853   1.266   6.650  13.810 -0.2271  0.1266  0.2687
12813TIP3    H159854   1.202   6.703  13.763 -0.6337 -0.4840  0.1183
12813TIP3    H259855   1.342   6.707  13.822 -1.2361  1.2320  1.4675
12814TIP3   OH259856   5.834   2.446   4.251  0.0007  0.1695 -0.5389
12814TIP3    H159857   5.823   2.355   4.281 -2.0436  0.8692  0.9275
12814TIP3    H259858   5.887   2.487   4.320  1.0937  0.0726 -1.3000
12815TIP3   OH259859   1.604   5.480  13.136 -0.5783 -0.2036  0.4539
12815TIP3    H159860   1.510   5.498  13.143 -0.2013  1.8566  0.6463
12815TIP3    H259861   1.630   5.522  13.054 -0.2925 -3.0106 -0.9338
12816TIP3   OH259862   0.960   2.653  16.009  0.1094 -0.1507  0.2761
12816TIP3    H159863   1.040   2.609  16.036 -0.9130 -0.5602  2.7253
12816TIP3    H259864   0.916   2.590  15.952  0.2545 -0.9919  1.0815
12817TIP3   OH259865   5.938   1.507   5.397  0.1428  0.1924 -0.0188
12817TIP3    H159866   5.902   1.438   5.452 -1.2802  0.0179 -1.1553
12817TIP3    H259867   5.866   1.532   5.339  1.4814  0.6632 -1.5164
12818TIP3   OH259868   4.283   1.301   0.890 -0.4744  1.1386 -0.6408
12818TIP3    H159869   4.298   1.234   0.823  0.5382  0.2635  0.4281
12818TIP3    H259870   4.364   1.301   0.941 -2.3737 -0.4388  2.4953
12819TIP3   OH259871   1.298   3.278  12.127  0.2609 -0.1880  0.5659
12819TIP3    H159872   1.329   3.270  12.037  1.6751  1.2843  0.9012
12819TIP3    H259873   1.377   3.292  12.179 -0.7802  1.8915  1.6622
12820TIP3   OH259874   1.405   6.328   0.994  0.3705  0.6510  0.1957
12820TIP3    H159875   1.361   6.286   1.068 -2.6646  0.1384 -1.7812
12820TIP3    H259876   1.419   6.257   0.931  1.4036  1.3662 -0.3877
12821TIP3   OH259877   3.222   2.086  13.250  0.4072  0.0390  0.5688
12821TIP3    H159878   3.188   2.012  13.199  2.0427 -0.6160  0.3969
12821TIP3    H259879   3.239   2.049  13.336 -0.9019  0.7742  1.1476
12822TIP3   OH259880   1.968   3.677   4.486 -0.4796 -0.1171  0.1085
12822TIP3    H159881   1.903   3.638   4.426 -0.2320  1.5851 -1.3001
12822TIP3    H259882   1.926   3.756   4.518  1.0712  1.2520 -1.1888
12823TIP3   OH259883   6.482   4.143   4.974  0.0032 -0.4503 -0.6858
12823TIP3    H159884   6.468   4.064   4.922  0.3245 -1.2105  0.3649
12823TIP3    H259885   6.402   4.153   5.026 -0.5076  0.5640 -1.6570
12824TIP3   OH259886   5.531   6.389  13.686  0.1366  0.4890 -0.3808
12824TIP3    H159887   5.597   6.344  13.634  1.0270 -1.6438  2.4880
12824TIP3    H259888   5.545   6.482  13.666  2.7717 -0.0410 -1.2626
12825TIP3   OH259889   2.828   4.731   6.492  0.1748 -0.2601 -0.0259
12825TIP3    H159890   2.795   4.717   6.581 -1.3470 -1.2952 -0.7259
12825TIP3    H259891   2.896   4.666   6.481  0.5053  0.0005  0.4470
12826TIP3   OH259892   1.872   5.918  12.518 -0.0180  0.3515  0.0750
12826TIP3    H159893   1.815   5.850  12.554  0.1310 -0.8147 -1.7986
12826TIP3    H259894   1.949   5.870  12.487 -0.1371  1.2735 -1.7642
12827TIP3   OH259895   3.497   1.423   0.764  0.3114  0.0403 -0.5693
12827TIP3    H159896   3.480   1.368   0.687 -0.2762 -0.9527  0.2522
12827TIP3    H259897   3.568   1.377   0.810 -0.4436 -0.2543  0.3230
12828TIP3   OH259898   0.632   4.894   3.382  0.7050 -0.0625  0.1228
12828TIP3    H159899   0.577   4.828   3.338  0.4465  1.4817 -1.9489
12828TIP3    H259900   0.722   4.863   3.367  0.5745 -0.1252 -0.5592
12829TIP3   OH259901   2.789   3.500  16.219  0.0860 -0.3030 -0.1973
12829TIP3    H159902   2.787   3.561  16.293 -0.3317  0.6716 -1.0026
12829TIP3    H259903   2.798   3.556  16.142 -1.1521 -1.2144 -1.0166
12830TIP3   OH259904   5.992   5.315  15.259  0.3734 -0.2086  0.3234
12830TIP3    H159905   6.010   5.233  15.306  0.3481 -0.1648  0.4115
12830TIP3    H259906   6.073   5.366  15.269  0.4322 -0.2722  0.1678
12831TIP3   OH259907   6.158   4.248  13.258  0.2948  0.7676  0.8887
12831TIP3    H159908   6.220   4.239  13.330 -1.9189  1.9953  3.0318
12831TIP3    H259909   6.200   4.309  13.197  1.1954  1.6268  2.3352
12832TIP3   OH259910   0.058   0.014   1.503  0.2177  0.0867  0.0814
12832TIP3    H159911   0.074   0.105   1.529  2.6250 -0.5185  0.7794
12832TIP3    H259912   0.044  -0.032   1.586 -0.3576 -0.3100 -0.2330
12833TIP3   OH259913   5.500   0.166  17.055  0.4295 -0.5179  0.0392
12833TIP3    H159914   5.470   0.125  16.974 -0.0589 -2.8364  1.3569
12833TIP3    H259915   5.595   0.171  17.046  0.1944  1.3280 -1.6197
12834TIP3   OH259916   1.558   6.505   3.478  0.1600 -0.1993  0.0544
12834TIP3    H159917   1.632   6.444   3.477  0.0914 -0.2836  0.0849
12834TIP3    H259918   1.491   6.461   3.425  0.1468 -0.1042 -0.0070
12835TIP3   OH259919   2.482   1.605  16.976  0.2181  0.5996  0.1518
12835TIP3    H159920   2.468   1.540  16.907  0.2937  0.5686  0.1644
12835TIP3    H259921   2.577   1.609  16.987  0.1901  0.3628  0.4872
12836TIP3   OH259922   0.799   6.653   1.312  0.3367 -0.4226 -0.4836
12836TIP3    H159923   0.742   6.584   1.277  0.1930  0.4995 -2.1357
12836TIP3    H259924   0.745   6.731   1.311  1.2000  0.1795 -0.7801
12837TIP3   OH259925   1.075   2.608   2.969 -0.3790 -0.2139  0.2787
12837TIP3    H159926   0.984   2.633   2.951 -0.4335 -0.6917 -0.1460
12837TIP3    H259927   1.067   2.535   3.031 -0.1995  1.2421  2.0408
12838TIP3   OH259928   6.583   1.760  14.175 -0.1283  0.2168 -0.1803
12838TIP3    H159929   6.626   1.823  14.119  0.2717 -1.3588 -1.6838
12838TIP3    H259930   6.502   1.738  14.130  0.3429 -1.3001 -0.3391
12839TIP3   OH259931   1.698   2.282   1.758  0.4850 -0.1449 -0.0783
12839TIP3    H159932   1.642   2.209   1.784  0.2069 -0.1181 -0.5907
12839TIP3    H259933   1.667   2.306   1.671 -0.7944  1.9747  0.9489
12840TIP3   OH259934   3.029   5.116   3.316 -0.0751 -0.1100  0.5541
12840TIP3    H159935   3.023   5.067   3.234  1.6009 -2.4514  1.7933
12840TIP3    H259936   3.114   5.159   3.313 -0.9037  1.5331  0.1469
12841TIP3   OH259937   2.764   4.678  14.248  0.3800  0.5258 -0.0461
12841TIP3    H159938   2.853   4.685  14.281  0.3298  1.2251 -0.0566
12841TIP3    H259939   2.744   4.584  14.251  0.7833  0.4701  0.8271
12842TIP3   OH259940   0.356   2.087   3.774 -0.1132  0.0426 -0.4812
12842TIP3    H159941   0.344   2.172   3.816 -1.3990 -0.3690  0.0124
12842TIP3    H259942   0.312   2.024   3.832 -0.6536 -0.7207 -1.6810
12843TIP3   OH259943   1.591   0.469   3.922 -0.5536  0.3072  0.4151
12843TIP3    H159944   1.579   0.524   3.999 -0.0892  0.8535  0.0965
12843TIP3    H259945   1.526   0.399   3.933 -0.6592  0.5158  1.1748
12844TIP3   OH259946   1.365   3.833   5.286 -0.0932  0.1014 -0.5952
12844TIP3    H159947   1.404   3.746   5.279  0.6331  0.3458  0.2481
12844TIP3    H259948   1.290   3.831   5.227  0.4734 -0.7875 -1.3033
12845TIP3   OH259949   5.104   5.122  12.681  0.7238  0.1357  0.3877
12845TIP3    H159950   5.039   5.062  12.717  0.3982 -0.0832 -0.5523
12845TIP3    H259951   5.053   5.192  12.641  1.0512 -0.1264 -0.5100
12846TIP3   OH259952   0.811   4.175   4.510 -0.7183  0.3275  0.4360
12846TIP3    H159953   0.727   4.130   4.520 -0.1189 -0.8372  0.2269
12846TIP3    H259954   0.818   4.192   4.416 -0.1324 -0.7072  0.2932
12847TIP3   OH259955   2.932   2.148  10.797  0.2492  0.1479  0.0213
12847TIP3    H159956   2.932   2.206  10.721  1.4731 -1.4446 -1.2189
12847TIP3    H259957   3.017   2.161  10.837 -0.0736  0.3575  0.6468
12848TIP3   OH259958   6.657   1.487   5.654 -0.6912 -0.0232 -0.2791
12848TIP3    H159959   6.625   1.411   5.606 -3.4708 -0.2039  1.7120
12848TIP3    H259960   6.658   1.459   5.746  0.7178  1.5372  0.2104
12849TIP3   OH259961   6.711   0.994   0.498 -0.1674 -0.4250 -0.2166
12849TIP3    H159962   6.714   0.971   0.405  0.3392 -0.8970 -0.0880
12849TIP3    H259963   6.634   0.949   0.532 -1.8525  1.8416 -0.9519
12850TIP3   OH259964   6.336   4.520   0.981 -0.0203 -0.5953 -0.1244
12850TIP3    H159965   6.258   4.547   1.029 -0.1340  0.6795 -1.0068
12850TIP3    H259966   6.402   4.504   1.048  0.0146  1.7725  0.4510
12851TIP3   OH259967   4.768   6.626  17.186  0.4890  0.0144 -0.1011
12851TIP3    H159968   4.811   6.554  17.141 -1.4108 -1.7952  0.9253
12851TIP3    H259969   4.733   6.681  17.116  1.3831 -0.3813 -0.8660
12852TIP3   OH259970   5.153   0.826   5.664  0.6102 -0.1081 -0.0867
12852TIP3    H159971   5.160   0.813   5.569  0.1700 -0.2550 -0.1014
12852TIP3    H259972   5.223   0.888   5.685  0.3326  0.3758 -0.5925
12853TIP3   OH259973   6.080   1.179   5.789 -0.3601  0.0801  0.3151
12853TIP3    H159974   6.101   1.209   5.701 -2.2742  0.8419  0.0997
12853TIP3    H259975   6.139   1.228   5.847  1.6342 -1.1828 -0.5827
12854TIP3   OH259976   5.550   5.631   2.439 -0.7865  0.2106  0.2882
12854TIP3    H159977   5.627   5.687   2.442 -1.9055  1.9094 -1.3695
12854TIP3    H259978   5.543   5.606   2.347 -2.1813  0.0077  0.4450
12855TIP3   OH259979   0.262   1.288  15.732  0.2152 -0.0998  0.0063
12855TIP3    H159980   0.321   1.294  15.808 -0.9695  3.2712  0.7325
12855TIP3    H259981   0.320   1.291  15.656  1.0660  2.2997  0.7191
12856TIP3   OH259982   3.727   1.716   1.784 -0.0741  0.1133  0.3752
12856TIP3    H159983   3.657   1.654   1.805 -1.1495  1.0932 -0.2616
12856TIP3    H259984   3.705   1.795   1.835  2.0498 -0.4760  2.2914
12857TIP3   OH259985   6.172   4.988   5.404  0.6447 -0.0912  0.2002
12857TIP3    H159986   6.148   4.923   5.338  0.0260  0.6135 -0.2755
12857TIP3    H259987   6.094   5.042   5.414  1.1818  0.6310  0.5320
12858TIP3   OH259988   6.004   1.747   4.032  0.2677 -0.3085  0.3048
12858TIP3    H159989   6.020   1.655   4.015 -1.2056 -0.5266  0.0538
12858TIP3    H259990   5.913   1.762   4.005 -0.4736  0.5453  3.0826
12859TIP3   OH259991   5.678   6.558   2.810  0.0541  0.4283  0.1390
12859TIP3    H159992   5.630   6.601   2.880  0.4752  0.1412  0.6118
12859TIP3    H259993   5.616   6.551   2.738 -0.5571  0.2018  0.6862
12860TIP3   OH259994   1.184   1.105  13.320 -0.5061 -0.3607 -0.2887
12860TIP3    H159995   1.237   1.173  13.279 -1.6051  1.2281  0.8622
12860TIP3    H259996   1.132   1.067  13.249 -1.5933  1.6146 -0.5667
12861TIP3   OH259997   1.742   4.648  14.453  0.2165 -0.6200  0.0451
12861TIP3    H159998   1.746   4.642  14.548  0.2363 -0.0248  0.0835
12861TIP3    H259999   1.723   4.740  14.435  0.0892 -0.7534 -0.5222
12862TIP3   OH260000   4.133   5.730   4.233 -0.0556 -0.0813 -0.3684
12862TIP3    H160001   4.172   5.647   4.261  1.5632  0.5144 -0.8247
12862TIP3    H260002   4.206   5.792   4.232 -0.7772  0.7628 -2.4425
12863TIP3   OH260003   1.949   5.051   2.749  0.7345 -0.8466  0.1799
12863TIP3    H160004   1.882   5.044   2.682 -2.2714  1.8866  2.7115
12863TIP3    H260005   1.946   4.968   2.796  0.0413 -1.2296 -0.5557
12864TIP3   OH260006   5.386   0.778   4.159 -0.3664 -0.5873 -0.0886
12864TIP3    H160007   5.473   0.739   4.167  1.0113  2.3120 -0.2463
12864TIP3    H260008   5.394   0.840   4.086 -2.7731 -0.7636 -0.5551
12865TIP3   OH260009   4.931   6.742  16.615 -0.4803  0.0819 -0.1610
12865TIP3    H160010   4.877   6.730  16.537  0.9215  0.6286 -1.2444
12865TIP3    H260011   4.876   6.792  16.675 -1.9311 -1.1927 -0.3950
12866TIP3   OH260012   1.752   1.966   1.449 -0.1025  0.0755  0.9367
12866TIP3    H160013   1.819   2.022   1.490  0.1065  0.0654  0.6089
12866TIP3    H260014   1.699   1.934   1.523  0.7112 -0.5192  1.2691
12867TIP3   OH260015   1.022   2.880  12.990  0.8838 -0.2941  0.2805
12867TIP3    H160016   1.051   2.789  12.983 -0.9117 -0.8900  0.3661
12867TIP3    H260017   1.002   2.892  13.082 -0.7506 -0.4185 -0.0407
12868TIP3   OH260018   2.587   0.763  17.023  0.1511 -0.0739  0.4206
12868TIP3    H160019   2.657   0.754  17.088  0.9740 -1.2206 -0.5884
12868TIP3    H260020   2.536   0.683  17.033 -0.0407  0.0011  0.0325
12869TIP3   OH260021   1.097   2.370  11.364 -0.0692 -0.5013 -0.0102
12869TIP3    H160022   1.087   2.376  11.269 -0.1512 -0.2406  0.0156
12869TIP3    H260023   1.014   2.400  11.400  0.5732  1.1171  0.1819
12870TIP3   OH260024   3.583   6.020   5.847  0.4264  0.1063 -0.2889
12870TIP3    H160025   3.649   6.010   5.778 -0.5951 -1.5656 -1.0424
12870TIP3    H260026   3.585   5.937   5.894 -1.6399 -0.2710 -0.7947
12871TIP3   OH260027   2.323   2.542   5.893 -0.0292  0.6539  0.6867
12871TIP3    H160028   2.338   2.457   5.852 -1.2132 -1.4119  4.2330
12871TIP3    H260029   2.232   2.563   5.872  0.2631  1.0423 -0.1914
12872TIP3   OH260030   3.796   0.417  16.341 -0.2878  0.1484  0.2070
12872TIP3    H160031   3.888   0.429  16.368 -0.6453 -0.9306  1.9472
12872TIP3    H260032   3.802   0.362  16.262  0.6734  2.0379 -1.0886
12873TIP3   OH260033   0.762   1.531  13.127 -0.4309 -0.0174 -0.1649
12873TIP3    H160034   0.819   1.604  13.102 -1.1199  1.3547  2.0594
12873TIP3    H260035   0.731   1.495  13.044  2.6905 -0.0429 -1.3905
12874TIP3   OH260036   1.312   1.969  15.606 -0.5025 -0.3083 -0.1443
12874TIP3    H160037   1.280   1.985  15.695 -1.0458 -1.1287 -0.1956
12874TIP3    H260038   1.352   1.883  15.610  1.2649  0.4838 -0.2118
12875TIP3   OH260039   2.478   6.001   0.720  0.1705 -0.3456  0.5106
12875TIP3    H160040   2.546   6.064   0.743 -0.3255  0.8477 -1.1872
12875TIP3    H260041   2.469   5.946   0.798  0.3634  1.8856  2.1416
12876TIP3   OH260042   5.391   5.893   4.567  0.1711  0.3833 -0.3287
12876TIP3    H160043   5.411   5.875   4.659  1.5761  0.4454 -0.5995
12876TIP3    H260044   5.296   5.895   4.562  0.0805 -0.3626  0.9851
12877TIP3   OH260045   5.492   1.066   0.577 -0.3302 -0.0126  0.2256
12877TIP3    H160046   5.569   1.104   0.621  0.0336 -1.5770  0.9782
12877TIP3    H260047   5.445   1.142   0.541  1.3341  1.0008  0.1251
12878TIP3   OH260048   4.230   0.988  12.835 -0.4201 -0.0173  0.3125
12878TIP3    H160049   4.294   0.976  12.905 -0.7179 -0.9994  0.4347
12878TIP3    H260050   4.265   0.940  12.761 -0.5317  0.2866  0.0614
12879TIP3   OH260051   6.696   1.755  12.513 -0.1676 -0.2120 -0.2324
12879TIP3    H160052   6.677   1.810  12.437  2.8159  0.7307 -0.3747
12879TIP3    H260053   6.695   1.666  12.479  0.9968  0.1903 -1.3880
12880TIP3   OH260054   5.091   4.671  12.120 -0.1930 -0.2098  0.1615
12880TIP3    H160055   5.078   4.666  12.215  0.9011 -0.2465  0.3180
12880TIP3    H260056   5.137   4.754  12.107  0.2263 -0.5095 -0.2726
12881TIP3   OH260057   5.114   3.628  16.724 -0.5272  0.2538 -0.0935
12881TIP3    H160058   5.197   3.582  16.735 -0.5677 -0.3159 -2.0192
12881TIP3    H260059   5.113   3.693  16.794  2.0658  1.0419 -0.7323
12882TIP3   OH260060   0.006   1.914  12.918 -0.0391 -0.2151  0.0891
12882TIP3    H160061   0.073   1.974  12.950 -1.1713  0.9735  0.2521
12882TIP3    H260062  -0.009   1.940  12.827 -1.4563  0.6242  0.5364
12883TIP3   OH260063   4.579   0.173  15.446  0.8997  0.8489 -0.3273
12883TIP3    H160064   4.671   0.179  15.471  0.6000 -0.0105  1.0597
12883TIP3    H260065   4.562   0.078  15.443 -0.5004  0.9976  1.6611
12884TIP3   OH260066   4.875   4.790  17.071  0.1886  0.2962 -0.6097
12884TIP3    H160067   4.874   4.708  17.121 -1.4301 -0.2971 -1.5893
12884TIP3    H260068   4.957   4.787  17.022 -0.1671 -1.0358 -1.1323
12885TIP3   OH260069   1.033   1.771   3.129 -0.2080 -0.3125  0.0913
12885TIP3    H160070   1.036   1.826   3.207 -1.8029 -0.7912  0.5072
12885TIP3    H260071   1.124   1.766   3.100  0.6082 -1.0797  2.6134
12886TIP3   OH260072   2.450   4.101  11.507 -0.1679 -0.2467 -0.3302
12886TIP3    H160073   2.385   4.050  11.556  0.4720 -1.8404 -1.0820
12886TIP3    H260074   2.412   4.109  11.419 -0.4112  0.8762 -0.1269
12887TIP3   OH260075   4.575   4.171  12.589  0.4285  0.3902 -0.0780
12887TIP3    H160076   4.538   4.217  12.665  0.9046  2.6273 -1.1704
12887TIP3    H260077   4.670   4.181  12.599  0.5021  0.4463 -0.8231
12888TIP3   OH260078   3.217   1.227  13.310 -0.0405  0.9640 -0.6358
12888TIP3    H160079   3.225   1.168  13.235  1.6946  1.1831 -0.6624
12888TIP3    H260080   3.123   1.241  13.321 -0.4617 -1.4368 -0.9194
12889TIP3   OH260081   1.395   2.271  16.348 -0.4217  0.9017 -0.3878
12889TIP3    H160082   1.461   2.261  16.279 -1.0598  1.2872 -1.0601
12889TIP3    H260083   1.328   2.205  16.327  0.1141 -0.0282  0.7353
12890TIP3   OH260084   1.254   4.674   1.600 -0.2442 -0.4417 -0.4280
12890TIP3    H160085   1.314   4.743   1.571 -0.5635  0.0513  0.0766
12890TIP3    H260086   1.256   4.610   1.529  0.3005 -0.0674 -0.7578
12891TIP3   OH260087   6.109   5.515   2.281  0.0708  0.3398  0.0227
12891TIP3    H160088   6.078   5.562   2.358 -0.5588 -0.5950  0.3616
12891TIP3    H260089   6.202   5.534   2.277  0.2508 -0.1262  1.4190
12892TIP3   OH260090   4.050   0.691   1.254  0.1374  0.0727  0.3147
12892TIP3    H160091   3.963   0.696   1.292  0.5250 -1.0176  1.3684
12892TIP3    H260092   4.037   0.704   1.160 -0.8030  3.1720  0.8090
12893TIP3   OH260093   1.901   2.220  12.151 -0.3713  0.4917 -0.2574
12893TIP3    H160094   1.825   2.209  12.208  0.2127 -0.5750  0.3339
12893TIP3    H260095   1.950   2.292  12.190  0.0664 -0.2837  0.6567
12894TIP3   OH260096   0.387   6.427  11.103  0.1968 -0.6169  0.4356
12894TIP3    H160097   0.388   6.334  11.124 -0.0780 -0.4832  1.0405
12894TIP3    H260098   0.334   6.433  11.023 -0.0294 -0.9420  0.5620
12895TIP3   OH260099   2.103   5.614  15.916 -0.2754  0.0231  0.5296
12895TIP3    H160100   2.115   5.701  15.878 -0.3131 -1.2687 -2.5354
12895TIP3    H260101   2.186   5.596  15.961  0.3673  0.9597 -0.2692
12896TIP3   OH260102   5.562   0.184   2.589  0.1005 -0.3733 -0.0831
12896TIP3    H160103   5.537   0.140   2.508 -0.0660 -1.0889  0.3544
12896TIP3    H260104   5.651   0.216   2.574  0.8464 -2.3059  0.1894
12897TIP3   OH260105   0.073   1.508  11.738  0.3393  0.0599 -0.0951
12897TIP3    H160106   0.051   1.470  11.654  3.0427  0.5585 -1.1020
12897TIP3    H260107   0.158   1.469  11.761  0.5637  1.3781  1.4519
12898TIP3   OH260108   1.557   6.448   2.951 -0.1402 -0.6255  0.1151
12898TIP3    H160109   1.518   6.365   2.925 -0.2634 -0.4784 -0.1805
12898TIP3    H260110   1.482   6.503   2.977 -0.2000 -0.1635 -0.9590
12899TIP3   OH260111   1.130   1.043  17.004  0.1515 -0.0299 -0.3144
12899TIP3    H160112   1.202   1.103  17.021 -0.0952  0.3244 -0.5120
12899TIP3    H260113   1.094   1.024  17.091 -2.4930  3.5036 -0.4864
12900TIP3   OH260114   3.773   5.181  12.200  0.3170 -0.2523  0.1691
12900TIP3    H160115   3.744   5.261  12.245 -0.9047 -0.8990  0.5250
12900TIP3    H260116   3.724   5.111  12.241 -1.0324 -0.8406 -2.3582
12901TIP3   OH260117   5.530   1.641   5.433  0.1655  0.1915  0.2291
12901TIP3    H160118   5.617   1.630   5.393 -1.1940 -0.4356 -2.6427
12901TIP3    H260119   5.520   1.735   5.444 -0.0554  0.4989 -2.4022
12902TIP3   OH260120   1.318   3.832  10.388  0.4347  0.2796  0.4278
12902TIP3    H160121   1.383   3.787  10.334 -0.5640 -1.2668  0.4459
12902TIP3    H260122   1.278   3.896  10.329 -0.6864 -1.4314 -0.7370
12903TIP3   OH260123   4.808   3.928   6.087  0.2257 -0.0598 -0.0643
12903TIP3    H160124   4.735   3.973   6.044  0.2773 -0.1625 -0.2602
12903TIP3    H260125   4.769   3.849   6.124 -0.0305  0.5545  0.9929
12904TIP3   OH260126   6.274   6.585   0.632 -0.1475  0.0786 -0.1734
12904TIP3    H160127   6.324   6.505   0.646 -0.2852 -0.0890 -0.6074
12904TIP3    H260128   6.259   6.620   0.719  0.1355 -0.2323  0.0029
12905TIP3   OH260129   1.326   1.376   2.621 -0.0333  0.3900 -0.4185
12905TIP3    H160130   1.275   1.413   2.693 -0.7215 -0.5091 -0.4440
12905TIP3    H260131   1.345   1.452   2.564 -1.3477  0.7252 -0.4164
12906TIP3   OH260132   4.710   6.349   4.881 -0.1997 -0.1880 -0.3616
12906TIP3    H160133   4.618   6.367   4.862 -0.3488 -1.3570 -0.7844
12906TIP3    H260134   4.746   6.321   4.797 -0.0083 -1.9536  0.3067
12907TIP3   OH260135   1.414   0.547   1.990  0.2941  0.5846 -0.6142
12907TIP3    H160136   1.492   0.584   1.948  0.3272  0.4810 -0.6434
12907TIP3    H260137   1.415   0.584   2.078 -0.0109  1.1395 -0.8460
12908TIP3   OH260138   0.452   5.979   0.901  0.2943 -0.6110  0.3159
12908TIP3    H160139   0.401   5.900   0.918 -2.2600  1.0495  0.6666
12908TIP3    H260140   0.465   6.019   0.987  1.0797 -0.3549  0.0847
12909TIP3   OH260141   2.282   4.311  10.955  0.3003 -0.3992 -0.1701
12909TIP3    H160142   2.306   4.369  11.027  0.9033  1.0914 -1.5518
12909TIP3    H260143   2.333   4.232  10.969 -0.9466 -0.8609  2.0471
12910TIP3   OH260144   5.048   5.938  14.921 -0.1210  0.0705 -0.0343
12910TIP3    H160145   5.016   6.028  14.914 -0.8192 -0.2661 -1.1903
12910TIP3    H260146   5.103   5.939  15.000 -1.2999  1.1434  0.7947
12911TIP3   OH260147   2.207   5.489  14.205 -0.1457 -0.3888  0.4782
12911TIP3    H160148   2.207   5.417  14.269 -0.9761 -0.7621  0.0702
12911TIP3    H260149   2.130   5.541  14.228  0.8492  0.7710  1.2062
12912TIP3   OH260150   0.008   4.935  11.513  0.2257 -0.1882  0.0291
12912TIP3    H160151  -0.007   4.856  11.461 -1.1811  0.0850 -0.0140
12912TIP3    H260152   0.097   4.962  11.490  0.1873 -0.9410 -1.0696
12913TIP3   OH260153   6.565   5.352   4.895 -0.1144  0.9310 -0.1337
12913TIP3    H160154   6.603   5.311   4.972 -0.0621 -0.5046 -0.8988
12913TIP3    H260155   6.484   5.303   4.880 -0.1948  1.2926 -0.9022
12914TIP3   OH260156   6.489   0.962   2.004 -0.3076 -0.1190 -0.2682
12914TIP3    H160157   6.571   1.011   1.997  0.0573 -0.6151  0.5277
12914TIP3    H260158   6.499   0.889   1.943 -0.0331 -0.3471  0.0474
12915TIP3   OH260159   0.455   4.100  13.883  0.3878  0.2587  0.4371
12915TIP3    H160160   0.408   4.025  13.919  2.2768 -0.6395  1.0865
12915TIP3    H260161   0.386   4.158  13.851 -1.1075 -2.1038 -0.7899
12916TIP3   OH260162   4.593   5.073   3.815 -0.4990  0.5077  0.2153
12916TIP3    H160163   4.593   5.146   3.876  0.8332 -0.1167  0.9767
12916TIP3    H260164   4.573   4.996   3.869  1.3381 -0.1412  0.0140
12917TIP3   OH260165   3.514   0.652  12.194  0.1285  0.5000  0.6179
12917TIP3    H160166   3.504   0.745  12.213 -0.1619  0.4480  0.7295
12917TIP3    H260167   3.575   0.648  12.121 -1.3181  0.8760 -0.6540
12918TIP3   OH260168   4.042   5.607  11.496  0.5305 -0.1866 -0.1751
12918TIP3    H160169   4.017   5.516  11.513  0.4804  0.0511  1.0634
12918TIP3    H260170   3.958   5.654  11.493  0.6260  0.0289  0.4729
12919TIP3   OH260171   4.030   3.445   0.529  0.5061  0.3281 -0.0667
12919TIP3    H160172   4.033   3.497   0.609 -0.5699  1.3690 -0.6919
12919TIP3    H260173   4.120   3.444   0.498  0.8065  0.4978  0.7887
12920TIP3   OH260174   1.120   2.000  14.518 -0.2845 -0.0773 -0.1350
12920TIP3    H160175   1.031   1.992  14.552 -0.1512 -1.2220 -0.0363
12920TIP3    H260176   1.167   1.926  14.556  0.7950  0.6920  0.0544
12921TIP3   OH260177   0.703   0.452  14.783 -0.0377  0.7829 -0.0816
12921TIP3    H160178   0.665   0.419  14.702  0.5411 -0.4029  0.1208
12921TIP3    H260179   0.708   0.547  14.770  0.3445  0.5776 -1.5686
12922TIP3   OH260180   5.522   4.164  14.143 -0.0396  0.1931 -0.1083
12922TIP3    H160181   5.544   4.172  14.050 -0.9876  0.5848 -0.3150
12922TIP3    H260182   5.447   4.223  14.154  0.7292  0.9338  1.1369
12923TIP3   OH260183   2.969   2.583   3.579  0.2281  0.0899 -0.7461
12923TIP3    H160184   2.888   2.544   3.546 -0.1862  0.5959 -0.3326
12923TIP3    H260185   3.022   2.508   3.605 -0.3040 -0.2318 -0.5665
12924TIP3   OH260186   3.222   3.189   2.039  0.0741 -0.2401  0.2106
12924TIP3    H160187   3.141   3.167   1.993  0.7117 -0.8571 -0.6012
12924TIP3    H260188   3.292   3.169   1.977  0.8355  0.6781  0.7612
12925TIP3   OH260189   6.648   2.405  11.582  0.2823 -0.1907 -0.3481
12925TIP3    H160190   6.629   2.313  11.601 -2.0362  0.1257 -1.0810
12925TIP3    H260191   6.614   2.420  11.495  1.3009  1.2079 -0.5330
12926TIP3   OH260192   4.539   0.956  16.318 -0.2590 -0.1740  0.1913
12926TIP3    H160193   4.626   0.961  16.278  0.0435  1.4643  1.0016
12926TIP3    H260194   4.479   0.976  16.247  0.2771  2.7027  0.4817
12927TIP3   OH260195   4.528   3.573  12.455 -0.4808  0.3182 -0.0333
12927TIP3    H160196   4.588   3.561  12.382 -0.2796 -0.6381  0.2829
12927TIP3    H260197   4.561   3.650  12.501  0.6691 -0.3721  0.3077
12928TIP3   OH260198   3.254   1.409   0.531 -0.0321  0.0555 -0.3473
12928TIP3    H160199   3.300   1.390   0.449  0.6271 -0.1784  0.0764
12928TIP3    H260200   3.284   1.341   0.592 -0.5912  0.1723  0.0652
12929TIP3   OH260201   1.384   1.666  11.495 -0.0532 -0.5122 -0.5160
12929TIP3    H160202   1.340   1.584  11.519 -0.4870 -0.0712  0.2333
12929TIP3    H260203   1.314   1.731  11.492  0.7963  0.6594  2.8229
12930TIP3   OH260204   5.937   2.677   2.730  0.5697 -0.1173  0.3499
12930TIP3    H160205   5.861   2.733   2.711  0.6070 -0.8730 -2.3385
12930TIP3    H260206   5.975   2.714   2.809 -0.8526  2.1315  0.0485
12931TIP3   OH260207   3.854   6.584  12.466 -0.4599 -0.4033  0.3221
12931TIP3    H160208   3.767   6.615  12.443 -0.0669  0.7485  0.3559
12931TIP3    H260209   3.854   6.576  12.561 -0.5870 -0.5862  0.3066
12932TIP3   OH260210   6.094   5.428   5.848 -0.6667  0.6480  0.0693
12932TIP3    H160211   6.182   5.419   5.812 -0.4011 -0.2142  0.9145
12932TIP3    H260212   6.105   5.414   5.942 -1.6620  0.8214  0.2140
12933TIP3   OH260213   2.757   3.544  16.517 -0.6108 -0.1514 -0.0798
12933TIP3    H160214   2.759   3.605  16.591 -1.5161 -1.2273  0.8501
12933TIP3    H260215   2.778   3.459  16.556 -3.0437 -1.0628 -0.6769
12934TIP3   OH260216   2.061   2.667   3.625 -0.3658  0.1071  0.3229
12934TIP3    H160217   2.076   2.755   3.659 -1.3932  0.3181  0.2535
12934TIP3    H260218   2.118   2.611   3.677  2.5513  1.1676 -1.6288
12935TIP3   OH260219   6.205   5.513   1.164  0.2475  0.3626  0.1879
12935TIP3    H160220   6.189   5.606   1.177 -0.4144  0.3273 -0.3461
12935TIP3    H260221   6.299   5.507   1.146  0.3478  0.8883  0.5517
12936TIP3   OH260222   0.122   4.953   2.550 -0.5264  0.1105  0.2704
12936TIP3    H160223   0.051   5.004   2.511 -0.4167 -0.7378 -1.0417
12936TIP3    H260224   0.086   4.923   2.634 -0.8070  1.8100  0.7884
12937TIP3   OH260225   1.752   3.165  11.626 -0.4727 -0.1640 -0.0889
12937TIP3    H160226   1.718   3.249  11.597 -0.2089 -0.1627 -0.3884
12937TIP3    H260227   1.768   3.177  11.720  1.8777  0.8903 -0.5984
12938TIP3   OH260228   3.658   4.360  10.924  0.3376 -0.0012  0.3072
12938TIP3    H160229   3.645   4.384  11.016 -0.3841 -0.2059  0.2578
12938TIP3    H260230   3.583   4.305  10.902 -0.4121  1.4862 -0.9154
12939TIP3   OH260231   1.198   1.616   4.744 -0.3206  0.1821  0.1141
12939TIP3    H160232   1.124   1.601   4.804  0.2888  0.2026  0.8829
12939TIP3    H260233   1.247   1.534   4.746  0.2753  0.5426  0.4581
12940TIP3   OH260234   1.124   5.363   0.260  0.9825 -0.0796 -0.1085
12940TIP3    H160235   1.056   5.430   0.255  0.3571 -0.6317  0.7216
12940TIP3    H260236   1.108   5.306   0.185 -0.4269 -1.0644  0.9045
12941TIP3   OH260237   4.683   1.345  12.127  0.2804  0.0307 -0.1466
12941TIP3    H160238   4.645   1.423  12.166  1.0562  0.5803 -0.4836
12941TIP3    H260239   4.622   1.321  12.057 -0.0133  0.2699  0.0264
12942TIP3   OH260240   5.326   3.884  13.166 -0.3029 -0.4791 -0.2890
12942TIP3    H160241   5.412   3.842  13.164 -0.2107 -0.3836  1.1619
12942TIP3    H260242   5.345   3.978  13.157 -0.3081 -0.5067 -0.6040
12943TIP3   OH260243   4.098   0.624  14.729 -0.8785  0.4068  0.3189
12943TIP3    H160244   4.090   0.603  14.636 -0.8395  1.4269  0.0776
12943TIP3    H260245   4.191   0.644  14.740 -1.0832  1.3745  0.3368
12944TIP3   OH260246   3.157   2.505  13.239 -0.5608 -0.0540 -0.3965
12944TIP3    H160247   3.161   2.538  13.329 -0.3013  1.4740 -0.9507
12944TIP3    H260248   3.083   2.551  13.200  1.4367  1.9672 -1.9714
12945TIP3   OH260249   1.506   2.928   2.775 -0.0252  0.5681  0.2478
12945TIP3    H160250   1.534   2.837   2.779  0.3522  0.5482 -2.0074
12945TIP3    H260251   1.411   2.925   2.790 -0.1278 -0.2807 -0.5335
12946TIP3   OH260252   0.063   0.234   2.582 -0.6374 -0.2703  0.8640
12946TIP3    H160253   0.133   0.170   2.566  0.3873  0.9639  0.3542
12946TIP3    H260254   0.040   0.220   2.674  1.1714  0.1459  1.4146
12947TIP3   OH260255   2.119   3.298  14.279 -0.2195 -0.3137  0.4262
12947TIP3    H160256   2.080   3.380  14.250  0.0654 -0.2566  0.2038
12947TIP3    H260257   2.059   3.230  14.246  0.2757 -0.2683 -0.5966
12948TIP3   OH260258   3.176   4.021  12.555 -1.0813 -0.3227  0.2259
12948TIP3    H160259   3.182   4.027  12.460 -0.0637  0.7799  0.3416
12948TIP3    H260260   3.126   4.098  12.581  1.1337  0.9870  0.7831
12949TIP3   OH260261   6.565   2.820  12.160  0.1074  0.1345  0.5381
12949TIP3    H160262   6.527   2.897  12.204 -1.2556  0.4746 -1.1880
12949TIP3    H260263   6.510   2.747  12.190 -0.0935  0.1919  0.3104
12950TIP3   OH260264   0.117   0.411  16.165 -0.3208  0.3623 -0.9444
12950TIP3    H160265   0.103   0.356  16.088 -3.7803 -0.7015  0.3718
12950TIP3    H260266   0.086   0.498  16.137  1.4446  0.7602 -1.7434
12951TIP3   OH260267   2.370   3.637  15.790  0.2616 -0.1067 -0.1549
12951TIP3    H160268   2.364   3.609  15.699 -2.3189  0.9019 -0.3624
12951TIP3    H260269   2.445   3.697  15.792  0.1784  0.0721 -1.6887
12952TIP3   OH260270   2.760   1.534  16.992  0.1492 -0.0639  0.8143
12952TIP3    H160271   2.852   1.511  17.005  1.1505  1.1938 -3.3538
12952TIP3    H260272   2.713   1.451  16.996  1.6915 -0.9148  1.2929
12953TIP3   OH260273   5.163   0.116  13.848 -0.5790  0.2910 -0.2824
12953TIP3    H160274   5.258   0.127  13.852 -0.6929  2.0301 -1.5457
12953TIP3    H260275   5.148   0.026  13.878  1.2611  0.7238  2.1391
12954TIP3   OH260276   6.252   1.330   3.327  0.0839  0.3219 -0.0417
12954TIP3    H160277   6.261   1.299   3.237  0.6713  1.1491 -0.2763
12954TIP3    H260278   6.333   1.301   3.371  1.6707  3.3585 -0.8284
12955TIP3   OH260279   6.414   4.806   5.918 -0.5930  0.2276  0.3071
12955TIP3    H160280   6.346   4.739   5.919 -0.3595 -0.0322 -1.1561
12955TIP3    H260281   6.466   4.787   5.996  0.4840 -2.3426 -0.9818
12956TIP3   OH260282   5.547   6.091   3.376  0.0958 -0.2674  0.0531
12956TIP3    H160283   5.541   6.098   3.471  1.6762 -0.7952  0.2122
12956TIP3    H260284   5.641   6.079   3.359 -0.0380  0.8146 -1.6299
12957TIP3   OH260285   0.012   5.187  11.823  0.2775  0.0368 -0.3741
12957TIP3    H160286   0.086   5.131  11.801  0.1158 -0.2670 -0.1706
12957TIP3    H260287  -0.051   5.127  11.865 -0.1394  0.2621 -0.6730
12958TIP3   OH260288   4.888   6.549   3.420  0.1429 -0.2377 -0.1807
12958TIP3    H160289   4.810   6.515   3.465  0.0478  0.1585 -0.0432
12958TIP3    H260290   4.893   6.641   3.448  0.6754 -0.2735 -0.1713
12959TIP3   OH260291   4.970   0.264   4.989  0.4670 -0.2850 -0.0270
12959TIP3    H160292   5.050   0.243   5.037  1.3409 -1.7203 -2.0633
12959TIP3    H260293   4.899   0.240   5.049  1.5483 -1.9599  0.6047
12960TIP3   OH260294   3.428   0.910   4.810 -0.2005 -0.4720  0.1815
12960TIP3    H160295   3.356   0.855   4.839 -1.0287  1.0130  0.9878
12960TIP3    H260296   3.392   0.962   4.738 -0.4264  1.3959  1.6062
12961TIP3   OH260297   4.836   4.990  15.772 -0.0407  0.2840 -0.3216
12961TIP3    H160298   4.763   5.052  15.777 -0.1103  0.3166 -1.4341
12961TIP3    H260299   4.807   4.925  15.708  0.6287 -0.0876 -0.2490
12962TIP3   OH260300   2.170   3.354   2.814 -0.2966  0.2158 -0.1150
12962TIP3    H160301   2.142   3.264   2.824  1.0596 -0.2217 -0.0807
12962TIP3    H260302   2.266   3.350   2.817 -0.2161  1.6545 -0.0492
12963TIP3   OH260303   5.783   3.160   5.505  0.1204  0.0393  1.0321
12963TIP3    H160304   5.819   3.116   5.582  1.4365  0.0211  0.3974
12963TIP3    H260305   5.733   3.234   5.542  1.5909  0.6375  1.8609
12964TIP3   OH260306   3.752   5.976   2.481 -0.1288  0.3888  0.2535
12964TIP3    H160307   3.757   5.948   2.572  0.5464  0.5071  0.2557
12964TIP3    H260308   3.751   6.072   2.485  1.6232  0.4398  0.0745
12965TIP3   OH260309   6.360   3.854   0.091  0.2199 -0.0193  0.1122
12965TIP3    H160310   6.277   3.810   0.110 -0.0918  0.9368  1.0674
12965TIP3    H260311   6.367   3.922   0.159  1.2364  0.6414 -0.6323
12966TIP3   OH260312   1.821   3.726  15.073  0.1199  0.2870 -0.5673
12966TIP3    H160313   1.855   3.722  15.163 -0.0640  0.9464 -0.4669
12966TIP3    H260314   1.855   3.809  15.039  1.0730 -0.4765 -1.4661
12967TIP3   OH260315   6.405   2.123  16.501  0.3138 -0.0365  0.4008
12967TIP3    H160316   6.500   2.134  16.511 -0.0008  1.8084  1.7476
12967TIP3    H260317   6.390   2.137  16.407  1.1607  1.8391  0.4990
12968TIP3   OH260318   0.615   1.357   5.031 -0.0833  0.0887 -0.8306
12968TIP3    H160319   0.661   1.321   4.955 -0.4139  0.3501 -1.1597
12968TIP3    H260320   0.683   1.401   5.082  0.5264 -1.9063  0.1519
12969TIP3   OH260321   4.349   1.898   4.359  0.0464  0.0027  0.4234
12969TIP3    H160322   4.418   1.879   4.423 -0.1087 -1.0135  0.2961
12969TIP3    H260323   4.345   1.993   4.356 -2.5079  0.1405  4.7231
12970TIP3   OH260324   2.196   3.866  16.931 -0.1098  0.2468 -0.0807
12970TIP3    H160325   2.289   3.889  16.926 -0.6391  2.1003 -1.7843
12970TIP3    H260326   2.196   3.778  16.968  2.4642 -0.7092 -2.1698
12971TIP3   OH260327   1.047   3.400  12.062  0.2079 -0.5485  0.2447
12971TIP3    H160328   1.127   3.347  12.056 -0.5483 -1.8190  1.1368
12971TIP3    H260329   1.053   3.443  12.147  0.6595  0.5852 -0.3392
12972TIP3   OH260330   5.704   2.268  12.953 -0.0717 -0.5082  0.6686
12972TIP3    H160331   5.772   2.266  12.885 -0.3574  0.4900  0.3498
12972TIP3    H260332   5.622   2.275  12.905 -0.3301 -0.5484  1.0996
12973TIP3   OH260333   6.296   0.710   1.116 -0.2656 -0.1422 -0.0362
12973TIP3    H160334   6.349   0.726   1.038 -0.3697  1.5030  0.2083
12973TIP3    H260335   6.216   0.761   1.102 -1.0425 -1.2341  0.3656
12974TIP3   OH260336   5.104   5.879  11.828 -0.1659 -0.1044  0.3125
12974TIP3    H160337   5.085   5.941  11.898  1.0820  1.7229 -0.9147
12974TIP3    H260338   5.181   5.830  11.859 -0.8933 -0.7702  1.0981
12975TIP3   OH260339   6.061   3.924   3.462 -0.5549  0.2820 -0.3332
12975TIP3    H160340   6.084   3.832   3.452 -1.8819  0.0055 -0.8848
12975TIP3    H260341   5.967   3.924   3.478 -0.3336  1.4436  1.1445
12976TIP3   OH260342   5.981   1.926   4.818 -0.2211 -0.3925  0.3913
12976TIP3    H160343   6.057   1.943   4.873 -0.5942 -0.6072  0.9855
12976TIP3    H260344   6.016   1.915   4.730  0.4498 -0.6170  0.6819
12977TIP3   OH260345   5.736   6.582   1.580  0.3851  0.2967 -0.0261
12977TIP3    H160346   5.788   6.601   1.502  0.9786 -0.1440  0.2532
12977TIP3    H260347   5.655   6.630   1.567  0.7414  0.7505 -0.6135
12978TIP3   OH260348   5.418   1.526   5.213 -0.2445  0.2057  0.1945
12978TIP3    H160349   5.340   1.535   5.268 -1.4882 -1.0942 -1.3343
12978TIP3    H260350   5.491   1.545   5.273 -1.6824  1.0094  1.7466
12979TIP3   OH260351   2.330   2.335   3.274  0.1225 -0.2544 -0.1131
12979TIP3    H160352   2.257   2.389   3.306 -0.4899 -1.4331  0.5321
12979TIP3    H260353   2.350   2.371   3.188  0.4650  1.7065  0.7575
12980TIP3   OH260354   5.527   5.716  14.862 -0.3519  0.5756 -0.4297
12980TIP3    H160355   5.479   5.641  14.828  0.1964  0.6362 -1.3328
12980TIP3    H260356   5.568   5.756  14.785  1.0915  0.5751  0.3259
12981TIP3   OH260357   4.699   5.273  16.298 -0.0231 -0.1334 -1.0134
12981TIP3    H160358   4.726   5.365  16.292  0.3256 -0.1119  0.7434
12981TIP3    H260359   4.748   5.229  16.229  0.1744  0.9070 -1.5533
12982TIP3   OH260360   5.148   5.353  15.327  0.0675 -0.2073  0.4034
12982TIP3    H160361   5.090   5.412  15.374  1.3593  1.7467 -0.4027
12982TIP3    H260362   5.113   5.265  15.344 -1.8886  0.7905  1.5804
12983TIP3   OH260363   4.370   0.780  13.299  0.0730  0.4060 -0.1286
12983TIP3    H160364   4.362   0.817  13.387 -0.2606 -0.0895  0.0519
12983TIP3    H260365   4.394   0.688  13.314 -0.3288  0.2334 -0.5476
12984TIP3   OH260366   4.226   6.559  14.570 -1.1641  0.4819  0.2313
12984TIP3    H160367   4.246   6.649  14.596 -1.3490  0.9815 -1.3197
12984TIP3    H260368   4.135   6.546  14.597 -1.8543  1.5271 -1.5208
12985TIP3   OH260369   1.629   6.213   2.374  0.0387 -0.0611 -0.1594
12985TIP3    H160370   1.660   6.153   2.441 -2.3133 -0.8148  0.2809
12985TIP3    H260371   1.709   6.254   2.340  1.5300 -2.2197  0.6643
12986TIP3   OH260372   5.494   3.496  16.340  0.7017  0.7231 -0.1530
12986TIP3    H160373   5.410   3.529  16.373  1.1682  0.2221  1.6037
12986TIP3    H260374   5.470   3.429  16.276 -0.2436  0.7996  0.1177
12987TIP3   OH260375   0.586   4.395   3.887  0.1735  0.2316  0.0137
12987TIP3    H160376   0.525   4.423   3.955  0.9526  0.4611  0.6284
12987TIP3    H260377   0.567   4.452   3.813  0.6051  1.2693  0.6873
12988TIP3   OH260378   6.584   0.700  10.668 -0.2376  0.0318  0.4700
12988TIP3    H160379   6.507   0.755  10.658  0.6959  1.7055  2.2380
12988TIP3    H260380   6.550   0.620  10.709 -1.6622 -0.9530 -2.5007
12989TIP3   OH260381   6.290   5.423  16.235  0.5996  0.2596  0.3256
12989TIP3    H160382   6.337   5.369  16.172 -1.1530  0.9764 -1.6443
12989TIP3    H260383   6.223   5.366  16.272 -0.4236  0.6852 -0.8221
12990TIP3   OH260384   3.450   4.472   0.005  0.6206 -0.3560 -0.6923
12990TIP3    H160385   3.407   4.481  -0.081 -0.7329 -0.8843 -0.0856
12990TIP3    H260386   3.498   4.389  -0.002 -0.4496 -1.0021 -0.5474
12991TIP3   OH260387   0.354   5.638   4.196 -0.6681 -0.4884 -0.2653
12991TIP3    H160388   0.315   5.675   4.275  0.3293  1.4234 -0.6361
12991TIP3    H260389   0.288   5.653   4.128 -0.9316 -0.8556 -0.0944
12992TIP3   OH260390   2.545   6.357   6.524  0.7141  0.5450  0.5560
12992TIP3    H160391   2.567   6.414   6.597  1.1525  0.9472  0.1101
12992TIP3    H260392   2.456   6.327   6.544 -0.4308  3.1966 -0.3470
12993TIP3   OH260393   3.269   6.691  13.092  0.0369  0.2772 -0.2082
12993TIP3    H160394   3.234   6.610  13.129  2.1147 -0.7606 -0.3930
12993TIP3    H260395   3.341   6.662  13.037 -0.0073  2.1771 -1.3068
12994TIP3   OH260396   2.958   6.178  11.261 -0.4493 -0.1810 -0.1068
12994TIP3    H160397   2.931   6.269  11.255 -0.1358  0.0014  1.1771
12994TIP3    H260398   3.054   6.181  11.266 -0.4248 -0.5926 -0.2582
12995TIP3   OH260399   4.416   2.971  13.094 -0.0112  0.1700 -0.1231
12995TIP3    H160400   4.459   2.936  13.172 -1.4287  1.3280  1.2309
12995TIP3    H260401   4.398   2.895  13.040  0.7980 -0.6789  0.7747
12996TIP3   OH260402   3.811   3.308  16.099 -0.3270  0.3300 -0.2152
12996TIP3    H160403   3.805   3.261  16.183  3.0279  1.2602  0.6199
12996TIP3    H260404   3.844   3.395  16.123  1.9237  0.1775 -2.6301
12997TIP3   OH260405   5.747   4.194  14.977  0.6350  0.4826  0.1773
12997TIP3    H160406   5.809   4.156  14.914  1.2338  1.9793 -0.1484
12997TIP3    H260407   5.672   4.218  14.923  0.4647  0.2489  0.3082
12998TIP3   OH260408   5.744   4.387   6.557  0.2035 -0.4648 -0.3372
12998TIP3    H160409   5.728   4.457   6.494 -0.9615  0.5339  1.0232
12998TIP3    H260410   5.839   4.378   6.559  0.3045  0.2446 -1.4130
12999TIP3   OH260411   0.165   0.078  15.425  0.5189  0.5658  1.0798
12999TIP3    H160412   0.193   0.003  15.371 -0.2788  0.4689  0.7927
12999TIP3    H260413   0.163   0.044  15.514  0.9773  0.4819  1.0609
13000TIP3   OH260414   0.752   1.956   0.121 -0.0830  0.1560 -0.0307
13000TIP3    H160415   0.809   1.911   0.182 -0.1848  1.1944  0.8319
13000TIP3    H260416   0.677   1.984   0.174 -0.3533  0.7172 -0.7031
13001TIP3   OH260417   5.305   0.578  13.238  0.2152  0.5507  0.6393
13001TIP3    H160418   5.226   0.593  13.187  1.4054 -0.0505 -1.4479
13001TIP3    H260419   5.277   0.525  13.312 -1.4151  0.8453  0.2413
13002TIP3   OH260420   4.123   5.838  12.933  0.5529 -0.1487 -0.5144
13002TIP3    H160421   4.124   5.850  13.028 -0.7372 -0.6835 -0.4340
13002TIP3    H260422   4.191   5.897  12.901  1.0046  0.0236  0.7379
13003TIP3   OH260423   2.999   4.898  11.670 -0.5512  0.6500  0.3318
13003TIP3    H160424   2.910   4.893  11.635 -0.6106  2.7828  0.0812
13003TIP3    H260425   3.048   4.942  11.601  0.3746  0.7611  1.0655
13004TIP3   OH260426   2.268   1.054  11.392 -0.1572  0.4328  0.2084
13004TIP3    H160427   2.193   1.113  11.391  0.0034  0.6485  0.6437
13004TIP3    H260428   2.289   1.044  11.485  0.0475 -0.0151  0.1127
13005TIP3   OH260429   1.892   3.424  13.854  0.5146  0.5070  0.2530
13005TIP3    H160430   1.908   3.449  13.945  1.2898  2.0063 -0.2928
13005TIP3    H260431   1.978   3.426  13.813 -0.0022  0.9717 -0.8118
13006TIP3   OH260432   5.114   4.825  16.941 -0.4197 -0.0212  0.3052
13006TIP3    H160433   5.131   4.738  16.903  2.3251  0.2701  0.7557
13006TIP3    H260434   5.114   4.884  16.866  2.1344  0.1664  0.4312
13007TIP3   OH260435   1.474   5.044   5.003  0.1939 -0.4401  0.3179
13007TIP3    H160436   1.440   4.955   5.012 -0.0405 -0.5638 -1.6095
13007TIP3    H260437   1.538   5.052   5.074  1.0926 -2.5638 -0.2182
13008TIP3   OH260438   0.976   4.816  10.577 -0.2156  0.4764 -0.0628
13008TIP3    H160439   0.914   4.826  10.649  0.1179  1.4365  0.0906
13008TIP3    H260440   1.052   4.772  10.616  1.6039  4.4658  1.1189
13009TIP3   OH260441   2.096   2.395   1.291  0.0461 -0.0134  0.2753
13009TIP3    H160442   2.001   2.392   1.308  0.0537  1.5035  0.6791
13009TIP3    H260443   2.110   2.328   1.224 -1.5507  0.6727 -0.7973
13010TIP3   OH260444   2.348   0.632   1.688 -0.1413  0.2406  0.1272
13010TIP3    H160445   2.403   0.709   1.703 -1.6119  1.3665 -0.1667
13010TIP3    H260446   2.331   0.597   1.775  0.2884  0.4094  0.2815
13011TIP3   OH260447   6.216   5.927  13.323  0.4375  0.3931  0.2442
13011TIP3    H160448   6.197   5.854  13.381  1.8177  0.9436  1.4157
13011TIP3    H260449   6.288   5.896  13.268 -0.4872  0.0769 -0.8209
13012TIP3   OH260450   4.877   0.453   6.078 -0.3056 -0.5389 -0.3827
13012TIP3    H160451   4.846   0.521   6.138 -0.6351 -0.7276 -0.3372
13012TIP3    H260452   4.842   0.479   5.993  0.6640  0.0527 -0.6054
13013TIP3   OH260453   6.334   0.834   4.924 -0.5186  0.4205 -0.0328
13013TIP3    H160454   6.340   0.916   4.875 -0.0818  0.2819 -0.2058
13013TIP3    H260455   6.244   0.834   4.959 -0.3571  1.2212  0.4028
13014TIP3   OH260456   3.001   3.836   2.300 -0.1612 -0.4993 -0.5606
13014TIP3    H160457   3.089   3.817   2.332  0.3270  1.6107 -0.6082
13014TIP3    H260458   3.007   3.826   2.205  0.0051 -0.4093 -0.5593
13015TIP3   OH260459   1.632   1.539   0.028 -0.1640 -0.1931 -0.0772
13015TIP3    H160460   1.566   1.559  -0.039  1.7248  1.7800 -1.4322
13015TIP3    H260461   1.716   1.557  -0.015  1.1105  1.1384  2.8388
13016TIP3   OH260462   1.047   0.212  13.548  0.1458  0.4557 -0.0760
13016TIP3    H160463   1.135   0.251  13.548  0.1470  0.4514 -0.8707
13016TIP3    H260464   0.988   0.286  13.535  0.0286  0.4539  0.4263
13017TIP3   OH260465   4.393   0.501   2.541  0.3967 -0.1973 -0.1472
13017TIP3    H160466   4.460   0.456   2.489 -0.5243  0.4814 -1.9588
13017TIP3    H260467   4.418   0.484   2.632  3.5715  0.8423 -0.7764
13018TIP3   OH260468   4.300   4.207  15.872 -0.6667  0.4488  0.2629
13018TIP3    H160469   4.324   4.161  15.953 -1.1138 -0.4455 -0.1017
13018TIP3    H260470   4.246   4.280  15.900  0.2386  0.8877  0.8784
13019TIP3   OH260471   1.914   1.809   0.999  0.0405 -0.3503 -0.3345
13019TIP3    H160472   1.905   1.807   1.094  0.2604 -0.5354 -0.3154
13019TIP3    H260473   1.832   1.773   0.966  1.1777 -3.2672 -0.1395
13020TIP3   OH260474   5.292   6.744   5.527  0.7601  0.1682 -0.6217
13020TIP3    H160475   5.313   6.666   5.475  0.2429 -0.8060  0.6225
13020TIP3    H260476   5.378   6.780   5.552  1.0145 -1.4828  0.9826
13021TIP3   OH260477   1.289   2.159  13.553  0.1323 -0.0630 -0.8931
13021TIP3    H160478   1.263   2.221  13.621 -2.5968 -1.4965 -0.5407
13021TIP3    H260479   1.298   2.213  13.474 -0.9618  0.9848 -0.3241
13022TIP3   OH260480   6.743   5.748   2.132  1.2035 -0.3509  0.2824
13022TIP3    H160481   6.782   5.692   2.065 -1.3599 -0.7169 -0.9676
13022TIP3    H260482   6.678   5.800   2.085 -0.5018 -0.4640  2.4215
13023TIP3   OH260483   0.883   4.144   1.557  0.2352 -0.2571  0.0993
13023TIP3    H160484   0.899   4.077   1.491  0.4025  0.9788 -1.1183
13023TIP3    H260485   0.873   4.225   1.508 -0.6869  0.5057  1.5049
13024TIP3   OH260486   3.759   0.150  13.103 -0.2100  0.8215 -0.0470
13024TIP3    H160487   3.800   0.235  13.115  0.9973  0.0666  1.2736
13024TIP3    H260488   3.672   0.159  13.143 -0.3806  1.6380 -0.5824
13025TIP3   OH260489   1.408   1.099  12.546 -0.2007 -0.3777 -0.0493
13025TIP3    H160490   1.434   1.171  12.603 -0.2066  1.2926 -2.0855
13025TIP3    H260491   1.320   1.076  12.575  0.8475 -1.4911  2.4307
13026TIP3   OH260492   0.592   0.912   2.847 -0.1318  0.7141 -0.4063
13026TIP3    H160493   0.581   0.817   2.856  0.7508  0.8355  2.1028
13026TIP3    H260494   0.520   0.949   2.897 -0.0994  1.3897 -0.8517
13027TIP3   OH260495   6.165   0.651   3.683  0.1558 -0.2960  0.0664
13027TIP3    H160496   6.221   0.707   3.630  0.6205  0.9147  1.8172
13027TIP3    H260497   6.184   0.562   3.653  0.0658  0.3920 -2.0984
13028TIP3   OH260498   1.210   5.662  13.785 -0.8867 -0.5995  0.0783
13028TIP3    H160499   1.227   5.574  13.820 -1.2849 -0.7134 -0.0043
13028TIP3    H260500   1.123   5.684  13.819 -0.2015  0.3438  1.2540
13029TIP3   OH260501   5.555   3.849   5.315 -0.6929 -0.1038  0.1732
13029TIP3    H160502   5.501   3.927   5.327 -0.3311  0.1301  0.2620
13029TIP3    H260503   5.538   3.796   5.393 -1.6405 -0.5318 -0.3148
13030TIP3   OH260504   5.563   6.590  12.020 -0.3947  0.0065 -0.0906
13030TIP3    H160505   5.517   6.670  12.044 -0.5440  0.2741 -1.2104
13030TIP3    H260506   5.501   6.543  11.964  0.5751  0.2432 -1.3830
13031TIP3   OH260507   0.738   1.280   4.795 -0.5429  0.0857  0.1264
13031TIP3    H160508   0.736   1.191   4.760  4.7409 -0.7361  1.4583
13031TIP3    H260509   0.740   1.337   4.718 -1.0185 -1.0903 -0.7609
13032TIP3   OH260510   6.741   3.013   5.907  0.4514  0.1731  0.1930
13032TIP3    H160511   6.806   2.986   5.842  0.4993 -0.4272  0.4859
13032TIP3    H260512   6.690   2.934   5.924 -2.1591  1.3081 -2.0979
13033TIP3   OH260513   1.047   3.405  16.169  0.1471  0.0884  0.4170
13033TIP3    H160514   1.137   3.372  16.169  0.2977  0.4866  1.3522
13033TIP3    H260515   0.999   3.344  16.113  1.0024 -0.1169 -0.1014
13034TIP3   OH260516   2.618   2.297   1.348 -0.7634 -0.6166 -0.2363
13034TIP3    H160517   2.565   2.356   1.401  1.0448  0.0105  0.9152
13034TIP3    H260518   2.589   2.209   1.372 -0.9005 -0.2894  0.7772
13035TIP3   OH260519   0.798   4.715  13.509  0.2186  0.0537  0.8330
13035TIP3    H160520   0.855   4.770  13.562 -0.1539  1.0804  0.1756
13035TIP3    H260521   0.789   4.762  13.426 -0.2844 -0.8866  0.3398
13036TIP3   OH260522   1.614   2.048   3.299  0.1213 -0.0471  0.0480
13036TIP3    H160523   1.601   1.955   3.320  0.7863  0.3784  2.5226
13036TIP3    H260524   1.701   2.068   3.335 -0.3658  1.7239  0.2714
13037TIP3   OH260525   3.084   6.370  11.822 -0.0106 -0.3096 -0.0337
13037TIP3    H160526   3.178   6.389  11.831  0.3169 -1.9745  0.1474
13037TIP3    H260527   3.079   6.275  11.817 -1.9242 -0.4141  2.7634
13038TIP3   OH260528   2.954   0.869   2.400  0.1526  0.0116  0.3386
13038TIP3    H160529   3.044   0.860   2.370  0.2429 -0.3390  0.7183
13038TIP3    H260530   2.946   0.808   2.473 -0.2093  0.5098  0.7203
13039TIP3   OH260531   2.684   3.702  16.069  0.3609 -0.2986  0.0129
13039TIP3    H160532   2.606   3.689  16.122  0.7044  0.1055  0.6186
13039TIP3    H260533   2.658   3.766  16.003  0.1027 -0.3665  0.0503
13040TIP3   OH260534   3.233   0.902  11.322  0.2140 -0.3818  0.3849
13040TIP3    H160535   3.200   0.812  11.330  0.5834 -0.4647  1.0920
13040TIP3    H260536   3.278   0.918  11.406 -0.2154  0.6085  0.4321
13041TIP3   OH260537   1.599   1.962   1.696 -0.0331 -0.1574  0.1866
13041TIP3    H160538   1.565   1.877   1.722  1.2082 -0.5287  0.5985
13041TIP3    H260539   1.545   2.025   1.744 -1.1692 -0.6794 -0.3729
13042TIP3   OH260540   2.910   4.229  16.752  0.0801  0.1965 -0.2399
13042TIP3    H160541   2.872   4.242  16.665 -2.2152  1.7790  0.9309
13042TIP3    H260542   2.959   4.309  16.769  2.1507 -0.9271 -0.8405
13043TIP3   OH260543   5.838   4.829  13.490 -0.7769 -0.6771  0.2210
13043TIP3    H160544   5.870   4.750  13.534 -3.2748 -3.6670 -3.0807
13043TIP3    H260545   5.758   4.852  13.538 -0.0340 -0.0559  1.2003
13044TIP3   OH260546   4.391   1.349   5.019 -0.7630  0.1427 -1.2211
13044TIP3    H160547   4.339   1.375   5.095 -0.2563 -1.9846 -0.1006
13044TIP3    H260548   4.330   1.350   4.946 -1.2320  2.3551 -0.8249
13045TIP3   OH260549   0.108   5.233  14.255 -0.8311  0.1271 -0.1008
13045TIP3    H160550   0.182   5.254  14.197  0.9162 -0.3174  1.9113
13045TIP3    H260551   0.064   5.159  14.213  0.3482 -0.1291 -0.8956
13046TIP3   OH260552   3.996   0.127  16.315 -0.4230 -0.1476 -0.9885
13046TIP3    H160553   3.971   0.040  16.285 -3.3459  0.0660  0.6275
13046TIP3    H260554   3.931   0.185  16.275  0.6939  1.1318 -0.9639
13047TIP3   OH260555   2.756   1.000   0.047  0.4397  0.4567  0.2560
13047TIP3    H160556   2.804   1.045   0.117  0.0480  2.0071 -0.4608
13047TIP3    H260557   2.665   1.000   0.076  0.3100  0.9020 -0.1488
13048TIP3   OH260558   5.254   4.780   5.683 -0.7267 -0.3587 -0.3167
13048TIP3    H160559   5.253   4.743   5.595 -1.5922  0.0509 -0.4929
13048TIP3    H260560   5.183   4.734   5.729  0.8662 -1.8395  0.7192
13049TIP3   OH260561   2.688   3.020  12.687  0.0914 -0.9049  0.1012
13049TIP3    H160562   2.771   2.997  12.645  0.9740 -0.4194  1.5525
13049TIP3    H260563   2.714   3.060  12.771 -1.6255 -3.3922  1.8891
13050TIP3   OH260564   3.326   0.816  13.843 -0.4494 -0.5234  0.0841
13050TIP3    H160565   3.341   0.908  13.822 -0.4416 -0.3735  0.7414
13050TIP3    H260566   3.368   0.768  13.771  1.5265 -0.0634  0.9132
13051TIP3   OH260567   2.013   2.626  11.812  0.1064  0.6103  0.1274
13051TIP3    H160568   1.947   2.590  11.754  0.1366 -2.1943  1.7603
13051TIP3    H260569   1.967   2.641  11.895  0.7706  1.7355  0.3146
13052TIP3   OH260570   1.112   3.864  14.881  0.1056  0.1151  0.1494
13052TIP3    H160571   1.141   3.955  14.888  1.5022 -0.1786 -1.7022
13052TIP3    H260572   1.079   3.843  14.969 -3.4967  3.4672 -0.2305
13053TIP3   OH260573   2.888   4.379  12.556 -0.3877  0.0755  0.2996
13053TIP3    H160574   2.906   4.346  12.468 -0.6324  0.2632  0.1779
13053TIP3    H260575   2.944   4.327  12.613 -1.2433 -1.0018  0.1846
13054TIP3   OH260576   6.100   5.730  14.869  0.6029 -0.7203 -0.5577
13054TIP3    H160577   6.070   5.675  14.797  2.1633 -1.2807 -0.7846
13054TIP3    H260578   6.036   5.801  14.873 -0.0654 -1.2452 -1.8182
13055TIP3   OH260579   5.938   2.267   3.513  0.0071 -0.0374  0.2662
13055TIP3    H160580   5.858   2.277   3.566  0.8442  1.2249  1.3174
13055TIP3    H260581   5.929   2.334   3.445  0.9354  1.2561  1.3844
13056TIP3   OH260582   1.775   0.331   0.487  0.1874 -0.1589  0.1122
13056TIP3    H160583   1.724   0.297   0.560  0.3723 -3.8789 -1.3865
13056TIP3    H260584   1.825   0.404   0.524 -0.3720 -1.4135  3.4553
13057TIP3   OH260585   6.565   1.560   2.855 -0.2679 -0.1864 -0.0446
13057TIP3    H160586   6.590   1.626   2.791  0.1345  1.0528  1.3770
13057TIP3    H260587   6.479   1.588   2.887 -0.5296 -0.8698 -0.1367
13058TIP3   OH260588   4.285   0.786  14.342 -0.4110  0.8576  0.2319
13058TIP3    H160589   4.192   0.797  14.322 -0.6326 -0.8863  0.2351
13058TIP3    H260590   4.329   0.792  14.258 -0.8593 -1.4954 -0.2133
13059TIP3   OH260591   0.341   1.171   0.219  0.2182 -0.1434  0.5027
13059TIP3    H160592   0.247   1.175   0.238  0.1457  2.0102 -0.1910
13059TIP3    H260593   0.379   1.242   0.272  1.2528 -0.0396 -0.3617
13060TIP3   OH260594   2.337   3.800  13.607 -0.4437 -1.0700 -0.4868
13060TIP3    H160595   2.339   3.884  13.652 -0.2216 -1.6103  0.5453
13060TIP3    H260596   2.405   3.807  13.540 -0.1502 -0.5747 -0.1405
13061TIP3   OH260597   1.782   4.980  11.433 -0.3740 -0.5180 -0.2081
13061TIP3    H160598   1.866   4.971  11.388 -0.1011  0.0296  0.1921
13061TIP3    H260599   1.804   4.983  11.526 -0.7495  0.6909 -0.1518
13062TIP3   OH260600   5.256   3.024   6.002 -0.0488  0.3545  0.2185
13062TIP3    H160601   5.232   3.058   6.088  1.8659 -0.5091  1.1326
13062TIP3    H260602   5.309   3.093   5.963  0.1317  0.2409  0.2600
13063TIP3   OH260603   3.249   5.813  12.492 -0.5436 -0.3974  0.3121
13063TIP3    H160604   3.201   5.764  12.425  1.5627  0.7357 -2.1454
13063TIP3    H260605   3.193   5.890  12.509 -0.9185 -0.4873 -0.4664
13064TIP3   OH260606   1.788   6.215  16.633 -0.0546 -0.3740  0.3082
13064TIP3    H160607   1.875   6.189  16.602 -0.8143 -3.2364  0.4368
13064TIP3    H260608   1.734   6.217  16.554  0.1774  1.8276  0.1646
13065TIP3   OH260609   2.096   2.667   1.168 -0.3507  0.1176  0.8503
13065TIP3    H160610   2.081   2.573   1.177  0.1014  0.1889  2.5298
13065TIP3    H260611   2.008   2.705   1.167 -0.5202 -0.2693  1.0201
13066TIP3   OH260612   5.350   0.276  15.048  0.3638  0.5900 -0.0866
13066TIP3    H160613   5.432   0.264  15.097 -1.3196  0.6771  2.8712
13066TIP3    H260614   5.329   0.369  15.060  0.1710  0.7320 -1.4410
13067TIP3   OH260615   0.509   2.950   0.254 -0.7791  0.2067 -0.2409
13067TIP3    H160616   0.553   3.001   0.322 -1.4856  0.3816  0.0888
13067TIP3    H260617   0.533   2.859   0.273  0.4956  0.4078 -0.8422
13068TIP3   OH260618   4.619   1.701  14.121  0.8295 -0.1984  0.4709
13068TIP3    H160619   4.627   1.664  14.033  1.5454 -1.3029  0.9782
13068TIP3    H260620   4.686   1.654  14.172 -0.8309 -0.9051  2.0408
13069TIP3   OH260621   1.656   5.382  11.848 -0.0390  0.5439 -0.1015
13069TIP3    H160622   1.745   5.361  11.817  0.0915  0.8609  0.0573
13069TIP3    H260623   1.613   5.297  11.855 -0.1619  0.4779 -1.4250
13070TIP3   OH260624   0.116   0.212  12.418  0.0834  0.1782  0.0563
13070TIP3    H160625   0.163   0.295  12.408  1.7238 -0.8362 -0.8103
13070TIP3    H260626   0.035   0.225  12.368  0.2673  1.2988  0.0291
13071TIP3   OH260627   3.157   0.793  15.142 -0.1333  0.0939  0.2674
13071TIP3    H160628   3.200   0.713  15.173 -0.0051 -1.0149 -2.5934
13071TIP3    H260629   3.075   0.796  15.191 -0.2565 -1.9485  0.2423
13072TIP3   OH260630   2.596   2.222   3.269  0.2730  0.3689 -0.3066
13072TIP3    H160631   2.619   2.212   3.177 -3.0389 -0.0230 -1.1704
13072TIP3    H260632   2.585   2.133   3.302  2.2405  0.4836  0.7095
13073TIP3   OH260633   6.632   2.713  12.817  0.6151 -0.5504 -0.4163
13073TIP3    H160634   6.548   2.754  12.798 -0.2223 -1.8024  0.4626
13073TIP3    H260635   6.681   2.779  12.867  0.0011  0.0326 -0.5863
13074TIP3   OH260636   6.689   5.284  14.412 -0.3499 -0.1920 -0.2605
13074TIP3    H160637   6.655   5.195  14.414  1.1564 -0.7761 -0.7458
13074TIP3    H260638   6.769   5.279  14.361  0.6076  1.1463  1.0667
13075TIP3   OH260639   4.840   2.262  16.026  0.3125  0.0596  0.3437
13075TIP3    H160640   4.824   2.220  16.111 -0.9129  2.0565  1.1515
13075TIP3    H260641   4.824   2.194  15.962  1.3398 -1.5134  1.7277
13076TIP3   OH260642   3.095   1.695   0.283 -0.1239  0.3440 -0.0901
13076TIP3    H160643   3.111   1.601   0.278 -0.0387  0.3655 -0.2474
13076TIP3    H260644   3.110   1.727   0.193  1.3818  0.7431  0.2961
13077TIP3   OH260645   5.425   1.597  15.838 -0.7467  0.4085  0.0890
13077TIP3    H160646   5.421   1.682  15.883 -1.7381  0.3241  0.1660
13077TIP3    H260647   5.414   1.532  15.907  0.8273  0.1827  0.1402
13078TIP3   OH260648   3.207   6.285  13.784 -0.2114 -0.3184  0.3535
13078TIP3    H160649   3.261   6.209  13.802  0.5549  0.2563  0.5201
13078TIP3    H260650   3.194   6.326  13.869 -1.4089 -0.7776  0.4016
13079TIP3   OH260651   4.849   0.847   5.709 -0.3172  0.0025 -0.6276
13079TIP3    H160652   4.936   0.810   5.698 -0.4753 -0.0132 -1.9374
13079TIP3    H260653   4.792   0.787   5.659 -1.0857 -0.0589  0.3187
13080TIP3   OH260654   2.290   0.363  15.117 -0.1037 -0.1975 -0.0036
13080TIP3    H160655   2.316   0.274  15.140  0.6573  0.2812  1.0459
13080TIP3    H260656   2.371   0.406  15.091  0.0345  0.9899  2.2218
13081TIP3   OH260657   1.442   5.374   5.152  0.6407  0.2750  0.5563
13081TIP3    H160658   1.385   5.451   5.160 -0.2040 -0.3827  1.0896
13081TIP3    H260659   1.427   5.326   5.233 -1.1719 -1.9938 -1.0623
13082TIP3   OH260660   2.060   2.320  13.221  0.1807 -0.1996  0.3652
13082TIP3    H160661   2.126   2.282  13.163 -0.7522  0.1898 -0.9710
13082TIP3    H260662   2.107   2.391  13.266  0.0789  1.8076 -2.4887
13083TIP3   OH260663   3.752   4.841   5.314  0.1564 -0.0520  0.5796
13083TIP3    H160664   3.844   4.850   5.289  0.0551  1.0391  0.5674
13083TIP3    H260665   3.714   4.784   5.247 -0.0269  2.5398 -1.5995
13084TIP3   OH260666   0.967   3.976  13.133  0.2472 -1.0611 -0.4610
13084TIP3    H160667   0.955   4.060  13.178  0.1631 -1.0070 -0.5846
13084TIP3    H260668   0.881   3.935  13.136  0.2819 -1.1323 -0.4255
13085TIP3   OH260669   0.308   5.813   2.976 -0.0265  0.2535  1.1860
13085TIP3    H160670   0.273   5.818   3.064 -2.1668  0.2393  0.3583
13085TIP3    H260671   0.350   5.727   2.972 -0.3495  0.0544  2.0230
13086TIP3   OH260672   2.886   1.185   1.301 -0.3254 -0.0999 -0.1772
13086TIP3    H160673   2.934   1.208   1.221  1.2619 -0.5860  0.6064
13086TIP3    H260674   2.955   1.170   1.366 -1.4835 -2.4751  0.5388
13087TIP3   OH260675   0.251   4.819   3.175 -0.6026 -1.0091 -0.6831
13087TIP3    H160676   0.243   4.852   3.264  2.2006 -0.8807 -0.4403
13087TIP3    H260677   0.166   4.780   3.156 -1.9825  0.9782  1.2129
13088TIP3   OH260678   0.479   0.753   4.365  0.5259  0.0835 -0.4650
13088TIP3    H160679   0.470   0.707   4.282  1.0758  1.1095 -1.0922
13088TIP3    H260680   0.485   0.846   4.342  2.5547  0.2340  0.5894
13089TIP3   OH260681   1.740   2.218  13.500  0.6117  0.3071 -0.3377
13089TIP3    H160682   1.756   2.293  13.558  2.1387 -1.2982  1.3859
13089TIP3    H260683   1.675   2.165  13.546  0.3526  0.0108 -1.0347
13090TIP3   OH260684   1.290   0.590  16.136 -0.5836  0.3570  0.1004
13090TIP3    H160685   1.296   0.609  16.042 -0.3352  1.2209  0.2917
13090TIP3    H260686   1.381   0.583  16.165 -0.6524 -2.5948 -0.2436
13091TIP3   OH260687   5.602   1.197   3.667  0.6765 -0.1521  0.1486
13091TIP3    H160688   5.521   1.151   3.645 -0.3808  2.4038 -1.5429
13091TIP3    H260689   5.572   1.284   3.695  2.9025  1.3301 -1.9268
13092TIP3   OH260690   4.416   1.481   5.318 -0.4104 -0.2175 -0.6233
13092TIP3    H160691   4.457   1.407   5.364  0.1526  0.5522  0.1068
13092TIP3    H260692   4.485   1.515   5.261 -0.6871 -0.2761 -0.9988
13093TIP3   OH260693   0.817   0.954   5.159 -0.0358  0.0666  0.2729
13093TIP3    H160694   0.784   0.903   5.086 -2.1070  0.3504  0.9682
13093TIP3    H260695   0.744   1.011   5.184  0.8849  0.5243  2.0569
13094TIP3   OH260696   1.868   4.905   0.888 -0.3607  0.0331  0.2340
13094TIP3    H160697   1.876   5.000   0.893  0.0269 -0.0215  0.8008
13094TIP3    H260698   1.885   4.875   0.978  0.0012 -0.5995 -0.0385
13095TIP3   OH260699   0.602   2.383   1.330 -0.3470 -0.2639  0.2162
13095TIP3    H160700   0.521   2.334   1.344 -0.3167 -0.1973  0.6123
13095TIP3    H260701   0.581   2.441   1.256  0.0167 -1.7555 -1.0814
13096TIP3   OH260702   4.819   5.068  14.739 -0.0241  0.2680 -0.1712
13096TIP3    H160703   4.771   5.004  14.791  1.2802  0.5583  1.4214
13096TIP3    H260704   4.821   5.146  14.794  1.1687  0.6499 -0.7514
13097TIP3   OH260705   1.208   5.365   4.872  0.6521  0.2311  0.6077
13097TIP3    H160706   1.275   5.354   4.939  1.5570 -0.1779 -0.3511
13097TIP3    H260707   1.257   5.367   4.790 -0.6060 -1.3137 -0.1963
13098TIP3   OH260708   2.701   4.058   0.353 -0.9519 -0.2804 -0.3378
13098TIP3    H160709   2.753   4.061   0.273 -1.1270 -0.9068 -0.4821
13098TIP3    H260710   2.758   4.017   0.417 -0.9480 -0.1366 -0.2503
13099TIP3   OH260711   0.719   0.831  12.586 -0.0905  0.1275 -0.3926
13099TIP3    H160712   0.722   0.836  12.490  0.0303  0.3580 -0.3759
13099TIP3    H260713   0.631   0.860  12.609  0.2532  1.1763 -0.3659
13100TIP3   OH260714   3.778   6.748  11.340  0.5605  0.4847  0.7098
13100TIP3    H160715   3.717   6.717  11.273 -0.5993 -1.0454  2.4272
13100TIP3    H260716   3.757   6.841  11.349  1.5864  1.0242 -1.8917
13101TIP3   OH260717   2.430   6.692   4.662  0.1817 -0.2765 -0.1301
13101TIP3    H160718   2.388   6.755   4.604 -0.8624 -0.0162  0.8813
13101TIP3    H260719   2.424   6.609   4.615 -0.4737 -0.0269 -0.4968
13102TIP3   OH260720   5.633   4.128  16.930 -0.5208  0.2011 -0.5371
13102TIP3    H160721   5.701   4.195  16.938  0.6764 -0.9794 -0.4617
13102TIP3    H260722   5.551   4.173  16.950  0.1914  1.7494 -1.0153
13103TIP3   OH260723   0.234   3.430  15.438 -0.2584  0.5475  0.4016
13103TIP3    H160724   0.174   3.431  15.512 -1.3826  0.9563 -0.5105
13103TIP3    H260725   0.238   3.339  15.410  0.0522  0.4175  0.8681
13104TIP3   OH260726   4.690   1.150   2.426 -0.3453  0.2237 -0.9953
13104TIP3    H160727   4.613   1.170   2.372  0.2644  2.1537 -1.2219
13104TIP3    H260728   4.764   1.181   2.373  0.2529  2.4742  1.0609
13105TIP3   OH260729   0.397   0.655   0.400  0.3260 -0.2643 -0.2690
13105TIP3    H160730   0.324   0.659   0.462 -0.1864  0.3390 -0.9064
13105TIP3    H260731   0.384   0.730   0.342  1.1168 -0.4982 -0.7610
13106TIP3   OH260732   2.291   3.158   5.228 -0.1576  0.1356  0.3476
13106TIP3    H160733   2.339   3.222   5.176  1.3316 -1.3297 -0.1103
13106TIP3    H260734   2.248   3.210   5.296 -1.4445  1.9701 -1.8092
13107TIP3   OH260735   2.126   5.343   4.938  0.1403  0.3308  0.1185
13107TIP3    H160736   2.177   5.417   4.903 -2.9412  1.9511 -1.1942
13107TIP3    H260737   2.117   5.362   5.031  0.7113  0.7669  0.0893
13108TIP3   OH260738   3.825   2.065  12.991  0.5633 -0.2295  0.4480
13108TIP3    H160739   3.770   2.027  12.922  0.9074 -2.0609  1.1628
13108TIP3    H260740   3.855   1.990  13.042  0.6158  1.0655  2.3814
13109TIP3   OH260741   2.265   4.187  13.971 -0.2215  0.7284 -0.7523
13109TIP3    H160742   2.262   4.110  13.914  2.2765  0.9146 -1.1931
13109TIP3    H260743   2.213   4.253  13.924  1.8313  0.8965 -2.9091
13110TIP3   OH260744   1.869   5.150   3.531 -0.3907  0.1950 -0.3693
13110TIP3    H160745   1.840   5.182   3.616 -0.1860  0.4002 -0.3778
13110TIP3    H260746   1.904   5.227   3.486  1.5781 -0.3409  0.2248
13111TIP3   OH260747   0.983   4.366   3.492  1.0929 -0.2039  0.5550
13111TIP3    H160748   1.077   4.356   3.474  1.2965  1.4640  0.6267
13111TIP3    H260749   0.953   4.429   3.427 -0.6001 -2.8342 -1.2959
13112TIP3   OH260750   0.048   4.587   3.709  0.6127  0.0987  0.5799
13112TIP3    H160751   0.131   4.553   3.743 -0.1107 -1.1541  1.1090
13112TIP3    H260752   0.073   4.641   3.634  1.9738  0.4080  1.2353
13113TIP3   OH260753   4.297   1.008  16.155  0.4314  0.0243  0.0785
13113TIP3    H160754   4.219   1.064  16.151  0.5641  0.2545  0.5895
13113TIP3    H260755   4.263   0.919  16.156  0.2082  0.0988 -0.5306
13114TIP3   OH260756   4.344   2.184   4.336 -0.2217  0.1998 -0.4841
13114TIP3    H160757   4.351   2.179   4.431  0.4184 -1.0986 -0.5899
13114TIP3    H260758   4.399   2.259   4.313  0.6436 -0.2463  0.0739
13115TIP3   OH260759   3.510   6.535  14.721 -0.3976 -0.2978 -0.9292
13115TIP3    H160760   3.544   6.464  14.775  1.5307  0.7337 -0.7658
13115TIP3    H260761   3.418   6.541  14.745  0.2710 -0.3083  1.7147
13116TIP3   OH260762   1.838   4.572   2.113  0.0443  0.3511  0.0069
13116TIP3    H160763   1.795   4.498   2.071  2.2411 -1.8647  1.5188
13116TIP3    H260764   1.885   4.616   2.042  2.9703 -2.8147 -0.1911
13117TIP3   OH260765   4.011   0.066   0.023  0.0596 -0.6432 -0.2138
13117TIP3    H160766   3.985  -0.021  -0.007  0.3157 -0.5186 -0.7881
13117TIP3    H260767   3.968   0.127  -0.038  0.4720 -0.3869 -0.2497
13118TIP3   OH260768   3.409   1.815  11.693 -0.1473 -0.5552  0.4360
13118TIP3    H160769   3.393   1.756  11.620  1.7241 -0.8463  0.2250
13118TIP3    H260770   3.375   1.900  11.665  0.9958 -0.5490 -0.9859
13119TIP3   OH260771   4.290   1.612  12.025 -0.0951  0.0484 -0.2181
13119TIP3    H160772   4.218   1.674  12.040 -1.6165 -1.8714  0.7104
13119TIP3    H260773   4.267   1.568  11.944  1.1278  0.8776 -1.0290
13120TIP3   OH260774   3.512   0.619   2.654  0.1635  0.2409 -0.2935
13120TIP3    H160775   3.426   0.589   2.683 -0.3114 -0.4093 -2.3635
13120TIP3    H260776   3.500   0.712   2.633 -0.1305  0.0381 -1.0098
13121TIP3   OH260777   6.171   3.501   0.914  0.3576  0.0649  0.3512
13121TIP3    H160778   6.234   3.573   0.915  1.1465 -0.6047  0.5725
13121TIP3    H260779   6.111   3.521   0.843  2.8791 -0.9875 -2.1686
13122TIP3   OH260780   1.240   0.101  12.636 -0.0617  0.0357  0.1531
13122TIP3    H160781   1.172   0.166  12.618  1.1628  1.7625  1.6364
13122TIP3    H260782   1.271   0.074  12.550  1.9113  4.0874 -0.4881
13123TIP3   OH260783   3.389   1.186   5.062  0.0313  0.0705 -0.3169
13123TIP3    H160784   3.418   1.235   4.985 -0.1851 -0.0573 -0.4821
13123TIP3    H260785   3.309   1.141   5.033 -0.3910  0.5060  0.1620
13124TIP3   OH260786   3.686   4.845   0.933  0.4314 -0.4931  0.0384
13124TIP3    H160787   3.779   4.855   0.954  0.1140  2.4883  0.2427
13124TIP3    H260788   3.683   4.846   0.837  0.4826  1.3241  0.0290
13125TIP3   OH260789   5.909   1.124   2.215 -0.0937 -0.0621  0.1170
13125TIP3    H160790   5.838   1.073   2.252 -2.4351  2.5262 -0.6802
13125TIP3    H260791   5.880   1.215   2.223  1.8459  0.8794 -2.8577
13126TIP3   OH260792   6.771   5.294  16.414 -0.4895  0.2099  0.5801
13126TIP3    H160793   6.706   5.267  16.479 -0.1984  0.6172  1.0456
13126TIP3    H260794   6.733   5.268  16.330 -0.6402 -0.7784  0.9460
13127TIP3   OH260795   2.216   4.132   1.527 -0.0049  0.1136 -0.2506
13127TIP3    H160796   2.306   4.143   1.559  0.3188  1.3475 -1.4900
13127TIP3    H260797   2.221   4.056   1.469 -0.3746 -1.5029  1.8286
13128TIP3   OH260798   4.077   3.354   6.501  0.4416 -0.0604  0.4676
13128TIP3    H160799   4.066   3.258   6.497  0.0413 -0.0272  0.6640
13128TIP3    H260800   4.159   3.366   6.548  0.1125 -0.3081  1.1345
13129TIP3   OH260801   6.467   4.913   4.406  0.5219 -0.2617 -0.1914
13129TIP3    H160802   6.460   4.995   4.357  1.7833  0.1863  0.3491
13129TIP3    H260803   6.497   4.849   4.341  2.1995  0.3319 -0.0397
13130TIP3   OH260804   0.734   3.774   5.705  0.5087 -0.5070 -0.1961
13130TIP3    H160805   0.769   3.841   5.646 -2.1414  1.0548 -0.0555
13130TIP3    H260806   0.714   3.821   5.786 -2.2534 -1.2226 -0.4072
13131TIP3   OH260807   2.973   2.084  15.173  0.2492 -0.0642 -0.0276
13131TIP3    H160808   2.945   2.130  15.253  0.8057 -1.4733  1.0054
13131TIP3    H260809   3.025   2.010  15.205 -1.1788 -1.8011 -1.5897
13132TIP3   OH260810   3.354   6.781   1.542  0.9373 -0.3233  0.1602
13132TIP3    H160811   3.354   6.723   1.619  0.0771  0.8594  1.0736
13132TIP3    H260812   3.268   6.823   1.545  0.5205 -0.9866 -2.0221
13133TIP3   OH260813   4.863   2.721   3.219  0.2645  0.0893  0.0189
13133TIP3    H160814   4.853   2.784   3.148 -0.1066  1.9801  1.6784
13133TIP3    H260815   4.789   2.661   3.209 -0.1738  0.7575 -0.7973
13134TIP3   OH260816   2.364   3.706   3.564 -0.5361 -0.0551 -0.0047
13134TIP3    H160817   2.458   3.695   3.552 -0.4457  0.9968 -0.2964
13134TIP3    H260818   2.332   3.618   3.587  0.5705 -0.3320  0.5026
13135TIP3   OH260819   3.423   3.630   5.576  0.3043  0.5106  0.1178
13135TIP3    H160820   3.492   3.583   5.622  0.6067  1.9305  1.1518
13135TIP3    H260821   3.429   3.599   5.486  1.7006 -0.0535  0.3923
13136TIP3   OH260822   1.174   2.325  15.749 -0.3257 -0.2998  0.2867
13136TIP3    H160823   1.174   2.231  15.763  2.4232 -0.2634  0.7117
13136TIP3    H260824   1.237   2.339  15.679 -1.8266  1.1100 -0.8251
13137TIP3   OH260825   4.448   5.568   0.475  0.8609 -0.2423  0.0028
13137TIP3    H160826   4.357   5.587   0.496  0.8945 -0.0063 -0.0610
13137TIP3    H260827   4.447   5.480   0.438  0.8515 -0.8130  1.3595
13138TIP3   OH260828   2.918   1.630   5.571  0.3957 -0.2903  0.3555
13138TIP3    H160829   2.946   1.598   5.657  0.2519 -0.8936  0.1809
13138TIP3    H260830   3.000   1.647   5.524  0.4926  1.7711  1.2384
13139TIP3   OH260831   3.628   2.811   4.868  0.2023 -0.3442 -0.2998
13139TIP3    H160832   3.628   2.803   4.773  0.1166  2.3815 -0.5724
13139TIP3    H260833   3.674   2.893   4.886 -1.1831  0.0217  1.9150
13140TIP3   OH260834   2.291   3.502  11.078 -0.3325  0.5604 -0.3326
13140TIP3    H160835   2.308   3.587  11.118  1.6266  1.7462 -3.4691
13140TIP3    H260836   2.357   3.444  11.117 -0.6847  0.8237  0.6773
13141TIP3   OH260837   2.114   2.253   1.036  0.4786 -0.4860  0.0994
13141TIP3    H160838   2.150   2.330   0.992 -0.0862 -0.0602  0.3741
13141TIP3    H260839   2.186   2.220   1.089  0.9391 -0.5689 -0.5650
13142TIP3   OH260840   0.038   4.957   5.987 -0.1419  0.5089  0.1707
13142TIP3    H160841   0.011   4.969   5.896  0.5344 -0.6181 -0.1784
13142TIP3    H260842  -0.027   4.897   6.024  1.9949 -2.4892 -0.7652
13143TIP3   OH260843   2.985   4.711  16.766 -0.5023  0.1249 -0.2910
13143TIP3    H160844   2.953   4.674  16.849 -2.1585 -0.0044 -0.9741
13143TIP3    H260845   3.050   4.647  16.735  0.4200  0.3706  1.0907
13144TIP3   OH260846   6.131   1.172   0.780  0.1501  0.1461 -0.3171
13144TIP3    H160847   6.192   1.211   0.718  0.2778 -1.3911 -1.1700
13144TIP3    H260848   6.174   1.092   0.811 -1.4073 -0.9647 -0.9385
13145TIP3   OH260849   0.360   0.706  16.597  0.2745  0.0204  0.2203
13145TIP3    H160850   0.316   0.728  16.679  1.0335  0.1328  0.6074
13145TIP3    H260851   0.438   0.762  16.596  0.3273 -0.0633 -0.5244
13146TIP3   OH260852   1.714   0.566   4.505  0.0367  0.0315 -0.3712
13146TIP3    H160853   1.681   0.525   4.585  0.5274  0.8987  0.2928
13146TIP3    H260854   1.804   0.534   4.497  0.8077  1.8349  0.7820
13147TIP3   OH260855   0.010   2.073  16.585 -0.0231  0.1491 -0.6538
13147TIP3    H160856   0.074   2.055  16.517  1.0808  0.1642  0.3594
13147TIP3    H260857   0.000   2.168  16.585 -1.5301  0.0125 -2.1243
13148TIP3   OH260858   0.040   2.508   5.482 -0.2384 -0.5242 -0.5812
13148TIP3    H160859  -0.013   2.477   5.555  0.2550  0.4804  0.2265
13148TIP3    H260860  -0.021   2.514   5.409 -0.6034 -2.1441 -0.4254
13149TIP3   OH260861   0.057   1.148  16.604  0.2848  0.0167  0.2347
13149TIP3    H160862   0.136   1.099  16.626 -0.7278 -1.2962  1.0189
13149TIP3    H260863   0.007   1.150  16.685 -0.5851  0.6700 -0.3168
13150TIP3   OH260864   3.090   3.738  15.386  0.5093 -0.8222  0.4602
13150TIP3    H160865   3.167   3.688  15.357  0.8790 -1.3487  2.2964
13150TIP3    H260866   3.127   3.812  15.434 -0.1287 -2.1091  3.0124
13151TIP3   OH260867   0.248   1.162  15.342 -0.3874  0.3335  0.7710
13151TIP3    H160868   0.171   1.202  15.301 -0.6750 -0.9195  0.0519
13151TIP3    H260869   0.214   1.115  15.417 -0.2713  0.0694  0.6582
13152TIP3   OH260870   0.280   1.363   5.440 -0.4013  0.2500 -0.6125
13152TIP3    H160871   0.224   1.299   5.396  0.1180 -0.2279 -0.5793
13152TIP3    H260872   0.315   1.416   5.369 -1.7414  1.2505 -0.5561
13153TIP3   OH260873   4.966   6.264  16.518  0.5659  0.5659 -0.1694
13153TIP3    H160874   5.027   6.337  16.509  1.0295  0.2195  0.1544
13153TIP3    H260875   4.969   6.242  16.611  1.3138 -0.6289 -0.4716
13154TIP3   OH260876   0.992   3.493   0.829  0.2298 -0.1181  0.0332
13154TIP3    H160877   1.045   3.470   0.906  0.0875  3.0013  1.1520
13154TIP3    H260878   0.906   3.456   0.847  0.6522 -0.8481  0.5864
13155TIP3   OH260879   2.182   0.149   3.149  0.0885 -0.2925  0.6891
13155TIP3    H160880   2.192   0.076   3.087  2.2801  1.3985 -1.0297
13155TIP3    H260881   2.272   0.173   3.171 -0.5772  2.5407  0.4305
13156TIP3   OH260882   1.657   5.615  11.372 -0.0987  0.3602 -0.1714
13156TIP3    H160883   1.613   5.642  11.291 -0.8686  0.6939  0.3561
13156TIP3    H260884   1.682   5.697  11.414  0.4946  0.1818 -0.1702
13157TIP3   OH260885   6.332   4.917   3.439 -0.2374 -0.1879  0.0586
13157TIP3    H160886   6.314   4.890   3.529 -0.2148  0.1112  0.1540
13157TIP3    H260887   6.385   4.996   3.448 -0.0851 -0.2597 -0.2186
13158TIP3   OH260888   0.517   2.208  17.198 -0.0601 -0.3265  0.3538
13158TIP3    H160889   0.428   2.186  17.172  0.2250 -1.1983  0.0933
13158TIP3    H260890   0.569   2.133  17.171  1.1408  1.1864 -1.6838
13159TIP3   OH260891   1.087   1.742   3.952 -0.0882 -0.2761 -0.0401
13159TIP3    H160892   1.148   1.673   3.924  0.8036  0.5528 -0.1511
13159TIP3    H260893   1.004   1.716   3.913  0.1619 -1.4890  0.2112
13160TIP3   OH260894   4.012   1.489  15.325 -0.1106 -0.2421 -0.2641
13160TIP3    H160895   4.037   1.437  15.402  1.2607 -1.8861 -1.7699
13160TIP3    H260896   4.056   1.446  15.252  0.4105  2.5983 -1.6931
13161TIP3   OH260897   4.398   4.853  12.918  0.1133 -0.5802 -0.6360
13161TIP3    H160898   4.459   4.923  12.892 -1.5431  0.6748 -1.2545
13161TIP3    H260899   4.454   4.781  12.944  1.8884  0.0740 -2.4709
13162TIP3   OH260900   1.251   0.299  13.036  0.3982  0.8189 -0.2189
13162TIP3    H160901   1.195   0.372  13.062 -1.2621 -0.9245  1.2875
13162TIP3    H260902   1.333   0.315  13.082 -0.2490  1.2997  0.8033
13163TIP3   OH260903   1.477   5.307   5.457  0.0152 -0.2779 -0.4447
13163TIP3    H160904   1.451   5.215   5.447 -1.8255  0.3382 -1.4277
13163TIP3    H260905   1.395   5.355   5.468  0.7993  1.5358 -2.1677
13164TIP3   OH260906   0.007   4.009  13.213 -0.1594 -0.2388 -0.9023
13164TIP3    H160907   0.102   4.020  13.209 -0.1465  0.7580  1.2980
13164TIP3    H260908  -0.028   4.092  13.179 -0.2542 -0.8170 -2.2275
13165TIP3   OH260909   4.813   2.665   1.338  0.5079  0.8974  0.2536
13165TIP3    H160910   4.824   2.754   1.372 -3.0513  1.3419  0.5085
13165TIP3    H260911   4.754   2.624   1.401 -0.7913 -0.4405 -1.7861
13166TIP3   OH260912   0.169   2.166  10.985 -0.0009  0.7651  0.0845
13166TIP3    H160913   0.108   2.221  11.034 -0.3247  1.0082 -0.5791
13166TIP3    H260914   0.156   2.191  10.893  1.1794  0.8982 -0.0601
13167TIP3   OH260915   4.448   2.855   0.207  0.0049 -0.0903  0.2156
13167TIP3    H160916   4.443   2.765   0.239  2.3271 -0.8012 -1.3424
13167TIP3    H260917   4.527   2.891   0.246 -0.7092  1.1733  0.5323
13168TIP3   OH260918   6.187   4.325  16.390 -0.4712  0.1629 -0.0259
13168TIP3    H160919   6.270   4.278  16.395 -0.2750  0.2812 -1.8413
13168TIP3    H260920   6.203   4.395  16.326 -1.9228  0.2833 -0.2763
13169TIP3   OH260921   1.846   0.930   5.424  0.6379 -0.0771 -0.4489
13169TIP3    H160922   1.908   0.996   5.455 -1.0366  1.7454 -0.8780
13169TIP3    H260923   1.762   0.976   5.419 -0.4066 -2.0251 -1.5661
13170TIP3   OH260924   0.700   2.666   4.334  0.4183 -0.6073  0.2344
13170TIP3    H160925   0.664   2.693   4.419  0.0948  0.0132 -0.1034
13170TIP3    H260926   0.789   2.701   4.333 -0.0584  0.5825 -0.2749
13171TIP3   OH260927   1.377   6.500  12.721 -0.1340 -0.3602 -0.3089
13171TIP3    H160928   1.433   6.510  12.644 -0.4708 -0.4190 -0.5606
13171TIP3    H260929   1.405   6.570  12.780 -0.1223 -0.0874 -0.6347
13172TIP3   OH260930   0.579   2.624  14.057  0.2167  0.0375 -0.0127
13172TIP3    H160931   0.585   2.710  14.016 -0.2922  1.0432  1.9772
13172TIP3    H260932   0.654   2.620  14.116 -0.4336 -0.4029  0.7911
13173TIP3   OH260933   4.732   6.322   4.611  0.5724  0.0437 -0.5169
13173TIP3    H160934   4.674   6.248   4.594  0.1624 -0.1250  1.4664
13173TIP3    H260935   4.820   6.286   4.603  0.3837 -1.1441  2.2522
13174TIP3   OH260936   2.973   0.968   5.948  0.2281 -0.1799  0.3090
13174TIP3    H160937   2.982   0.988   5.855 -0.5296  0.9579  0.4760
13174TIP3    H260938   2.880   0.947   5.959 -0.0295  1.3296  1.1187
13175TIP3   OH260939   3.772   3.857   3.134  0.4330  0.0488 -0.0528
13175TIP3    H160940   3.684   3.891   3.150  0.6233  0.5811 -0.1317
13175TIP3    H260941   3.778   3.849   3.039  0.0913 -1.0081  0.0094
13176TIP3   OH260942   4.913   4.022   3.027 -1.1564  0.1483  0.3568
13176TIP3    H160943   4.934   3.929   3.015  0.7320  0.6428 -0.3761
13176TIP3    H260944   4.850   4.042   2.958 -0.4352 -0.2369 -0.4185
13177TIP3   OH260945   4.696   6.453  11.322 -0.3149 -0.3297  0.2326
13177TIP3    H160946   4.672   6.517  11.255  1.7971  0.6279  0.3457
13177TIP3    H260947   4.642   6.476  11.398  1.4553  2.3093  0.7662
13178TIP3   OH260948   2.025   1.771   2.274  0.0812 -0.1236 -0.0239
13178TIP3    H160949   1.956   1.812   2.326 -0.4578 -0.3990 -0.5064
13178TIP3    H260950   2.038   1.685   2.314  0.9931  0.3930  0.7988
13179TIP3   OH260951   4.810   4.201  13.957 -0.4376  0.2506 -0.7937
13179TIP3    H160952   4.800   4.176  13.866  0.1316  0.5804 -0.9497
13179TIP3    H260953   4.895   4.244  13.961 -0.5366  0.3968 -0.1435
13180TIP3   OH260954   5.980   6.733  16.665 -0.5346  0.2533  0.5650
13180TIP3    H160955   5.928   6.770  16.593 -0.5301 -0.8441 -0.0095
13180TIP3    H260956   6.011   6.810  16.713 -0.1239  1.0267 -0.8948
13181TIP3   OH260957   5.532   2.122   0.835 -0.1388  0.4331  0.6721
13181TIP3    H160958   5.557   2.183   0.904 -4.3098  0.4927  2.2753
13181TIP3    H260959   5.436   2.120   0.838 -0.2990 -2.2792 -2.7871
13182TIP3   OH260960   0.448   4.395   2.729  0.4027 -0.2987 -0.3299
13182TIP3    H160961   0.417   4.345   2.804 -1.7882  1.8020  0.2166
13182TIP3    H260962   0.481   4.477   2.766 -0.4076  0.6165 -1.5717
13183TIP3   OH260963   1.773   1.931   3.947 -0.6328  0.3553 -0.1119
13183TIP3    H160964   1.719   1.999   3.986 -2.1796 -2.6570  3.3266
13183TIP3    H260965   1.711   1.863   3.922  1.2457 -1.9378  1.2541
13184TIP3   OH260966   3.193   4.424   2.689  0.3797 -0.3789 -0.0265
13184TIP3    H160967   3.234   4.422   2.602  4.1707  0.7072  1.6362
13184TIP3    H260968   3.113   4.474   2.677  0.6522 -0.5780 -2.9839
13185TIP3   OH260969   5.102   3.002  11.528  0.0712  0.1363 -0.2127
13185TIP3    H160970   5.065   3.090  11.538 -1.5460 -0.4836 -0.6911
13185TIP3    H260971   5.032   2.943  11.554  1.8153 -0.9927  2.0980
13186TIP3   OH260972   5.725   1.235  16.121  0.0535 -0.0561 -0.2811
13186TIP3    H160973   5.808   1.218  16.166 -0.0921  1.1656  0.4591
13186TIP3    H260974   5.658   1.211  16.184 -0.1464  1.0487 -0.0546
13187TIP3   OH260975   2.054   1.285   4.248  0.1676 -0.2293 -1.0615
13187TIP3    H160976   2.093   1.244   4.325 -0.2894 -1.3224 -1.4000
13187TIP3    H260977   2.104   1.365   4.235  2.0125 -1.3814 -1.2230
13188TIP3   OH260978   2.904   3.260  11.383 -0.0173 -0.7906  0.4598
13188TIP3    H160979   2.985   3.308  11.370  1.0115 -2.9051 -1.1626
13188TIP3    H260980   2.910   3.225  11.472 -0.2382  1.0389  1.2075
13189TIP3   OH260981   3.826   0.306   4.119  0.3265  0.1422 -0.2677
13189TIP3    H160982   3.747   0.294   4.170  1.4685 -0.7949  1.3051
13189TIP3    H260983   3.817   0.394   4.081 -1.3533  0.1171  0.0597
13190TIP3   OH260984   4.108   2.067   1.552  0.1442  0.0737  0.3666
13190TIP3    H160985   4.196   2.047   1.584  0.6903 -2.2424 -2.4650
13190TIP3    H260986   4.053   1.999   1.589 -0.0843  0.2372  0.3303
13191TIP3   OH260987   0.217   5.715   3.323  0.0259 -0.7033  0.0312
13191TIP3    H160988   0.216   5.807   3.348 -2.1386 -0.4453 -0.9719
13191TIP3    H260989   0.231   5.668   3.406  1.1176  0.5090  0.5398
13192TIP3   OH260990   2.321   0.570   5.823 -0.0583  0.1737  0.0942
13192TIP3    H160991   2.233   0.568   5.859 -0.2894 -0.6319 -0.4934
13192TIP3    H260992   2.366   0.495   5.863 -0.0109 -0.1287 -0.5163
13193TIP3   OH260993   3.570   0.975   6.125  0.0573 -0.3324  0.3459
13193TIP3    H160994   3.538   0.892   6.090  0.6561 -0.2536 -0.4012
13193TIP3    H260995   3.577   0.961   6.219 -0.0231 -1.0611  0.2422
13194TIP3   OH260996   0.657   6.226  11.925  0.3088  0.1890 -0.6686
13194TIP3    H160997   0.735   6.177  11.900  1.8208  0.4037  3.1677
13194TIP3    H260998   0.678   6.317  11.905  0.8697  0.1923 -0.0759
13195TIP3   OH260999   4.070   0.706   6.225 -0.3902  0.4705  0.0414
13195TIP3    H161000   3.993   0.678   6.273 -0.9356 -0.7542 -1.4992
13195TIP3    H261001   4.036   0.745   6.144  0.5701  0.4868 -0.3699
13196TIP3   OH261002   0.741   3.562   4.869 -0.2649 -0.2629 -0.4303
13196TIP3    H161003   0.725   3.470   4.846  1.8252 -0.9935  0.8392
13196TIP3    H261004   0.659   3.607   4.847 -1.4621 -2.4931 -0.7226
13197TIP3   OH261005   5.275   2.725  16.521 -0.2359  0.1154 -0.2215
13197TIP3    H161006   5.275   2.658  16.589 -0.4527  0.4671  0.1293
13197TIP3    H261007   5.256   2.677  16.440 -2.7867  0.0475  0.3556
13198TIP3   OH261008   0.695   3.783  11.133  0.0473  0.1732  0.0478
13198TIP3    H161009   0.761   3.754  11.197 -0.7014 -0.5436  0.5120
13198TIP3    H261010   0.696   3.716  11.065 -1.5173 -0.8439  0.9991
13199TIP3   OH261011   1.812   5.646  13.620 -0.8096  0.6712  0.1150
13199TIP3    H161012   1.838   5.643  13.712 -0.7844 -0.2513  0.0849
13199TIP3    H261013   1.889   5.614  13.573 -0.9456  0.8086 -0.2008
13200TIP3   OH261014   5.786   5.715  16.242 -0.5660  0.3338 -0.3103
13200TIP3    H161015   5.812   5.715  16.150  1.0127 -0.4588  0.1254
13200TIP3    H261016   5.690   5.710  16.239 -0.5578  0.7219 -1.9057
13201TIP3   OH261017   5.463   3.005   3.986 -0.2802  0.2760 -0.2027
13201TIP3    H161018   5.514   2.965   3.915 -0.9322  0.3418 -0.7106
13201TIP3    H261019   5.460   3.098   3.965  0.1725  0.4140  0.3200
13202TIP3   OH261020   6.579   5.999  14.430  0.5509 -0.4412  0.4455
13202TIP3    H161021   6.491   5.961  14.433  0.9857 -1.3901  2.1066
13202TIP3    H261022   6.568   6.090  14.457 -0.3998  0.4992 -2.8452
13203TIP3   OH261023   1.776   6.313   3.523  0.1377 -0.2193  0.1815
13203TIP3    H161024   1.818   6.384   3.570 -0.4552  0.5009 -0.3660
13203TIP3    H261025   1.846   6.272   3.473  0.7901 -1.0503  1.7477
13204TIP3   OH261026   1.414   5.115   3.288  0.3418 -0.2604  0.4002
13204TIP3    H161027   1.503   5.126   3.256 -0.4135  2.4196 -1.0084
13204TIP3    H261028   1.383   5.205   3.303 -1.7869 -1.1811  1.7714
13205TIP3   OH261029   0.430   6.393  15.210  0.0892 -0.4031 -0.5847
13205TIP3    H161030   0.401   6.401  15.119  1.4319  1.1803 -0.8973
13205TIP3    H261031   0.377   6.323  15.246 -0.8823 -0.6429 -2.4294
13206TIP3   OH261032   2.474   3.776   2.825 -0.1335 -0.3151 -0.9006
13206TIP3    H161033   2.506   3.867   2.823 -1.7647  0.3215  0.7705
13206TIP3    H261034   2.485   3.745   2.735 -0.4134  1.8531 -1.7133
13207TIP3   OH261035   1.752   3.847   6.486  0.0743  0.2266 -0.2866
13207TIP3    H161036   1.660   3.831   6.508  0.6118 -2.3009  0.2799
13207TIP3    H261037   1.750   3.869   6.393 -1.1182  0.2320 -0.2734
13208TIP3   OH261038   0.456   0.465   5.864 -0.2806  0.0564  0.1293
13208TIP3    H161039   0.370   0.496   5.833 -0.3695 -0.8018 -0.5199
13208TIP3    H261040   0.453   0.370   5.848 -0.2971 -0.4069  2.7236
13209TIP3   OH261041   2.872   0.909   1.583  0.0202 -0.8193 -0.3425
13209TIP3    H161042   2.924   0.909   1.663  0.4268 -0.6448 -0.6064
13209TIP3    H261043   2.811   0.835   1.594 -1.7568  0.8353  1.2977
13210TIP3   OH261044   0.801   1.269  13.565  0.0857 -0.1580 -0.2850
13210TIP3    H161045   0.871   1.300  13.622 -0.3886  0.9618 -0.3193
13210TIP3    H261046   0.845   1.251  13.481  0.5294 -0.5390  0.0254
13211TIP3   OH261047   1.127   4.722  13.626  0.0107  0.2428 -0.1907
13211TIP3    H161048   1.171   4.730  13.541  0.3212  0.1932 -0.0347
13211TIP3    H261049   1.189   4.759  13.689 -0.8306  1.7090 -0.1766
13212TIP3   OH261050   1.743   5.590   4.798  0.6477 -0.2332  0.3376
13212TIP3    H161051   1.808   5.520   4.801  1.5339  0.5181 -1.1391
13212TIP3    H261052   1.660   5.544   4.780  0.8958 -1.0905  1.3277
13213TIP3   OH261053   0.780   3.661   3.517  0.1183  0.3146  0.0363
13213TIP3    H161054   0.830   3.740   3.536 -0.6907  0.7387  0.3862
13213TIP3    H261055   0.836   3.589   3.547 -0.3450  0.8773  2.3060
13214TIP3   OH261056   6.767   5.566  16.865 -0.5244 -0.3751  1.1873
13214TIP3    H161057   6.767   5.641  16.925  1.3516  1.2191 -0.7035
13214TIP3    H261058   6.721   5.598  16.787 -1.2486 -1.7737  1.0320
13215TIP3   OH261059   2.412   5.796  16.042 -0.4717 -0.2622  0.1560
13215TIP3    H161060   2.488   5.751  16.005 -0.6856 -0.6111  0.1440
13215TIP3    H261061   2.434   5.889  16.034 -0.8702 -0.3105 -1.5791
13216TIP3   OH261062   5.226   5.575  16.878  0.4219 -0.2139  0.2072
13216TIP3    H161063   5.257   5.533  16.798  0.1636 -2.7596  1.4088
13216TIP3    H261064   5.282   5.540  16.947  0.3963  1.6678  1.2102
13217TIP3   OH261065   2.303   3.640   5.758 -0.1420 -0.1655 -0.5088
13217TIP3    H161066   2.209   3.634   5.741 -0.1658 -0.6214 -0.2042
13217TIP3    H261067   2.344   3.617   5.674 -0.2850 -1.0229 -0.3434
13218TIP3   OH261068   1.963   4.510   0.938  0.0630 -0.6058  0.6594
13218TIP3    H161069   2.033   4.495   1.001 -0.3439 -0.3052  1.1989
13218TIP3    H261070   1.893   4.551   0.990 -0.0730  0.1426 -0.0964
13219TIP3   OH261071   4.427   2.648   3.473  0.0401 -0.1819  0.1309
13219TIP3    H161072   4.487   2.585   3.512  1.4310  0.5066 -0.8654
13219TIP3    H261073   4.459   2.734   3.501 -0.6022  0.1899 -0.2316
13220TIP3   OH261074   0.846   6.685  11.405  0.2461  0.2172  0.1316
13220TIP3    H161075   0.886   6.643  11.329  0.9823  1.0619  0.0486
13220TIP3    H261076   0.758   6.647  11.409  0.0959  0.3717 -1.3163
13221TIP3   OH261077   2.343   3.658  14.084  0.2535  0.2758  0.3901
13221TIP3    H161078   2.318   3.690  14.171 -0.3120 -1.1081  0.7444
13221TIP3    H261079   2.354   3.564  14.096  0.7936  0.1782 -0.9010
13222TIP3   OH261080   1.113   3.007   4.881 -0.0206 -0.1297  0.3017
13222TIP3    H161081   1.041   3.048   4.834 -0.4065 -0.9860  0.1262
13222TIP3    H261082   1.079   2.990   4.969  0.4790  0.8629  0.6880
13223TIP3   OH261083   2.169   3.795   5.436  0.5462 -0.2361 -0.3673
13223TIP3    H161084   2.247   3.749   5.466 -0.7788 -1.4958  1.2505
13223TIP3    H261085   2.125   3.733   5.378  0.9691  0.6593 -1.6851
13224TIP3   OH261086   5.192   1.421  11.792  0.0194  0.4325 -0.1591
13224TIP3    H161087   5.234   1.490  11.844 -2.3046  0.8041  1.3005
13224TIP3    H261088   5.098   1.432  11.809 -0.4803 -2.2498 -0.9485
13225TIP3   OH261089   5.819   1.346  12.356  0.1590 -0.2976  0.1129
13225TIP3    H161090   5.730   1.359  12.388  1.4447 -0.9156  4.2291
13225TIP3    H261091   5.810   1.281  12.286 -2.4697 -1.4669  1.4684
13226TIP3   OH261092   6.617   6.475  15.272 -0.2908  0.3162 -0.1385
13226TIP3    H161093   6.639   6.568  15.274 -2.1298  0.8018 -1.3580
13226TIP3    H261094   6.700   6.431  15.251  0.9176  1.5185  1.9383
13227TIP3   OH261095   0.079   1.281   0.258 -0.4707 -0.0326  0.0156
13227TIP3    H161096   0.126   1.364   0.248 -0.0949 -0.0543  1.3952
13227TIP3    H261097   0.019   1.297   0.332 -1.3332 -0.5808 -0.5567
13228TIP3   OH261098   1.588   4.779   2.980 -0.2518 -0.2672  0.7703
13228TIP3    H161099   1.510   4.764   2.927  1.1322  0.6740 -1.6172
13228TIP3    H261100   1.619   4.691   3.002  1.1697 -0.8183 -3.1109
13229TIP3   OH261101   1.081   4.136   4.277  0.5111  0.3814 -0.1465
13229TIP3    H161102   1.147   4.080   4.236 -0.9413 -2.0329  0.7158
13229TIP3    H261103   1.123   4.167   4.357  0.1753 -2.1856  1.0552
13230TIP3   OH261104   3.497   0.886  14.660  0.0715  0.1449 -0.6149
13230TIP3    H161105   3.569   0.828  14.684  0.2750  0.5709 -0.1908
13230TIP3    H261106   3.522   0.972  14.694 -0.1860  0.5041 -1.3182
13231TIP3   OH261107   2.124   5.265  13.739 -0.3814  0.7766 -0.7252
13231TIP3    H161108   2.059   5.209  13.698 -0.9225  0.7606  0.1433
13231TIP3    H261109   2.181   5.205  13.788  0.8036  0.7001 -2.1501
13232TIP3   OH261110   3.771   5.232  14.525 -0.6099  1.0420  0.6498
13232TIP3    H161111   3.820   5.213  14.446  1.6337  2.3458  1.6606
13232TIP3    H261112   3.700   5.290  14.496 -0.4455  0.6438 -0.5613
13233TIP3   OH261113   4.104   2.681   1.762 -0.0937  0.1317 -0.1385
13233TIP3    H161114   4.017   2.655   1.792 -0.1276  1.7276  1.1405
13233TIP3    H261115   4.150   2.712   1.840  1.1281  0.6995 -1.0480
13234TIP3   OH261116   1.978   1.677  16.764  0.0316  0.6436  0.0558
13234TIP3    H161117   1.910   1.642  16.822  0.3491 -1.4820 -0.8295
13234TIP3    H261118   1.986   1.769  16.790 -1.1000  0.1822  2.1547
13235TIP3   OH261119   6.038   2.412  14.668  0.1269 -0.2589  0.3744
13235TIP3    H161120   5.968   2.377  14.612  0.1164  0.8126 -0.2988
13235TIP3    H261121   6.102   2.341  14.672 -1.1026 -1.3507  1.2152
13236TIP3   OH261122   4.603   4.712  15.172  0.3444  0.5913  0.0423
13236TIP3    H161123   4.549   4.742  15.099 -2.3381 -2.7791  0.5263
13236TIP3    H261124   4.546   4.721  15.249  1.5266 -0.2475  1.0278
13237TIP3   OH261125   0.044   5.863   1.444  0.0887  0.4636 -0.5712
13237TIP3    H161126   0.024   5.794   1.381 -0.2099  1.1817 -1.2740
13237TIP3    H261127   0.139   5.874   1.439 -0.0184  1.0370 -1.4556
13238TIP3   OH261128   1.429   2.294  14.385 -0.1337  0.2975 -0.0326
13238TIP3    H161129   1.440   2.212  14.337 -1.5776 -0.0187  0.1569
13238TIP3    H261130   1.518   2.320  14.409  0.8140  1.2485 -4.1868
13239TIP3   OH261131   2.331   2.449   5.030 -0.3375 -0.4135  0.0289
13239TIP3    H161132   2.342   2.452   5.125  0.4778  1.9792 -0.1088
13239TIP3    H261133   2.416   2.418   4.997 -0.1845  0.0133  0.0174
13240TIP3   OH261134   6.459   5.310   0.763 -0.1807  0.0888 -0.2761
13240TIP3    H161135   6.551   5.320   0.786 -0.1687  0.3747 -0.4412
13240TIP3    H261136   6.423   5.250   0.829  0.4447 -1.1324 -1.0261
13241TIP3   OH261137   5.653   2.817  15.948  0.1357  0.2904  0.4370
13241TIP3    H161138   5.623   2.844  16.035  0.0263 -1.1929  0.8724
13241TIP3    H261139   5.573   2.798  15.900  0.2371 -0.2658  0.4787
13242TIP3   OH261140   5.650   5.313   5.650  0.2361  0.0258  0.5176
13242TIP3    H161141   5.665   5.262   5.570  0.8011  1.3137 -0.2129
13242TIP3    H261142   5.686   5.260   5.720  0.4600 -0.7554 -0.1860
13243TIP3   OH261143   2.386   3.866   1.900  0.0786  0.3264  0.1593
13243TIP3    H161144   2.431   3.892   1.980  0.6723 -1.8929  0.5762
13243TIP3    H261145   2.318   3.805   1.928 -0.7591  0.7485 -0.8743
13244TIP3   OH261146   5.975   3.726  11.813 -0.4319  0.4878  0.4045
13244TIP3    H161147   5.885   3.725  11.783 -0.6386 -0.4951  1.0616
13244TIP3    H261148   5.988   3.642  11.857  0.8274  0.5710  0.2324
13245TIP3   OH261149   6.603   6.277   1.824  0.2051 -0.3550  0.4285
13245TIP3    H161150   6.580   6.224   1.900  0.0607 -0.4689  0.3034
13245TIP3    H261151   6.532   6.341   1.817 -0.5907 -1.3409 -0.5638
13246TIP3   OH261152   5.200   4.697   4.977  0.1688 -0.6401  0.0656
13246TIP3    H161153   5.175   4.676   4.888  0.2535 -2.7279  0.5234
13246TIP3    H261154   5.118   4.719   5.021  0.2059  1.0728 -0.6817
13247TIP3   OH261155   5.176   5.671  15.405 -0.9930  0.4212  0.1414
13247TIP3    H161156   5.257   5.713  15.378 -0.2232 -1.6949 -0.9549
13247TIP3    H261157   5.113   5.695  15.337 -1.0333  1.2437  0.4626
13248TIP3   OH261158   3.225   1.936  16.125 -0.4191 -0.4904 -0.0706
13248TIP3    H161159   3.131   1.947  16.139 -0.6273 -2.8687  0.6000
13248TIP3    H261160   3.235   1.845  16.098  1.7960 -0.5423  0.8419
13249TIP3   OH261161   6.027   0.725   6.191  0.2409 -0.1659  0.1703
13249TIP3    H161162   6.009   0.631   6.197  1.4294 -0.3475  0.9108
13249TIP3    H261163   5.943   0.766   6.212 -0.7006 -1.0652 -1.7112
13250TIP3   OH261164   1.096   6.634  14.076  0.1675 -0.4104 -0.6989
13250TIP3    H161165   1.000   6.631  14.071  0.1786 -0.3586 -0.9269
13250TIP3    H261166   1.126   6.588  13.998  0.3264  0.9619 -1.4702
13251TIP3   OH261167   3.043   5.000   6.015  0.3366  0.0604  0.8397
13251TIP3    H161168   3.131   5.032   6.030  1.0481 -1.0344 -0.8115
13251TIP3    H261169   3.021   5.030   5.926 -0.0192 -1.6691  0.3180
13252TIP3   OH261170   3.812   5.909  16.930 -0.1782  0.5599  0.5983
13252TIP3    H161171   3.905   5.930  16.937  0.5426 -2.6085  1.3588
13252TIP3    H261172   3.805   5.855  16.851 -1.1764 -0.0400  1.0769
13253TIP3   OH261173   4.532   0.128   4.485 -0.2188 -0.5230 -0.4947
13253TIP3    H161174   4.607   0.175   4.520  0.5583 -1.7486 -0.4700
13253TIP3    H261175   4.456   0.177   4.515  0.5775  0.7351 -0.5343
13254TIP3   OH261176   1.646   0.132  12.519 -0.2478 -0.3635  0.5137
13254TIP3    H161177   1.665   0.038  12.515 -0.6842 -0.4665  0.8786
13254TIP3    H261178   1.654   0.155  12.611  1.5178  0.3129  0.2162
13255TIP3   OH261179   6.671   0.244   1.803 -0.9505  0.2617  0.8494
13255TIP3    H161180   6.590   0.205   1.834 -1.0550 -0.3910 -0.2165
13255TIP3    H261181   6.736   0.174   1.812 -1.7415 -1.1994 -3.8312
13256TIP3   OH261182   1.550   4.261  11.919 -0.2402  0.1863  0.4838
13256TIP3    H161183   1.505   4.298  11.995 -0.8326 -0.8166  0.6335
13256TIP3    H261184   1.643   4.265  11.941 -0.3542  0.8355  0.8356
13257TIP3   OH261185   6.622   6.541  14.973 -0.1408 -0.1615 -0.2279
13257TIP3    H161186   6.546   6.582  15.013  0.2899  0.7521 -0.3336
13257TIP3    H261187   6.609   6.447  14.986 -1.1432  0.0119 -0.0042
13258TIP3   OH261188   1.202   3.752   3.541 -0.2780 -0.6218  0.1115
13258TIP3    H161189   1.173   3.808   3.468  0.3080  0.5052  0.7341
13258TIP3    H261190   1.244   3.677   3.498 -0.3438 -0.1935 -0.7174
13259TIP3   OH261191   1.120   3.790  16.912  0.0649  0.5243 -0.2429
13259TIP3    H161192   1.047   3.841  16.948 -0.1918  0.4757 -0.6930
13259TIP3    H261193   1.080   3.709  16.880  0.0941  1.0906 -1.7759
13260TIP3   OH261194   5.938   6.299   5.118  0.1099 -0.1337 -0.1752
13260TIP3    H161195   6.007   6.363   5.100 -0.1135  0.2425  0.2803
13260TIP3    H261196   5.883   6.300   5.039  0.0830  0.2747 -0.1539
13261TIP3   OH261197   5.563   6.486   0.772 -0.1144  0.1141 -0.3022
13261TIP3    H161198   5.623   6.428   0.725  0.0069 -0.0845  0.0861
13261TIP3    H261199   5.508   6.524   0.705  0.4807  0.3327 -0.6689
13262TIP3   OH261200   4.223   4.704  12.760  0.0324  0.2159 -0.5268
13262TIP3    H161201   4.176   4.664  12.833 -0.5303  0.6091 -0.6701
13262TIP3    H261202   4.289   4.760  12.801 -0.5722  0.7778 -0.3180
13263TIP3   OH261203   5.773   0.377  15.604 -0.3373  0.3800 -0.3201
13263TIP3    H161204   5.699   0.323  15.575 -2.6857  2.9497  0.6073
13263TIP3    H261205   5.843   0.315  15.621 -2.1583 -2.1294 -1.6158
13264TIP3   OH261206   3.863   4.505  16.325 -0.1537 -0.7704  0.0618
13264TIP3    H161207   3.785   4.491  16.378 -1.6669  1.3886 -1.5118
13264TIP3    H261208   3.859   4.598  16.301  2.9171 -0.6204 -0.0308
13265TIP3   OH261209   6.380   3.931  17.047  0.1506 -0.1375 -0.0364
13265TIP3    H161210   6.447   3.973  16.994  0.1099  0.4560  0.3787
13265TIP3    H261211   6.395   3.963  17.135 -2.4438  2.3033 -0.3860
13266TIP3   OH261212   3.029   0.067   0.168  0.5764  1.0307 -0.4475
13266TIP3    H161213   2.990   0.154   0.155  0.8170  0.9326 -1.9188
13266TIP3    H261214   2.954   0.010   0.182  0.2728  1.1452 -1.5089
13267TIP3   OH261215   0.278   3.094   0.851 -0.0032  0.4155 -0.1072
13267TIP3    H161216   0.277   3.075   0.945  0.4614 -0.7645 -0.3340
13267TIP3    H261217   0.340   3.031   0.814 -1.8543 -0.6449 -1.5086
13268TIP3   OH261218   6.596   2.456   1.586  0.3173  0.0166 -0.2260
13268TIP3    H161219   6.626   2.543   1.559 -0.9808  0.8227  0.8024
13268TIP3    H261220   6.640   2.440   1.669  2.1092 -1.2063 -1.3886
13269TIP3   OH261221   6.326   0.627   0.264 -0.3342 -0.7974 -0.4656
13269TIP3    H161222   6.236   0.641   0.235 -0.5855 -2.0759 -0.3175
13269TIP3    H261223   6.374   0.610   0.183 -0.6130 -2.1263 -0.3602
13270TIP3   OH261224   2.500   0.186   4.111  0.4288 -0.5137 -0.1660
13270TIP3    H161225   2.570   0.243   4.079  1.6676 -2.4374 -0.9762
13270TIP3    H261226   2.504   0.194   4.206  0.6182  0.6974 -0.2667
13271TIP3   OH261227   2.019   2.416  12.298 -0.4012 -0.3953 -0.3778
13271TIP3    H161228   2.008   2.332  12.342 -3.0908 -0.0198 -0.2656
13271TIP3    H261229   2.041   2.477  12.368  1.1441 -0.8837 -0.4043
13272TIP3   OH261230   0.076   1.372  17.094  0.3363 -0.2798 -0.2341
13272TIP3    H161231   0.131   1.449  17.084 -0.5216  0.4837  0.8151
13272TIP3    H261232   0.135   1.303  17.123  1.2914 -0.3064 -2.1576
13273TIP3   OH261233   0.846   3.656   1.163  0.6193 -0.1127  0.1621
13273TIP3    H161234   0.769   3.692   1.206  0.5848  1.2152 -0.9594
13273TIP3    H261235   0.896   3.734   1.136  0.7977 -0.9061 -1.8790
13274TIP3   OH261236   3.971   0.364   5.382 -0.0198  0.6512  0.4057
13274TIP3    H161237   4.005   0.328   5.464 -2.7992 -0.3731  1.1708
13274TIP3    H261238   3.923   0.443   5.408  0.9034  1.5565 -0.5397
13275TIP3   OH261239   4.474   4.750  14.252 -0.2085 -0.0652  0.0192
13275TIP3    H161240   4.516   4.775  14.170 -0.2440 -1.4593 -0.4313
13275TIP3    H261241   4.438   4.832  14.285 -1.1668  0.3505 -1.9248
13276TIP3   OH261242   4.451   2.163  16.422  0.3817 -0.6665  0.0538
13276TIP3    H161243   4.493   2.218  16.488  0.3011 -1.6306  0.9125
13276TIP3    H261244   4.359   2.189  16.424  0.3583 -0.7698  0.4018
13277TIP3   OH261245   6.272   6.157  12.489 -0.3080 -0.0800 -0.4442
13277TIP3    H161246   6.304   6.079  12.534  0.2876 -0.3055 -1.2465
13277TIP3    H261247   6.350   6.213  12.479 -0.5011  0.1130 -0.8922
13278TIP3   OH261248   2.280   5.835  15.763 -0.2302 -0.2741  0.1676
13278TIP3    H161249   2.336   5.912  15.752  0.0192 -0.4504  0.1819
13278TIP3    H261250   2.227   5.832  15.683  0.1535 -0.4024 -0.0881
13279TIP3   OH261251   3.511   3.696  14.193 -0.5264  0.6368 -0.3769
13279TIP3    H161252   3.476   3.609  14.212 -0.6653  0.3881 -1.7035
13279TIP3    H261253   3.487   3.712  14.101  2.0922  0.8028 -1.0800
13280TIP3   OH261254   3.834   5.688  15.325 -0.4140 -0.0512 -0.3499
13280TIP3    H161255   3.771   5.689  15.397  1.6530 -0.3695  1.5251
13280TIP3    H261256   3.913   5.650  15.363  1.3962  1.6764 -2.2601
13281TIP3   OH261257   5.842   2.619  14.552  0.3779 -0.3605 -0.4664
13281TIP3    H161258   5.856   2.709  14.581 -1.0325  0.2137 -1.4798
13281TIP3    H261259   5.853   2.566  14.631 -1.4293  0.9673  0.7229
13282TIP3   OH261260   0.880   4.033   6.029 -0.2194 -0.5287 -0.0428
13282TIP3    H161261   0.890   4.128   6.020 -0.0334 -0.4837  0.6322
13282TIP3    H261262   0.964   3.997   5.999 -0.0594 -0.4449  0.3019
13283TIP3   OH261263   4.344   1.179   3.193  0.2135 -0.6155  0.1259
13283TIP3    H161264   4.302   1.205   3.111  0.1447  1.0057  0.6499
13283TIP3    H261265   4.301   1.097   3.217 -1.1723 -0.0847 -0.4476
13284TIP3   OH261266   3.709   5.451   1.831  0.0205  0.2422 -0.1021
13284TIP3    H161267   3.664   5.413   1.906 -0.9647  0.7867 -0.4138
13284TIP3    H261268   3.714   5.544   1.850 -0.4572  0.4241 -0.8205
13285TIP3   OH261269   5.895   4.757   4.988 -0.0332  0.2899 -0.1944
13285TIP3    H161270   5.821   4.742   5.047 -0.4815  1.6845 -0.3983
13285TIP3    H261271   5.855   4.773   4.903  0.4995  0.9358 -0.3294
13286TIP3   OH261272   0.486   1.065   1.776 -0.4642 -0.4076 -0.2612
13286TIP3    H161273   0.520   1.140   1.728  0.3424 -0.3083  0.4434
13286TIP3    H261274   0.419   1.101   1.834  0.1474 -0.1710  0.3090
13287TIP3   OH261275   5.558   4.058  16.512 -0.1799  0.0560 -0.8106
13287TIP3    H161276   5.614   4.121  16.466  0.3287 -0.5968 -1.0947
13287TIP3    H261277   5.617   4.012  16.571 -0.5090 -0.2906 -0.7490
13288TIP3   OH261278   2.218   5.227   5.567  0.0745  0.5994  0.2443
13288TIP3    H161279   2.305   5.264   5.579 -0.0467  1.2766 -0.9216
13288TIP3    H261280   2.158   5.297   5.593 -0.1338  0.5308 -0.0453
13289TIP3   OH261281   4.566   0.098   0.244 -1.0654 -0.0690  0.3874
13289TIP3    H161282   4.631   0.039   0.206 -1.2202  0.6103 -0.9420
13289TIP3    H261283   4.534   0.051   0.321 -0.6780 -1.4165 -0.2550
13290TIP3   OH261284   5.098   2.651   0.612 -0.9950 -0.4030 -0.6443
13290TIP3    H161285   5.067   2.634   0.701 -0.6856  1.7474 -0.0938
13290TIP3    H261286   5.019   2.647   0.558 -1.4145 -0.2857 -0.0458
13291TIP3   OH261287   3.276   5.276   0.623 -0.1417 -0.7645  0.5210
13291TIP3    H161288   3.284   5.363   0.661 -2.4873 -0.3859  0.1964
13291TIP3    H261289   3.184   5.254   0.632 -0.2211 -1.8399 -2.3772
13292TIP3   OH261290   1.712   5.283  13.597  0.1845 -0.3404  0.2381
13292TIP3    H161291   1.673   5.196  13.595  0.3521 -0.4977  2.5119
13292TIP3    H261292   1.754   5.289  13.683 -0.0569  2.0758  0.2316
13293TIP3   OH261293   6.262   0.086   4.989  0.3152  0.3750 -0.2228
13293TIP3    H161294   6.348   0.103   4.951 -0.4836  1.5000 -1.5787
13293TIP3    H261295   6.213   0.044   4.919 -1.0607  2.1357 -0.3493
13294TIP3   OH261296   2.177   1.045  12.508 -0.3792 -0.1137 -0.4674
13294TIP3    H161297   2.195   1.119  12.450  0.6575  0.5052  0.6001
13294TIP3    H261298   2.171   0.970  12.450  2.5918  0.1651 -1.2620
13295TIP3   OH261299   4.108   1.579   0.098  0.6966  0.1631  0.5003
13295TIP3    H161300   4.055   1.600   0.021  0.1611 -0.2745  0.7463
13295TIP3    H261301   4.197   1.570   0.063  0.6725  1.2673  0.1480
13296TIP3   OH261302   2.602   5.059  14.767  0.1647  0.0821  0.1814
13296TIP3    H161303   2.673   5.001  14.797  2.0618  2.6296  0.8625
13296TIP3    H261304   2.562   5.091  14.848  0.7623  1.5934 -0.0951
13297TIP3   OH261305   3.575   3.833  11.870 -0.0984  0.4235  0.4353
13297TIP3    H161306   3.660   3.854  11.909  0.3352  1.7785 -1.1813
13297TIP3    H261307   3.527   3.915  11.871 -1.3667 -0.3246  1.2661
13298TIP3   OH261308   6.421   0.861  14.274 -0.4770  1.1229  0.1994
13298TIP3    H161309   6.371   0.907  14.206  0.6272  1.4462 -0.3971
13298TIP3    H261310   6.507   0.902  14.273  0.1743 -0.2047  0.4193
13299TIP3   OH261311   4.429   5.341   5.078 -0.3600 -0.3502 -0.0232
13299TIP3    H161312   4.414   5.398   5.153 -2.6358 -2.0628  0.8706
13299TIP3    H261313   4.525   5.340   5.068 -0.2813  4.0862 -0.5164
13300TIP3   OH261314   0.492   3.933  13.324  0.1813  0.3824 -0.5736
13300TIP3    H161315   0.466   3.936  13.416 -0.6218  1.9610 -0.8378
13300TIP3    H261316   0.410   3.917  13.277  0.3423  1.1397 -1.1216
13301TIP3   OH261317   5.080   0.662   3.393 -0.5502  0.4995  0.3821
13301TIP3    H161318   5.002   0.708   3.364 -1.2743 -0.5419  0.6469
13301TIP3    H261319   5.049   0.599   3.458  0.3153 -0.7857 -0.4197
13302TIP3   OH261320   5.323   6.285   2.859 -0.0980  0.0960  0.5445
13302TIP3    H161321   5.371   6.338   2.923 -0.1207  0.6996  0.0619
13302TIP3    H261322   5.312   6.200   2.902  1.6370 -0.1398  0.5614
13303TIP3   OH261323   2.707   3.442   2.864 -0.6005 -0.2822  0.0077
13303TIP3    H161324   2.685   3.407   2.777  0.8393 -0.9669 -0.0916
13303TIP3    H261325   2.624   3.440   2.912 -1.6673  1.1869 -1.7068
13304TIP3   OH261326   4.886   0.854  14.352  0.2952  0.1351 -0.3421
13304TIP3    H161327   4.863   0.779  14.296  1.6919 -1.7090  1.4597
13304TIP3    H261328   4.910   0.923  14.291 -1.3218 -0.7743 -2.0675
13305TIP3   OH261329   5.799   3.390  15.991 -0.2353 -0.1199 -0.0205
13305TIP3    H161330   5.711   3.387  16.029 -0.7670  1.5268 -1.0358
13305TIP3    H261331   5.791   3.344  15.907 -0.5966  1.5410 -0.9308
13306TIP3   OH261332   3.989   5.620   0.937 -0.0374 -0.1595  0.4617
13306TIP3    H161333   3.916   5.579   0.890 -0.3075 -0.2693  0.9656
13306TIP3    H261334   3.988   5.578   1.023  0.7648 -0.3187  0.3929
13307TIP3   OH261335   3.115   3.702  11.110 -0.0478 -0.0059  0.0984
13307TIP3    H161336   3.050   3.768  11.086 -3.6064 -3.6210 -0.7975
13307TIP3    H261337   3.112   3.637  11.039  1.9884 -2.0592  1.7845
13308TIP3   OH261338   2.231   6.079   1.402  0.4120  0.1751 -0.0644
13308TIP3    H161339   2.295   6.118   1.461  0.8491  1.5510 -1.4482
13308TIP3    H261340   2.147   6.115   1.430  0.7795  1.9052 -1.1499
13309TIP3   OH261341   0.850   1.724   4.897  0.3212 -0.8112 -0.1848
13309TIP3    H161342   0.871   1.632   4.910  0.6424 -0.6512  0.4814
13309TIP3    H261343   0.756   1.725   4.877 -0.3499 -1.0581  2.6945
13310TIP3   OH261344   1.607   3.426  11.053 -0.4062  0.5828 -0.1938
13310TIP3    H161345   1.606   3.458  11.143 -1.1975 -1.1087  0.4006
13310TIP3    H261346   1.690   3.458  11.017 -0.9052  2.8125  0.5511
13311TIP3   OH261347   1.437   5.097  11.610  0.7346  0.3094 -0.1737
13311TIP3    H161348   1.446   5.182  11.569 -2.6758  1.2580  0.8299
13311TIP3    H261349   1.493   5.100  11.688  0.7318  1.5718 -0.2240
13312TIP3   OH261350   5.104   0.772   2.023  0.1948  0.5584 -1.2885
13312TIP3    H161351   5.148   0.857   2.022 -0.7336  1.0810  0.3087
13312TIP3    H261352   5.103   0.747   2.116  0.8074 -1.3836 -1.7767
13313TIP3   OH261353   0.507   4.892   2.715  0.4428 -0.1849 -0.5428
13313TIP3    H161354   0.495   4.798   2.707 -0.8501 -0.1039  0.3423
13313TIP3    H261355   0.459   4.917   2.793  2.1557  0.9785  0.1920
13314TIP3   OH261356   4.296   2.914   5.342  0.3558 -0.2283 -0.1301
13314TIP3    H161357   4.232   2.932   5.274  0.9343  1.2747 -0.2849
13314TIP3    H261358   4.271   2.828   5.376 -0.9399 -0.2421 -1.0863
13315TIP3   OH261359   4.067   4.869   4.684  0.3690 -0.0802 -0.2742
13315TIP3    H161360   4.030   4.782   4.664  1.9335 -1.6191  3.1247
13315TIP3    H261361   4.161   4.854   4.689  0.5821  1.6360  1.2097
13316TIP3   OH261362   4.917   3.682   5.367  0.1117  0.8125  0.2844
13316TIP3    H161363   4.984   3.614   5.377 -0.9898 -0.2029  0.8623
13316TIP3    H261364   4.941   3.750   5.430 -0.2091 -0.2104  1.5277
13317TIP3   OH261365   1.135   4.377  11.902  0.2386  0.7899  0.2112
13317TIP3    H161366   1.136   4.451  11.963  0.2437  0.6121  0.4275
13317TIP3    H261367   1.172   4.412  11.821  3.5469  0.0974  1.3690
13318TIP3   OH261368   4.137   2.491  12.342  0.0371  0.6180 -0.4328
13318TIP3    H161369   4.204   2.477  12.275 -1.2262 -0.9070 -1.4052
13318TIP3    H261370   4.129   2.586  12.348  1.4204  0.7882 -1.1748
13319TIP3   OH261371   0.999   5.233   0.033 -0.5859  0.0435 -0.2346
13319TIP3    H161372   1.041   5.189  -0.041 -1.5798  1.0521 -1.4321
13319TIP3    H261373   0.945   5.301  -0.008 -1.2965  0.4867  1.4168
13320TIP3   OH261374   6.309   1.612   3.865 -0.2263 -0.2541  0.6688
13320TIP3    H161375   6.402   1.603   3.887 -0.2312 -1.6521  0.1820
13320TIP3    H261376   6.264   1.562   3.932 -0.7508  1.6233  1.7602
13321TIP3   OH261377   1.962   6.403   2.553 -0.0435 -0.3897 -0.1359
13321TIP3    H161378   1.908   6.462   2.606 -0.3739  0.8048 -1.7563
13321TIP3    H261379   2.035   6.458   2.523 -0.1087 -0.8996 -1.2696
13322TIP3   OH261380   6.474   0.263  13.026 -0.5364  0.0289 -0.2912
13322TIP3    H161381   6.448   0.319  13.099 -1.4115 -1.9181  0.9088
13322TIP3    H261382   6.506   0.324  12.960 -0.3538  1.8708  1.4459
13323TIP3   OH261383   1.417   6.236   4.253  0.6489  0.2435  0.4898
13323TIP3    H161384   1.390   6.194   4.172  0.3090  3.2360 -1.0269
13323TIP3    H261385   1.348   6.299   4.272  1.7151  1.0042  2.0174
13324TIP3   OH261386   2.443   5.640  16.269 -0.2792 -0.4325 -0.4161
13324TIP3    H161387   2.407   5.702  16.206  3.6066  1.1644 -1.2115
13324TIP3    H261388   2.496   5.580  16.217  2.5603  0.5880  1.1894
13325TIP3   OH261389   1.154   5.819   1.137 -0.0213  0.0296  0.1440
13325TIP3    H161390   1.110   5.877   1.199  0.7253  1.7947 -0.9436
13325TIP3    H261391   1.242   5.856   1.128  1.6391 -3.2742  2.0602
13326TIP3   OH261392   1.458   0.269   1.624 -0.3679  0.0106  0.5748
13326TIP3    H161393   1.415   0.194   1.666 -0.2688 -0.4456 -0.1341
13326TIP3    H261394   1.405   0.344   1.651 -2.7219 -0.7318 -1.7307
13327TIP3   OH261395   6.663   5.854   5.862 -0.3508  0.5291 -0.2577
13327TIP3    H161396   6.742   5.892   5.822  0.9274  0.1148  1.8065
13327TIP3    H261397   6.677   5.760   5.858 -0.1468  0.4868  1.2523
13328TIP3   OH261398   5.719   3.705   2.824  0.0305  0.7863  0.0779
13328TIP3    H161399   5.801   3.721   2.871 -0.2956  2.2860  0.1364
13328TIP3    H261400   5.655   3.687   2.893  0.3149 -0.5239  0.0271
13329TIP3   OH261401   5.844   1.481  15.294  0.1032  0.7721 -0.3845
13329TIP3    H161402   5.818   1.415  15.357 -0.3120  2.6487  1.4697
13329TIP3    H261403   5.784   1.469  15.220 -0.3578 -0.5071  0.1841
13330TIP3   OH261404   5.946   5.561  13.765  0.0534 -0.6145  0.3150
13330TIP3    H161405   6.024   5.511  13.741 -1.2581 -2.1422 -0.9021
13330TIP3    H261406   5.931   5.619  13.690 -0.0694 -0.4447  0.4712
13331TIP3   OH261407   4.972   5.914   5.339 -0.0606  0.1369  0.8116
13331TIP3    H161408   4.977   5.915   5.434 -0.0615  0.8765  0.8032
13331TIP3    H261409   4.891   5.960   5.318  0.3602  0.6964  0.4211
13332TIP3   OH261410   1.854   4.801   6.632  0.0381  0.5776 -0.0243
13332TIP3    H161411   1.820   4.741   6.566 -0.5852  1.0300 -0.1188
13332TIP3    H261412   1.947   4.780   6.638 -0.6789 -2.2989  1.9391
13333TIP3   OH261413   6.282   4.117  14.879  0.0890  0.2220 -0.3800
13333TIP3    H161414   6.355   4.175  14.900  1.2843 -1.4151  0.0832
13333TIP3    H261415   6.206   4.176  14.871  1.2555  1.8310  0.0606
13334TIP3   OH261416   6.630   1.099   4.697 -0.6549 -0.1600  0.3967
13334TIP3    H161417   6.630   1.057   4.611  0.0604 -0.7973  0.6982
13334TIP3    H261418   6.705   1.159   4.695 -1.6325  1.0563 -0.0076
13335TIP3   OH261419   4.723   6.262  16.216  0.2500  0.6360  0.4569
13335TIP3    H161420   4.642   6.266  16.165  0.4154  0.9757  0.2205
13335TIP3    H261421   4.753   6.171  16.207 -1.5613 -0.2389  2.8087
13336TIP3   OH261422   0.551   5.401  12.476 -0.0911 -0.3884 -0.7981
13336TIP3    H161423   0.612   5.405  12.403 -1.5113  0.2060 -1.9777
13336TIP3    H261424   0.560   5.312  12.511  1.0507 -0.4678 -1.2884
13337TIP3   OH261425   5.412   0.406  15.699 -0.0513 -0.6231  0.4966
13337TIP3    H161426   5.500   0.370  15.690 -0.3926 -1.2376 -0.4944
13337TIP3    H261427   5.414   0.489  15.650 -0.3889 -1.3092 -0.7187
13338TIP3   OH261428   4.873   3.800   3.463  0.0090 -0.6972  0.0255
13338TIP3    H161429   4.963   3.832   3.455 -1.0942  2.0536 -2.6530
13338TIP3    H261430   4.866   3.769   3.553  3.7589 -1.4137  0.1207
13339TIP3   OH261431   5.543   3.551  13.678  0.6344  0.3046  0.2865
13339TIP3    H161432   5.589   3.543  13.595 -0.0201 -0.5919 -0.0009
13339TIP3    H261433   5.603   3.515  13.743  1.2650  1.2847  0.2484
13340TIP3   OH261434   3.558   2.230   2.214 -0.3603  0.1101  0.1139
13340TIP3    H161435   3.583   2.312   2.172 -1.5992  1.3016  1.6631
13340TIP3    H261436   3.497   2.189   2.153 -1.9533  1.7032  0.6123
13341TIP3   OH261437   2.187   3.006  12.436 -0.0543 -0.4916 -0.5750
13341TIP3    H161438   2.148   3.077  12.384 -1.0105 -0.2722  0.4287
13341TIP3    H261439   2.236   2.954  12.372 -2.2029 -0.9125 -1.9027
13342TIP3   OH261440   2.480   1.824   2.433  0.2842  0.1589  0.2585
13342TIP3    H161441   2.472   1.818   2.529 -0.4120  0.1002  0.1951
13342TIP3    H261442   2.549   1.761   2.412  1.2978  1.0370  0.8410
13343TIP3   OH261443   4.099   5.442  14.455  1.2142  0.1331 -0.4531
13343TIP3    H161444   4.193   5.457  14.462  1.2303  0.6373 -1.5229
13343TIP3    H261445   4.064   5.526  14.425  0.6094 -0.4334 -1.3861
13344TIP3   OH261446   3.907   4.060  17.111  0.1605 -0.1991 -0.3106
13344TIP3    H161447   3.853   4.110  17.173  1.2111  0.0839  0.4116
13344TIP3    H261448   3.954   3.998  17.166  2.4118  1.2142 -0.5637
13345TIP3   OH261449   1.586   1.479  12.294 -0.0948 -0.8439 -0.0743
13345TIP3    H161450   1.492   1.496  12.297 -0.3929 -2.5293  0.5226
13345TIP3    H261451   1.621   1.547  12.235 -1.3607  1.1584  1.4216
13346TIP3   OH261452   5.420   2.224   5.355 -0.3849  0.3795 -0.3558
13346TIP3    H161453   5.478   2.275   5.298 -1.3566  0.3140 -1.4209
13346TIP3    H261454   5.431   2.134   5.327  0.5582  0.1083  0.8437
13347TIP3   OH261455   4.774   2.738  11.685  0.7243 -0.2859 -0.0174
13347TIP3    H161456   4.742   2.772  11.601  0.9804  0.6057  0.2415
13347TIP3    H261457   4.698   2.694  11.724  0.2483  0.4208 -0.1356
13348TIP3   OH261458   6.220   3.994   6.108  0.0554  0.1459 -0.0597
13348TIP3    H161459   6.238   4.010   6.201 -1.0346 -1.8090  0.5242
13348TIP3    H261460   6.249   4.073   6.063  0.8150  1.0126  1.9321
13349TIP3   OH261461   4.364   3.252   3.426  0.0539 -0.2862 -0.1565
13349TIP3    H161462   4.362   3.239   3.331  1.1535  1.8125 -0.4706
13349TIP3    H261463   4.456   3.242   3.450 -0.3704 -1.9879  0.8916
13350TIP3   OH261464   1.331   0.317   2.359 -0.3311 -0.6801  0.3017
13350TIP3    H161465   1.349   0.292   2.450 -0.1488  0.8898  0.7059
13350TIP3    H261466   1.412   0.360   2.330 -0.6431 -0.5563 -0.3774
13351TIP3   OH261467   6.398   2.200  16.166  0.7861 -0.3265  0.0422
13351TIP3    H161468   6.368   2.110  16.150 -1.2771  0.4402 -0.5426
13351TIP3    H261469   6.325   2.255  16.136  1.5060  1.5037  1.5837
13352TIP3   OH261470   2.304   2.677  13.755  0.5121 -0.2941 -0.0448
13352TIP3    H161471   2.342   2.594  13.725  0.4655  0.0922 -1.1707
13352TIP3    H261472   2.315   2.737  13.681  0.2880  0.6265  0.6670
13353TIP3   OH261473   0.870   0.243  12.503 -0.3861 -0.1801  0.4037
13353TIP3    H161474   0.825   0.172  12.456  0.2402 -0.3676  0.0850
13353TIP3    H261475   0.961   0.235  12.477 -0.2886  0.6768  0.4599
13354TIP3   OH261476   2.936   6.525  11.509  0.7743  0.3020  0.1003
13354TIP3    H161477   3.016   6.471  11.505  1.9964  2.0509  0.1936
13354TIP3    H261478   2.904   6.528  11.419  2.8182  2.4661 -0.6073
13355TIP3   OH261479   4.443   3.268  16.104  0.5739 -0.1551 -0.0367
13355TIP3    H161480   4.352   3.280  16.077  0.3380 -0.5370  0.5957
13355TIP3    H261481   4.443   3.282  16.198  1.1704 -0.1519 -0.0334
13356TIP3   OH261482   0.114   0.126  11.146  0.0285 -0.0593 -0.7192
13356TIP3    H161483   0.094   0.219  11.158  1.2280  0.0604  0.4845
13356TIP3    H261484   0.192   0.125  11.091  0.5735 -0.3044  0.0418
13357TIP3   OH261485   3.706   3.125  12.763 -0.3063  0.5390 -0.1956
13357TIP3    H161486   3.694   3.215  12.795  2.2306  0.1257  2.1121
13357TIP3    H261487   3.657   3.071  12.824  0.5605  0.1311  0.1476
13358TIP3   OH261488   3.908   4.400  15.088  0.0054  0.3853 -0.6344
13358TIP3    H161489   3.874   4.311  15.078  0.1118  0.3599 -0.7790
13358TIP3    H261490   3.908   4.416  15.182 -1.4849  0.8040 -0.7022
13359TIP3   OH261491   5.378   4.046   5.836 -0.0029  0.5432  0.4651
13359TIP3    H161492   5.342   4.107   5.772 -3.0593  0.2388  1.7763
13359TIP3    H261493   5.401   4.100   5.911  2.6087  0.7690 -0.4675
13360TIP3   OH261494   3.746   1.869  11.699 -0.5252 -0.5380 -0.0940
13360TIP3    H161495   3.747   1.949  11.647 -0.8780 -0.9363 -0.7242
13360TIP3    H261496   3.657   1.835  11.690 -1.0515  0.2149  2.0699
13361TIP3   OH261497   0.478   4.085   3.133 -0.0052  0.2399 -0.0277
13361TIP3    H161498   0.464   4.006   3.186 -2.7011  1.0774  0.5955
13361TIP3    H261499   0.572   4.103   3.141 -0.0538 -0.6263  3.0644
13362TIP3   OH261500   2.657   1.524  14.972  0.3371  0.4542  0.1450
13362TIP3    H161501   2.658   1.430  14.954 -1.9367  0.5794 -0.7548
13362TIP3    H261502   2.749   1.548  14.978  0.9455 -1.7996  0.1758
13363TIP3   OH261503   1.886   3.116   5.932  0.1771 -0.3604  0.1195
13363TIP3    H161504   1.950   3.186   5.921 -1.3306  1.2243  0.9464
13363TIP3    H261505   1.911   3.073   6.014  0.6113 -0.2272  0.0561
13364TIP3   OH261506   2.757   5.431   4.051  0.0015  0.7276  0.4818
13364TIP3    H161507   2.811   5.496   4.096 -2.8352  2.0059  2.2242
13364TIP3    H261508   2.687   5.483   4.010 -1.8041 -1.1352  1.1531
13365TIP3   OH261509   5.251   0.361  16.671 -0.2497  0.0708  0.1531
13365TIP3    H161510   5.222   0.272  16.650 -0.5646  0.1652  0.1795
13365TIP3    H261511   5.300   0.390  16.593 -0.1949 -0.1062  0.1217
13366TIP3   OH261512   3.542   1.633   2.163 -0.1957  0.2311 -0.1297
13366TIP3    H161513   3.553   1.579   2.085  0.0673 -1.4054  1.0246
13366TIP3    H261514   3.487   1.706   2.133  0.7764  0.2098 -2.0909
13367TIP3   OH261515   5.369   4.017  13.808 -0.4416 -0.0464  0.5054
13367TIP3    H161516   5.298   3.968  13.767 -0.5484  0.5078  0.0279
13367TIP3    H261517   5.328   4.062  13.882 -1.2005  2.4839 -1.3823
13368TIP3   OH261518   4.357   4.962  14.454 -0.2863 -0.0609 -0.0986
13368TIP3    H161519   4.443   4.995  14.482 -0.3627  0.7905 -0.8326
13368TIP3    H261520   4.312   5.040  14.420 -0.6770 -0.8300 -1.3673
13369TIP3   OH261521   6.418   5.530  11.554 -0.3499  0.1349  0.5525
13369TIP3    H161522   6.346   5.489  11.506 -0.3216 -0.5392  1.0649
13369TIP3    H261523   6.428   5.476  11.633  0.8496  0.0880  0.3857
13370TIP3   OH261524   0.985   2.047   5.013 -0.0597 -0.2317  0.0582
13370TIP3    H161525   0.984   1.981   4.943  0.8189 -0.3532  0.1574
13370TIP3    H261526   1.074   2.044   5.048  0.2275  1.5681 -0.4622
13371TIP3   OH261527   1.340   3.961   3.740 -0.5513  0.0319  0.5867
13371TIP3    H161528   1.334   4.052   3.769 -1.2264 -0.2688  1.3935
13371TIP3    H261529   1.250   3.934   3.724 -0.2114  0.2355 -2.0221
13372TIP3   OH261530   5.864   4.061   1.133  0.4831  0.0604 -0.1994
13372TIP3    H161531   5.829   4.052   1.044  0.2204  1.9367 -0.3052
13372TIP3    H261532   5.900   3.974   1.153 -1.1136 -0.9216 -1.4124
13373TIP3   OH261533   1.243   0.191   4.640  0.2259  0.4449 -0.3231
13373TIP3    H161534   1.230   0.282   4.613  0.2324  1.2281  2.1053
13373TIP3    H261535   1.298   0.197   4.718  0.6157 -1.6921 -0.3914
13374TIP3   OH261536   1.161   4.895   5.534  0.7486  0.2487  0.0451
13374TIP3    H161537   1.166   4.872   5.441 -3.4400  2.7252 -0.9344
13374TIP3    H261538   1.159   4.990   5.535 -3.7610  0.2562  2.2581
13375TIP3   OH261539   0.042   4.828  11.774 -0.4687 -0.3662  1.1975
13375TIP3    H161540  -0.005   4.839  11.691 -1.1123 -1.1576  1.4478
13375TIP3    H261541   0.106   4.759  11.755  0.5273  0.6334  0.8867
13376TIP3   OH261542   6.749   5.204   5.037 -0.4353 -0.4127 -0.2104
13376TIP3    H161543   6.769   5.147   4.963  2.5479 -0.9013  0.8999
13376TIP3    H261544   6.794   5.163   5.111 -1.9200  1.0185  1.5201
13377TIP3   OH261545   3.946   6.462   0.084  0.2577  0.2095  0.5121
13377TIP3    H161546   4.003   6.450   0.160  1.9611 -0.5232 -0.8569
13377TIP3    H261547   3.991   6.416   0.013 -1.4352  0.6786 -0.8793
13378TIP3   OH261548   3.744   5.035   2.642 -0.5255 -0.0275  0.1080
13378TIP3    H161549   3.803   4.961   2.658 -1.4319 -1.0166 -1.0754
13378TIP3    H261550   3.656   4.999   2.654 -0.9828  0.8029 -0.6925
13379TIP3   OH261551   0.492   0.715  15.093 -0.0318  0.3738  0.2996
13379TIP3    H161552   0.575   0.678  15.121  0.1774 -0.1768 -1.0099
13379TIP3    H261553   0.481   0.684  15.003 -1.7660  0.2515  0.5365
13380TIP3   OH261554   3.642   0.420   3.268 -0.0211  0.0346 -0.2809
13380TIP3    H161555   3.568   0.362   3.250 -1.6446  1.9199  0.1158
13380TIP3    H261556   3.675   0.391   3.354 -0.2757 -0.8389 -0.4759
13381TIP3   OH261557   1.609   2.864  16.971  0.2965 -0.1852  0.1507
13381TIP3    H161558   1.526   2.836  16.932  1.2921 -0.7191 -1.6182
13381TIP3    H261559   1.637   2.789  17.023  1.1863 -1.2022 -1.7362
13382TIP3   OH261560   3.606   5.062   3.371 -0.3103 -0.4279 -0.2846
13382TIP3    H161561   3.679   5.008   3.399  0.2529  0.1498 -0.6283
13382TIP3    H261562   3.548   5.002   3.323  0.4050 -0.6789 -0.8352
13383TIP3   OH261563   0.052   6.673   4.866  0.1638 -0.4003 -0.0393
13383TIP3    H161564   0.142   6.664   4.834  0.3658 -0.9930  0.6826
13383TIP3    H261565   0.030   6.586   4.901 -0.4589 -0.0785  0.3865
13384TIP3   OH261566   6.429   4.320  11.171  0.5217  0.0301 -0.0608
13384TIP3    H161567   6.361   4.363  11.120  0.3270  1.9745  1.7390
13384TIP3    H261568   6.382   4.262  11.230  0.5171  0.2596  0.1628
13385TIP3   OH261569   1.031   5.000  14.054  0.4454  0.3030 -0.1326
13385TIP3    H161570   1.032   4.927  13.992 -1.9345 -1.3282  1.6386
13385TIP3    H261571   0.986   5.070  14.007 -0.0269 -0.4241 -0.7792
13386TIP3   OH261572   4.317   6.226  15.580 -0.0453 -0.2993  0.5442
13386TIP3    H161573   4.358   6.282  15.647 -0.8553  2.9601 -1.5675
13386TIP3    H261574   4.236   6.271  15.558  0.1996 -1.3117 -2.6330
13387TIP3   OH261575   0.953   0.267   1.223  0.0556  0.2776 -0.2120
13387TIP3    H161576   0.906   0.207   1.281  0.8659 -0.5216 -0.3703
13387TIP3    H261577   1.030   0.217   1.194  0.6966  1.3570 -0.4108
13388TIP3   OH261578   6.774   5.493   3.463 -0.4216 -0.0932 -0.4472
13388TIP3    H161579   6.727   5.572   3.438 -1.6910 -0.7591 -0.2381
13388TIP3    H261580   6.852   5.524   3.508 -0.9726  1.0357 -0.2589
13389TIP3   OH261581   3.131   1.971  11.037  0.3496  0.3882  0.3961
13389TIP3    H161582   3.121   2.055  10.993  0.0209  0.2630  0.2238
13389TIP3    H261583   3.063   1.916  10.998  2.1187 -0.7040 -1.2707
13390TIP3   OH261584   5.345   2.014   1.683 -0.6746  0.3180 -0.1709
13390TIP3    H161585   5.365   1.927   1.717 -1.3907  0.7868  1.5120
13390TIP3    H261586   5.301   1.998   1.600 -0.6009 -0.9212  0.0178
13391TIP3   OH261587   6.560   1.202   5.610  0.3117 -0.3985  0.8268
13391TIP3    H161588   6.604   1.117   5.600 -3.1184 -1.9612 -1.7517
13391TIP3    H261589   6.497   1.188   5.681  1.2226  0.6957  1.8817
13392TIP3   OH261590   2.057   4.128  16.914  0.3767  0.1725  0.3971
13392TIP3    H161591   2.082   4.169  16.831  0.1919  1.8332  1.1305
13392TIP3    H261592   2.110   4.049  16.919  0.3140 -0.0003 -1.3523
13393TIP3   OH261593   3.564   5.412  16.779  0.0002 -0.5987  0.6067
13393TIP3    H161594   3.492   5.447  16.831 -0.3028  0.1315 -0.2861
13393TIP3    H261595   3.550   5.317  16.778 -0.9789 -0.4527  0.3837
13394TIP3   OH261596   2.800   3.824  13.258  0.5504  0.0370 -0.0904
13394TIP3    H161597   2.859   3.754  13.286 -1.1605 -1.0964  0.7791
13394TIP3    H261598   2.750   3.785  13.186  0.4283  0.7716 -0.4093
13395TIP3   OH261599   3.149   5.219   1.199  0.8498  0.0042  0.4561
13395TIP3    H161600   3.135   5.172   1.117  0.8020 -0.9454  1.0045
13395TIP3    H261601   3.241   5.245   1.196  0.9854 -0.4801  0.3299
13396TIP3   OH261602   6.110   3.920  15.465 -0.2302  0.2938 -0.4722
13396TIP3    H161603   6.039   3.977  15.492  0.4539  0.5715  0.7601
13396TIP3    H261604   6.190   3.969  15.485  0.3290 -0.2213 -1.3748
13397TIP3   OH261605   1.582   6.677  10.667  0.1433 -0.1160  0.0608
13397TIP3    H161606   1.615   6.588  10.652 -3.2799 -1.5573  0.4604
13397TIP3    H261607   1.617   6.702  10.753 -0.9842 -2.1962  1.1691
13398TIP3   OH261608   5.742   3.433   2.664 -0.2113 -0.5994  0.5661
13398TIP3    H161609   5.788   3.428   2.580 -1.8047  0.2224 -0.3699
13398TIP3    H261610   5.762   3.521   2.697 -1.9846  0.1974 -0.3898
13399TIP3   OH261611   6.288   4.343   2.721 -0.3923  0.0221 -0.4192
13399TIP3    H161612   6.283   4.370   2.813  0.5766  0.9644 -0.6380
13399TIP3    H261613   6.253   4.416   2.672 -2.0838 -0.9896 -0.7390
13400TIP3   OH261614   5.362   2.531   3.616  0.5140  0.3388 -0.0714
13400TIP3    H161615   5.356   2.508   3.709 -0.3422 -0.7891 -0.3912
13400TIP3    H261616   5.454   2.517   3.593  0.4189 -0.8555  0.2465
13401TIP3   OH261617   2.518   1.050  13.217  0.0659  0.1320  0.2230
13401TIP3    H161618   2.435   1.022  13.256 -0.2964  1.4091  0.3708
13401TIP3    H261619   2.584   1.029  13.284  0.1024 -2.3911 -0.5344
13402TIP3   OH261620   4.472   4.736  16.143 -0.5922  0.3656 -0.5439
13402TIP3    H161621   4.496   4.825  16.165  1.5993 -0.5667  1.0136
13402TIP3    H261622   4.423   4.704  16.219 -1.3407  0.2221 -1.0769
13403TIP3   OH261623   4.068   1.472   0.933 -0.3079 -0.0142 -0.2262
13403TIP3    H161624   4.087   1.519   0.852  1.3420 -0.4628 -0.1022
13403TIP3    H261625   4.137   1.407   0.941 -0.6884 -0.2587  1.3215
13404TIP3   OH261626   4.607   2.899  14.006 -0.4576 -0.7084 -0.8593
13404TIP3    H161627   4.618   2.809  14.037 -2.8217 -0.4075  0.9719
13404TIP3    H261628   4.513   2.909  13.996 -0.2315  1.6368 -0.7993
13405TIP3   OH261629   4.712   5.531  11.451  0.1966 -0.2032  0.1188
13405TIP3    H161630   4.683   5.550  11.540  0.7364 -2.2048  0.7453
13405TIP3    H261631   4.658   5.588  11.396  1.0446  2.3070  1.8189
13406TIP3   OH261632   5.255   3.343   1.253  0.1565 -0.1985 -0.3857
13406TIP3    H161633   5.258   3.411   1.320 -2.1276 -0.3949 -0.0444
13406TIP3    H261634   5.283   3.263   1.298  1.3190  0.1959 -0.3907
13407TIP3   OH261635   6.066   3.154   3.038  0.7527 -0.0542 -0.2902
13407TIP3    H161636   6.048   3.101   2.960  0.1110  0.2533 -0.3575
13407TIP3    H261637   6.071   3.091   3.109 -0.6906 -0.1471 -0.2627
13408TIP3   OH261638   0.358   6.584   2.448  0.2914  0.1410 -0.1033
13408TIP3    H161639   0.297   6.608   2.378 -0.1409  0.2956  0.3255
13408TIP3    H261640   0.413   6.516   2.409  0.1338  0.3112 -0.6332
13409TIP3   OH261641   6.446   0.376   1.401 -0.0215 -0.0067 -0.2387
13409TIP3    H161642   6.484   0.457   1.369  0.7333 -0.6990 -1.1363
13409TIP3    H261643   6.357   0.400   1.428  0.6464  1.3786  0.7683
13410TIP3   OH261644   0.280   1.290  16.877 -0.0096 -0.2968  0.2682
13410TIP3    H161645   0.304   1.324  16.791  1.4098 -1.6447  0.1061
13410TIP3    H261646   0.203   1.341  16.903 -0.4672  0.1008 -1.8090
13411TIP3   OH261647   4.880   3.798   5.025  0.1884 -0.6237 -0.1440
13411TIP3    H161648   4.916   3.742   4.955 -1.7260 -1.6516 -0.3326
13411TIP3    H261649   4.833   3.737   5.082 -1.6317  0.7359 -0.1623
13412TIP3   OH261650   0.121   3.436   3.597 -0.5022 -0.2890 -0.3935
13412TIP3    H161651   0.181   3.367   3.626  0.5077  0.3327 -0.9799
13412TIP3    H261652   0.175   3.515   3.592 -0.9839 -0.0431 -2.4430
13413TIP3   OH261653   6.448   3.812  13.575 -0.0041  0.5293  0.0942
13413TIP3    H161654   6.428   3.833  13.666 -1.0368 -0.8742  0.2110
13413TIP3    H261655   6.543   3.822  13.568  0.1240  0.2996  1.4238
13414TIP3   OH261656   6.678   1.145   0.855  0.0983 -0.0645  0.2806
13414TIP3    H161657   6.687   1.050   0.861  0.7076 -0.2650 -2.7930
13414TIP3    H261658   6.763   1.179   0.883  1.6510 -0.7229 -3.3723
13415TIP3   OH261659   4.733   1.142   3.129  0.6333 -0.2112 -0.0267
13415TIP3    H161660   4.734   1.059   3.081 -1.3166 -0.2461 -0.0691
13415TIP3    H261661   4.740   1.116   3.221 -0.1001 -0.4591 -0.0305
13416TIP3   OH261662   2.016   2.172   2.331  0.3612 -0.6007  0.1159
13416TIP3    H161663   1.951   2.101   2.338  0.8212 -0.9814  0.6106
13416TIP3    H261664   2.031   2.199   2.422 -0.4167  0.6939 -0.1270
13417TIP3   OH261665   0.141   1.806   0.662 -0.6029 -0.6713  0.2830
13417TIP3    H161666   0.077   1.877   0.670 -1.7753 -1.6193 -0.4993
13417TIP3    H261667   0.089   1.729   0.638  1.0360 -1.0280 -2.3484
13418TIP3   OH261668   6.525   5.414   2.956  0.3029 -0.1201 -0.3728
13418TIP3    H161669   6.486   5.412   3.044  0.1912 -0.3766 -0.4282
13418TIP3    H261670   6.578   5.334   2.952  0.8761  0.2525 -0.2792
13419TIP3   OH261671   4.404   0.934  14.079 -0.4176  0.2412 -0.2507
13419TIP3    H161672   4.369   1.023  14.075  0.8625  0.7269 -1.1283
13419TIP3    H261673   4.496   0.947  14.105 -0.6705 -0.9356  1.2762
13420TIP3   OH261674   5.309   4.441  15.495 -0.6157 -0.0025  0.0301
13420TIP3    H161675   5.285   4.459  15.404 -0.0935 -1.5511 -0.4293
13420TIP3    H261676   5.267   4.511  15.545 -1.1973  0.6635 -1.3597
13421TIP3   OH261677   2.778   1.346   5.703  0.1379 -0.2872 -0.1966
13421TIP3    H161678   2.842   1.348   5.632 -0.5850  0.4050 -0.8439
13421TIP3    H261679   2.818   1.399   5.772  0.6885 -0.6746 -0.2086
13422TIP3   OH261680   4.525   1.546  16.677 -0.1527  0.4090 -0.0584
13422TIP3    H161681   4.471   1.477  16.638 -0.6210  0.6738  0.1095
13422TIP3    H261682   4.566   1.506  16.752  0.4028  0.0174 -0.5673
13423TIP3   OH261683   0.265   6.563  10.850 -0.2660  0.2267  0.4149
13423TIP3    H161684   0.360   6.576  10.848 -0.2810  0.2118 -0.6264
13423TIP3    H261685   0.229   6.652  10.845 -0.3111  0.2133  0.4983
13424TIP3   OH261686   2.797   2.146  16.903 -0.0894  0.3446  0.3821
13424TIP3    H161687   2.730   2.087  16.936  0.1255 -0.2432 -0.2466
13424TIP3    H261688   2.823   2.110  16.819 -1.8009  2.7492 -1.2637
13425TIP3   OH261689   0.313   3.634   3.588  0.2214  0.1800  0.2876
13425TIP3    H161690   0.399   3.621   3.627 -0.2543  0.9665  1.6476
13425TIP3    H261691   0.330   3.675   3.503  1.1689  0.7738  0.7644
13426TIP3   OH261692   2.432   2.844   5.771 -0.0827  0.6962  0.5575
13426TIP3    H161693   2.517   2.810   5.799  0.0205 -0.4777 -1.0855
13426TIP3    H261694   2.388   2.769   5.731 -0.4077  2.1076 -1.9013
13427TIP3   OH261695   4.856   5.613   3.095 -0.0795 -0.3683  0.2258
13427TIP3    H161696   4.762   5.606   3.109 -0.2817  0.2923 -0.7760
13427TIP3    H261697   4.876   5.547   3.029 -0.3842  1.6875 -1.9668
13428TIP3   OH261698   6.537   2.102   3.828  0.0928  0.6172  0.0809
13428TIP3    H161699   6.470   2.041   3.857  0.8572 -1.5226 -2.4841
13428TIP3    H261700   6.489   2.183   3.810 -1.9802 -1.0561 -2.3335
13429TIP3   OH261701   6.039   2.225  16.466  0.1497  0.2233  0.0130
13429TIP3    H161702   6.112   2.268  16.422  0.4880 -0.9964 -0.6492
13429TIP3    H261703   5.973   2.293  16.476  0.9957  1.1006 -0.2386
13430TIP3   OH261704   5.582   1.755   1.116 -0.6958 -0.3990 -0.0691
13430TIP3    H161705   5.606   1.846   1.099 -1.0352 -0.0280  1.3683
13430TIP3    H261706   5.493   1.746   1.080 -0.9626  0.0518  0.4770
13431TIP3   OH261707   5.864   3.404  12.303  1.6923 -0.3554 -0.1118
13431TIP3    H161708   5.863   3.473  12.236 -1.4403 -1.6531 -1.4753
13431TIP3    H261709   5.909   3.331  12.261 -1.0605 -1.4824 -1.2055
13432TIP3   OH261710   5.653   1.836   5.653 -0.3899 -0.5037  0.0725
13432TIP3    H161711   5.709   1.785   5.595  0.3302 -0.9735  1.1574
13432TIP3    H261712   5.694   1.922   5.656  0.2455 -0.8232  0.8002
13433TIP3   OH261713   6.177   2.858   5.413  0.9168 -0.0947  0.3504
13433TIP3    H161714   6.164   2.899   5.499  0.3468 -0.1911  0.3143
13433TIP3    H261715   6.152   2.767   5.427  0.5444 -0.0471  0.0137
13434TIP3   OH261716   4.117   2.492  11.345 -0.3137  0.7414  0.9757
13434TIP3    H161717   4.203   2.530  11.326  0.3414 -0.2471  1.8765
13434TIP3    H261718   4.090   2.450  11.264 -1.3118  3.5657 -0.2230
13435TIP3   OH261719   0.410   6.566   2.722  0.5163  0.1032 -0.0324
13435TIP3    H161720   0.472   6.494   2.721  0.2740 -0.0987 -0.4673
13435TIP3    H261721   0.398   6.589   2.630  1.6494  1.6115  0.1627
13436TIP3   OH261722   1.185   5.862   2.900 -0.3926 -0.1371 -0.3365
13436TIP3    H161723   1.222   5.904   2.822  0.7868 -2.9663 -1.3489
13436TIP3    H261724   1.097   5.900   2.909  0.6799  2.6512 -1.0704
13437TIP3   OH261725   3.099   1.367  11.587 -0.4210  0.3313  0.0529
13437TIP3    H161726   3.086   1.446  11.640 -0.3834  1.6268 -1.8240
13437TIP3    H261727   3.064   1.389  11.501  0.2620 -1.4533 -0.7168
13438TIP3   OH261728   0.795   1.859  13.498 -0.1117  0.9790  0.4107
13438TIP3    H161729   0.783   1.825  13.587 -1.3146  1.0005  0.2656
13438TIP3    H261730   0.714   1.907  13.480 -0.6345 -0.5204 -1.3727
13439TIP3   OH261731   5.677   3.678  14.204 -0.2025  0.2541 -0.3557
13439TIP3    H161732   5.709   3.611  14.144  0.9666  0.8146 -0.3810
13439TIP3    H261733   5.701   3.645  14.291 -0.2531  0.3080 -0.3225
13440TIP3   OH261734   5.118   2.083  16.748  0.0631 -0.2566  0.1124
13440TIP3    H161735   5.028   2.066  16.775 -0.3366  0.4968 -0.6884
13440TIP3    H261736   5.118   2.066  16.654  0.6893  0.0044  0.0624
13441TIP3   OH261737   3.648   3.369   3.875  0.1688  0.1167 -0.2099
13441TIP3    H161738   3.578   3.395   3.816  0.4623  0.7841 -0.2710
13441TIP3    H261739   3.719   3.432   3.858 -0.2903  1.2416  1.8717
13442TIP3   OH261740   1.843   4.312   3.244 -0.3758  0.7027 -0.6046
13442TIP3    H161741   1.885   4.228   3.225 -0.4681 -0.1599  2.7078
13442TIP3    H261742   1.769   4.316   3.183 -0.3325 -1.5975 -0.8783
13443TIP3   OH261743   2.950   1.448  11.355 -0.1036 -0.4229  0.0742
13443TIP3    H161744   3.019   1.476  11.295  0.2443 -0.9126  0.2372
13443TIP3    H261745   2.930   1.358  11.327  1.7186 -1.5329  2.1568
13444TIP3   OH261746   5.409   1.196   3.158  0.0547 -0.1360  0.0278
13444TIP3    H161747   5.383   1.104   3.153 -0.6629  0.0481  0.2309
13444TIP3    H261748   5.411   1.215   3.252  1.5338 -0.3077  0.0344
13445TIP3   OH261749   4.719   3.023   4.315 -0.6008 -0.0511  0.2980
13445TIP3    H161750   4.815   3.030   4.312 -0.1718 -4.8062  0.1822
13445TIP3    H261751   4.690   3.061   4.232  1.3950 -0.9557 -0.8590
13446TIP3   OH261752   2.350   0.635  16.522 -0.2570 -0.0412 -0.2584
13446TIP3    H161753   2.387   0.686  16.594 -2.4282  0.3054  0.6417
13446TIP3    H261754   2.352   0.694  16.447 -2.2545  1.2383  0.6498
13447TIP3   OH261755   4.931   3.323  16.338 -0.4451  0.2594 -0.6040
13447TIP3    H161756   4.861   3.289  16.282 -1.0526  1.4297 -0.5578
13447TIP3    H261757   4.894   3.324  16.426  0.1079 -0.4413 -0.3548
13448TIP3   OH261758   0.939   2.444   2.583 -0.6938  0.3810  0.2255
13448TIP3    H161759   1.019   2.404   2.618 -0.7539  0.4216  0.4092
13448TIP3    H261760   0.939   2.421   2.490  0.0557  1.2346  0.0061
13449TIP3   OH261761   1.826   4.435  15.483 -0.1494  0.1778 -0.4177
13449TIP3    H161762   1.780   4.517  15.469  0.8454  0.9355  0.7052
13449TIP3    H261763   1.900   4.439  15.423  0.6455  0.6958  0.5887
13450TIP3   OH261764   3.296   2.568  11.107  0.6490  0.1832  0.1465
13450TIP3    H161765   3.270   2.566  11.015 -0.4606 -0.1540  0.4658
13450TIP3    H261766   3.324   2.479  11.127  1.0144  0.2877  0.0939
13451TIP3   OH261767   2.234   2.160   2.791  0.0524 -0.4055 -0.2841
13451TIP3    H161768   2.288   2.233   2.762 -0.4708  0.4326  0.8415
13451TIP3    H261769   2.269   2.137   2.877  0.1894 -1.4734 -0.6106
13452TIP3   OH261770   2.421   1.484  15.711 -0.3299 -0.2635 -0.1714
13452TIP3    H161771   2.484   1.477  15.783 -1.0761  0.0252  0.5088
13452TIP3    H261772   2.397   1.576  15.708  0.2212 -0.1489 -1.2422
13453TIP3   OH261773   6.234   6.532   2.949 -0.3859  0.3267 -0.3623
13453TIP3    H161774   6.185   6.611   2.970 -1.3924 -0.4028  0.0541
13453TIP3    H261775   6.167   6.464   2.940  0.5010 -0.5488 -0.3861
13454TIP3   OH261776   4.630   2.824   4.482  0.2200 -0.4418 -0.3541
13454TIP3    H161777   4.674   2.883   4.420  0.8698  0.1812  0.6895
13454TIP3    H261778   4.536   2.842   4.469  0.4229  1.4958  0.5660
13455TIP3   OH261779   4.751   4.358  16.234  0.1559 -0.5853  0.2293
13455TIP3    H161780   4.752   4.408  16.316 -0.3468 -0.4237  0.1399
13455TIP3    H261781   4.659   4.334  16.222 -0.7108  3.8504 -2.9718
13456TIP3   OH261782   3.055   5.570  11.961 -0.3684  0.5650  0.8311
13456TIP3    H161783   3.046   5.486  12.006 -2.9045  0.6106  0.4646
13456TIP3    H261784   2.968   5.608  11.963  0.8543  3.4571  1.4376
13457TIP3   OH261785   0.469   2.731   4.167 -0.1510  0.1459 -0.1850
13457TIP3    H161786   0.551   2.710   4.211  0.0810  1.5304  0.0863
13457TIP3    H261787   0.468   2.677   4.088 -0.2224 -1.8282  1.1369
13458TIP3   OH261788   0.754   0.392  11.073 -0.1999  0.9041  0.1939
13458TIP3    H161789   0.725   0.385  10.982 -0.8055  1.6218  0.3227
13458TIP3    H261790   0.774   0.302  11.099  2.0301  0.9439 -1.3127
13459TIP3   OH261791   5.875   4.157   1.796 -0.4085  0.3126  0.3388
13459TIP3    H161792   5.968   4.160   1.773 -0.8448 -2.0221 -2.0231
13459TIP3    H261793   5.871   4.100   1.873  0.1239  0.4146  0.4450
13460TIP3   OH261794   5.787   0.621   1.816 -0.1262  0.1014  0.2190
13460TIP3    H161795   5.838   0.695   1.848  0.7381  0.1932 -1.3099
13460TIP3    H261796   5.722   0.660   1.758 -2.0101 -0.0108  2.1978
13461TIP3   OH261797   1.781   2.145   5.723  0.2810 -0.3377  0.0074
13461TIP3    H161798   1.846   2.175   5.659  0.4072  0.0787  0.3348
13461TIP3    H261799   1.799   2.195   5.802 -0.6258 -0.0049  0.0074
13462TIP3   OH261800   4.532   2.053  11.403 -0.1675 -0.3244  0.9215
13462TIP3    H161801   4.575   2.123  11.353  3.7288 -2.0937  1.6078
13462TIP3    H261802   4.583   2.046  11.483 -2.5220 -1.7607  2.3328
13463TIP3   OH261803   3.147   2.381  16.846  0.1183 -0.1418  0.0430
13463TIP3    H161804   3.213   2.334  16.897 -0.2476 -0.2303  0.4485
13463TIP3    H261805   3.126   2.322  16.774  0.8197  0.0894 -0.3529
13464TIP3   OH261806   5.290   3.098  16.017  0.3399  0.5424  0.1079
13464TIP3    H161807   5.253   3.043  15.948 -0.3397  0.9110  0.1698
13464TIP3    H261808   5.256   3.061  16.098  1.5866 -0.2322  0.2906
13465TIP3   OH261809   1.292   4.134   4.912  0.1944 -0.1032 -0.5629
13465TIP3    H161810   1.304   4.220   4.872 -0.6583  0.6407  0.7211
13465TIP3    H261811   1.229   4.090   4.855 -0.5874  0.7337 -0.3725
13466TIP3   OH261812   4.791   4.086  13.666 -0.1230  0.2030 -0.0228
13466TIP3    H161813   4.861   4.047  13.614 -0.4582 -0.9408  0.3724
13466TIP3    H261814   4.731   4.014  13.684  0.1643  0.4919  2.2408
13467TIP3   OH261815   2.808   6.021  13.733  0.4873 -0.1864  0.3418
13467TIP3    H161816   2.841   5.981  13.653  1.6246  1.2585  0.0483
13467TIP3    H261817   2.818   6.115  13.718 -1.7515  0.2117  1.1444
13468TIP3   OH261818   6.393   5.621  15.453  0.6664  0.1432  0.1048
13468TIP3    H161819   6.337   5.683  15.501  0.8023  0.1542  0.2485
13468TIP3    H261820   6.465   5.675  15.420  0.4944  0.1652 -0.2457
13469TIP3   OH261821   5.894   4.439  13.377 -0.5354  0.0687  0.2824
13469TIP3    H161822   5.970   4.426  13.433 -0.4059 -0.9196 -0.1242
13469TIP3    H261823   5.845   4.510  13.420 -0.5605 -0.8287  1.7545
13470TIP3   OH261824   6.679   2.112  13.672  0.2766 -0.1594  0.3211
13470TIP3    H161825   6.639   2.025  13.671  0.9085 -0.4542 -0.0123
13470TIP3    H261826   6.740   2.109  13.746  2.9428 -1.2487 -1.8115
13471TIP3   OH261827   2.611   2.575   1.070  0.2855  0.4651 -0.8739
13471TIP3    H161828   2.707   2.583   1.066  0.4561 -1.0566 -0.1293
13471TIP3    H261829   2.582   2.653   1.117  1.3386 -0.0567  0.6697
13472TIP3   OH261830   4.414   6.643   1.270  0.2634  0.1837 -0.0698
13472TIP3    H161831   4.322   6.668   1.273  0.2904  0.3228 -0.4043
13472TIP3    H261832   4.414   6.554   1.236  0.1401 -0.4253  1.4857
13473TIP3   OH261833   2.131   0.622   2.489 -0.7018  0.0285  0.0329
13473TIP3    H161834   2.070   0.628   2.416 -0.0082  0.4638 -0.5196
13473TIP3    H261835   2.136   0.711   2.523 -1.5022 -0.2847  1.0240
13474TIP3   OH261836   3.561   2.176  13.355  0.3633 -0.2389 -0.5838
13474TIP3    H161837   3.545   2.204  13.445  0.5731 -4.1944  0.7812
13474TIP3    H261838   3.483   2.202  13.307 -0.7018 -0.0226  1.2225
13475TIP3   OH261839   5.897   4.665   3.238 -0.4953  0.1684 -0.1243
13475TIP3    H161840   5.895   4.749   3.192 -0.5718  1.4058  2.0527
13475TIP3    H261841   5.811   4.627   3.224 -1.6614  2.0576  1.6899
13476TIP3   OH261842   4.297   1.461   2.066 -0.4804  0.2244  0.2478
13476TIP3    H161843   4.242   1.518   2.119 -0.4238 -2.2493  3.1100
13476TIP3    H261844   4.359   1.423   2.128  0.2003 -2.0732 -1.7499
13477TIP3   OH261845   3.512   6.729  12.191  0.2527 -0.0664  0.7002
13477TIP3    H161846   3.483   6.818  12.210 -0.2201 -0.0642 -0.0061
13477TIP3    H261847   3.490   6.716  12.099 -1.1756 -1.4883  1.2295
13478TIP3   OH261848   6.182   5.227   0.984 -0.1470  0.1839  0.3783
13478TIP3    H161849   6.106   5.269   1.025  0.0207  0.2256  0.6485
13478TIP3    H261850   6.155   5.213   0.894 -1.1598 -1.4565  0.9147
13479TIP3   OH261851   6.103   4.056   2.417  0.0063  0.5535 -0.1717
13479TIP3    H161852   6.105   4.031   2.324  0.4596 -0.9237  0.2246
13479TIP3    H261853   6.195   4.056   2.443 -0.1688  0.3215  0.4462
13480TIP3   OH261854   2.508   5.600   3.731  0.8621  0.0509 -0.3102
13480TIP3    H161855   2.538   5.577   3.819 -0.1740 -1.6629 -0.3964
13480TIP3    H261856   2.420   5.634   3.744 -0.9544 -4.1139 -1.0806
13481TIP3   OH261857   2.974   3.226  12.833  0.3449 -0.5115 -0.8743
13481TIP3    H161858   2.901   3.199  12.887  0.4816  0.8684  0.0162
13481TIP3    H261859   2.934   3.269  12.757  0.2334  0.4200 -0.2904
13482TIP3   OH261860   1.388   6.779   3.801 -0.4766  0.5123 -0.4888
13482TIP3    H161861   1.443   6.818   3.733 -1.8300  0.8785 -1.3985
13482TIP3    H261862   1.409   6.686   3.799 -0.2172  0.5820 -1.1238
13483TIP3   OH261863   6.430   5.176  15.766 -0.3199 -0.1384 -0.0663
13483TIP3    H161864   6.478   5.112  15.714 -0.0638 -1.4127  1.6652
13483TIP3    H261865   6.427   5.255  15.712 -0.7165 -1.6265 -2.2866
13484TIP3   OH261866   2.357   0.565   3.394  0.1313 -0.2472 -0.2288
13484TIP3    H161867   2.377   0.646   3.349  0.4111 -0.1913 -0.0074
13484TIP3    H261868   2.391   0.577   3.483 -1.2461 -0.0045  0.2715
13485TIP3   OH261869   0.550   2.525  15.327 -0.3496  0.1600  0.4002
13485TIP3    H161870   0.635   2.547  15.366 -1.5774  2.0756  2.0580
13485TIP3    H261871   0.547   2.575  15.245 -0.3762  0.9957  0.9139
13486TIP3   OH261872   3.718   6.456  15.146  0.7989 -0.0838  0.0662
13486TIP3    H161873   3.743   6.431  15.057 -0.9539 -0.0082 -0.4692
13486TIP3    H261874   3.668   6.537  15.136 -1.1763 -1.1387  0.8589
13487TIP3   OH261875   0.234   6.604  16.253 -0.5544 -0.2826 -0.0767
13487TIP3    H161876   0.183   6.523  16.244 -0.7692  0.0170 -1.8051
13487TIP3    H261877   0.281   6.612  16.170  2.1234 -0.3940  1.3719
13488TIP3   OH261878   6.587   6.424  16.940  0.4807 -0.5004  0.5626
13488TIP3    H161879   6.557   6.393  16.855  1.3218  0.2262 -0.0102
13488TIP3    H261880   6.667   6.473  16.921  0.9324 -0.7196  1.8214
13489TIP3   OH261881   3.568   3.427   1.368 -0.2891 -0.1893  0.2266
13489TIP3    H161882   3.502   3.484   1.409 -0.6246 -0.1223 -0.4002
13489TIP3    H261883   3.526   3.397   1.287 -0.0563 -1.2227  0.4915
13490TIP3   OH261884   6.116   5.839   2.464  0.0178 -0.4724  0.1424
13490TIP3    H161885   6.211   5.826   2.464 -0.0665 -1.0946 -1.1264
13490TIP3    H261886   6.099   5.893   2.387 -0.4121  1.6099  1.6479
13491TIP3   OH261887   6.397   3.558  14.785 -0.5087  0.4047 -0.2968
13491TIP3    H161888   6.428   3.512  14.707 -1.7111 -0.2384 -0.4064
13491TIP3    H261889   6.435   3.509  14.858 -2.9071 -1.6777 -0.3661
13492TIP3   OH261890   3.108   2.357   3.719  0.0666  0.4201 -0.3202
13492TIP3    H161891   3.075   2.411   3.791 -1.3957  0.7360 -1.1932
13492TIP3    H261892   3.188   2.318   3.753 -0.9104  0.0862  1.7018
13493TIP3   OH261893   6.656   5.938   4.064 -0.3980 -0.0917  0.6819
13493TIP3    H161894   6.607   5.902   4.138  0.2321  0.7133  1.5016
13493TIP3    H261895   6.630   5.883   3.990 -2.3345  0.1490  1.1477
13494TIP3   OH261896   6.253   5.875   0.400 -0.2037 -0.1846  0.0220
13494TIP3    H161897   6.204   5.939   0.451 -1.0129 -1.6295  1.0906
13494TIP3    H261898   6.329   5.854   0.454  1.3076  1.5706 -1.3483
13495TIP3   OH261899   5.444   1.943   5.325  0.8264  0.5521 -0.1547
13495TIP3    H161900   5.433   1.940   5.230  0.0929 -4.0240 -0.0410
13495TIP3    H261901   5.539   1.955   5.337  1.4582 -2.3700 -1.5851
13496TIP3   OH261902   4.662   1.942  17.047 -0.0340  0.0938 -0.0650
13496TIP3    H161903   4.682   1.912  17.136  0.4069  0.1935 -0.1287
13496TIP3    H261904   4.719   1.889  16.991  1.0827  1.3558 -0.1441
13497TIP3   OH261905   2.396   0.575   2.211  0.0418  0.5562 -0.4649
13497TIP3    H161906   2.332   0.586   2.281  0.9869  0.1328  0.4682
13497TIP3    H261907   2.481   0.571   2.255  0.5901 -0.4782 -1.5562
13498TIP3   OH261908   1.391   2.241   0.967 -0.2261 -0.2754  0.2236
13498TIP3    H161909   1.381   2.147   0.955 -0.9605 -0.3701  1.5359
13498TIP3    H261910   1.471   2.250   1.019 -0.3468 -0.1882  0.3934
13499TIP3   OH261911   0.686   0.497  12.448 -0.4589  0.4555  0.2008
13499TIP3    H161912   0.739   0.420  12.469 -1.3875  0.2465  1.8384
13499TIP3    H261913   0.635   0.472  12.371  0.0199 -0.1810  0.0889
13500TIP3   OH261914   5.778   0.671  15.032 -0.1818  0.1799  0.1337
13500TIP3    H161915   5.784   0.579  15.056  1.0508  0.6542  1.6659
13500TIP3    H261916   5.842   0.681  14.961 -1.0776 -0.3593 -0.7684
13501TIP3   OH261917   6.480   3.287   1.871 -0.9849  0.3624 -0.2986
13501TIP3    H161918   6.508   3.247   1.789  1.4492  0.4245  0.4601
13501TIP3    H261919   6.522   3.373   1.872 -1.3382  0.5326  0.8184
13502TIP3   OH261920   4.452   6.641   4.547  0.1002 -0.1516  0.1160
13502TIP3    H161921   4.383   6.679   4.601  0.5155  0.1592  0.4302
13502TIP3    H261922   4.497   6.717   4.508  0.2529 -0.3519 -0.0985
13503TIP3   OH261923   0.158   1.438   5.057  0.3935  0.0496  0.3723
13503TIP3    H161924   0.205   1.358   5.082 -1.7440 -1.1851  0.5501
13503TIP3    H261925   0.088   1.407   5.000 -1.2952  1.6369  1.5381
13504TIP3   OH261926   5.163   4.031  13.409 -0.4460  1.2933 -1.1182
13504TIP3    H161927   5.219   3.992  13.342 -0.0566  0.4908 -0.3373
13504TIP3    H261928   5.084   3.977  13.408 -1.0996  2.2629 -2.0364
13505TIP3   OH261929   3.024   6.374   0.182 -0.0493  0.1363  0.4366
13505TIP3    H161930   3.010   6.283   0.207  0.7418 -0.8545 -2.4906
13505TIP3    H261931   3.011   6.375   0.087  0.2621  3.0093  0.3832
13506TIP3   OH261932   1.749   1.349  11.602 -0.1061 -0.1222 -0.7353
13506TIP3    H161933   1.680   1.282  11.602 -0.4808  0.2373  1.1276
13506TIP3    H261934   1.821   1.309  11.650 -0.2637  0.7073  0.2260
13507TIP3   OH261935   1.402   3.520  15.266  0.1747 -0.5686  0.2142
13507TIP3    H161936   1.363   3.434  15.282 -0.4926 -0.1175  1.0519
13507TIP3    H261937   1.327   3.576  15.245  0.7921 -0.6404 -2.4088
13508TIP3   OH261938   0.358   3.752  11.334  0.0042 -0.9501 -0.0267
13508TIP3    H161939   0.373   3.815  11.405  1.0560 -0.5890 -0.5663
13508TIP3    H261940   0.365   3.803  11.254 -1.2334 -1.3541 -0.3933
13509TIP3   OH261941   0.584   6.737  12.138  0.2052  0.5122  0.6393
13509TIP3    H161942   0.502   6.787  12.149 -0.6712 -0.6640 -0.4558
13509TIP3    H261943   0.561   6.648  12.162  0.1590 -0.6109 -3.2500
13510TIP3   OH261944   4.207   3.501   3.711  0.2448  0.2079  0.4281
13510TIP3    H161945   4.257   3.552   3.775 -0.4623  1.4282  0.0327
13510TIP3    H261946   4.247   3.523   3.627  2.0673 -2.4547  0.5360
13511TIP3   OH261947   3.759   2.508   3.734  0.0466 -0.2644  0.6689
13511TIP3    H161948   3.748   2.592   3.777 -1.5514 -0.0611 -0.1070
13511TIP3    H261949   3.819   2.525   3.662  1.8029 -0.3656  2.0536
13512TIP3   OH261950   5.833   0.503   1.067 -0.5782  0.3001  0.1122
13512TIP3    H161951   5.792   0.416   1.066 -0.0800  0.0628  0.1086
13512TIP3    H261952   5.884   0.506   0.986 -1.1640  0.8734 -0.2366
13513TIP3   OH261953   1.713   1.026   6.568 -0.1948  0.0548 -0.2909
13513TIP3    H161954   1.638   0.970   6.546  0.3116 -1.0608  0.7332
13513TIP3    H261955   1.681   1.080   6.641 -1.0890  2.0262 -2.0971
13514TIP3   OH261956   5.890   5.698  16.524 -0.0475  0.5043  0.6789
13514TIP3    H161957   5.851   5.702  16.437  0.9888 -0.6790  0.1482
13514TIP3    H261958   5.978   5.664  16.510  0.4675  1.1958  2.0868
13515TIP3   OH261959   6.618   4.633   2.699  0.3982  0.3030  0.0919
13515TIP3    H161960   6.570   4.566   2.748  0.9960  0.1985  0.5243
13515TIP3    H261961   6.554   4.703   2.686 -0.3381 -0.4903 -0.6638
13516TIP3   OH261962   5.185   1.988   0.533  0.2788 -0.2333  0.5983
13516TIP3    H161963   5.162   2.081   0.526  0.8895 -0.1931 -1.0599
13516TIP3    H261964   5.178   1.969   0.627  0.6454  1.6117  1.0259
13517TIP3   OH261965   2.434   5.959   5.644  0.3598 -0.0621  0.5621
13517TIP3    H161966   2.428   5.869   5.676 -0.5030 -1.1827 -2.5617
13517TIP3    H261967   2.361   6.005   5.687 -0.0066 -1.1694  1.1544
13518TIP3   OH261968   4.458   4.850   4.365 -0.6931 -0.1781 -0.4682
13518TIP3    H161969   4.533   4.866   4.308 -0.2771  0.7219  0.3008
13518TIP3    H261970   4.393   4.807   4.310  0.8133 -1.9841 -0.8801
13519TIP3   OH261971   0.200   4.959   5.686 -0.3664  0.3927 -0.0884
13519TIP3    H161972   0.174   4.870   5.709  2.1405 -0.1080  0.9103
13519TIP3    H261973   0.233   4.997   5.767 -0.2331  1.8237 -0.7808
13520TIP3   OH261974   4.028   3.321   1.625  0.1643 -0.3954 -0.0961
13520TIP3    H161975   4.024   3.328   1.530 -2.1053 -2.4856 -0.2059
13520TIP3    H261976   4.069   3.235   1.641 -1.0986 -0.8544  0.7590
13521TIP3   OH261977   3.242   2.685  15.543 -0.2617  0.6300  0.6546
13521TIP3    H161978   3.170   2.737  15.507 -0.2480  1.3915  1.7296
13521TIP3    H261979   3.201   2.629  15.609  0.2503  1.6150  1.8146
13522TIP3   OH261980   6.427   5.346  14.776  0.7397  0.1600  0.5144
13522TIP3    H161981   6.416   5.438  14.801  0.6555  0.0206  1.0056
13522TIP3    H261982   6.445   5.348  14.682  1.7047  0.7491  0.7021
13523TIP3   OH261983   1.601   0.118   5.742 -0.1126  0.1306  0.5161
13523TIP3    H161984   1.667   0.113   5.811 -0.8305  2.4230  1.4197
13523TIP3    H261985   1.531   0.059   5.771 -0.7397  1.6430  2.1374
13524TIP3   OH261986   2.714   2.804   5.163  0.1175  0.2144  0.4322
13524TIP3    H161987   2.725   2.714   5.193  1.1714  0.1593 -0.0881
13524TIP3    H261988   2.624   2.808   5.132 -0.0239 -0.5763  0.7259
13525TIP3   OH261989   3.047   5.250  13.774 -0.3939 -0.0991 -0.7051
13525TIP3    H161990   3.080   5.161  13.757  0.6131  0.2757 -0.7106
13525TIP3    H261991   2.982   5.238  13.844 -0.1424 -0.8260 -0.5909
13526TIP3   OH261992   1.407   2.008  11.992  0.0845  0.2203  0.1453
13526TIP3    H161993   1.363   2.074  12.046 -1.3908 -1.7976  1.5054
13526TIP3    H261994   1.485   1.983  12.043 -0.2945 -0.3223  0.4672
13527TIP3   OH261995   0.996   5.145   0.444  0.3719 -0.4696 -0.4369
13527TIP3    H161996   1.044   5.227   0.432  2.5492 -1.5077  0.8992
13527TIP3    H261997   1.021   5.091   0.369 -0.7313 -0.0836 -1.0927
13528TIP3   OH261998   0.946   6.285  16.839  0.2500 -0.2303 -0.0349
13528TIP3    H161999   0.947   6.217  16.772 -0.4552  0.6701 -0.9868
13528TIP3    H262000   0.854   6.310  16.846  0.4716  0.4539  0.4824
13529TIP3   OH262001   5.732   3.260   1.636 -0.1586 -0.1220 -0.7236
13529TIP3    H162002   5.712   3.179   1.682 -1.4865  2.0756  2.7581
13529TIP3    H262003   5.646   3.299   1.618  0.4962  2.4248  1.3568
13530TIP3   OH262004   6.235   0.161   0.398  0.1553  0.4251  0.6406
13530TIP3    H162005   6.227   0.066   0.398  0.4272  0.4006 -0.4732
13530TIP3    H262006   6.328   0.177   0.411  0.3704  0.5050 -0.8936
13531TIP3   OH262007   5.019   1.760   1.104  0.1982  0.0213  0.4984
13531TIP3    H162008   5.113   1.747   1.097  0.1015  0.3441 -1.3962
13531TIP3    H262009   5.009   1.852   1.127  0.3644 -0.1887  1.4362
13532TIP3   OH262010   0.359   4.977   2.979 -0.4067 -0.0932 -0.2115
13532TIP3    H162011   0.363   4.948   3.070 -0.4453  0.9958  0.1504
13532TIP3    H262012   0.277   5.027   2.974 -0.6465 -0.5543 -0.9698
13533TIP3   OH262013   3.358   4.965  16.903  0.4206 -0.0452  0.1724
13533TIP3    H162014   3.314   4.880  16.900  1.9194 -0.8151 -1.1610
13533TIP3    H262015   3.412   4.961  16.982 -0.0784 -0.0372  0.5145
13534TIP3   OH262016   4.562   3.079  14.320 -0.4059  0.2457 -0.0775
13534TIP3    H162017   4.533   3.052  14.407  0.9420  0.4629  0.4515
13534TIP3    H262018   4.485   3.067  14.264 -1.4548  0.6573  1.2583
13535TIP3   OH262019   1.994   0.203  15.872 -0.3266  0.0651 -0.3980
13535TIP3    H162020   1.959   0.269  15.932 -1.6416 -1.6131  0.7409
13535TIP3    H262021   1.978   0.119  15.916  1.2328 -1.0371 -1.8369
13536TIP3   OH262022   6.377   1.795  14.933 -0.1856  0.1936 -0.4156
13536TIP3    H162023   6.471   1.779  14.923  0.3896  3.1056 -0.0074
13536TIP3    H262024   6.341   1.710  14.961  2.1430 -1.2124 -1.5147
13537TIP3   OH262025   1.060   4.521  14.138 -0.1397 -0.2222  0.1819
13537TIP3    H162026   1.050   4.538  14.232  0.1520  2.6247 -0.2379
13537TIP3    H262027   0.980   4.557  14.099  1.1297  1.4915 -0.9291
13538TIP3   OH262028   3.034   4.694   4.298 -0.6009  0.0787  0.5511
13538TIP3    H162029   3.050   4.764   4.235 -1.1404 -0.5214 -0.2584
13538TIP3    H262030   2.980   4.735   4.366 -1.6224  0.2492 -0.3380
13539TIP3   OH262031   4.578   3.500  11.532  0.1061 -0.8559  0.5658
13539TIP3    H162032   4.652   3.556  11.511  0.6697 -1.3348  1.2548
13539TIP3    H262033   4.616   3.424  11.576 -0.5633 -2.1437 -1.0046
13540TIP3   OH262034   4.394   5.173   6.246 -0.1196 -0.2510  0.2729
13540TIP3    H162035   4.399   5.249   6.188  1.6471  0.3558  1.1490
13540TIP3    H262036   4.308   5.179   6.287  0.5844  2.2409  1.5264
13541TIP3   OH262037   0.577   2.259  14.032 -0.0878  0.8119 -0.4902
13541TIP3    H162038   0.600   2.191  14.096 -0.6316 -0.5068 -1.6875
13541TIP3    H262039   0.637   2.331  14.052 -1.0189  0.9129  2.2976
13542TIP3   OH262040   0.247   2.859   3.967  0.5687 -0.4857 -0.0050
13542TIP3    H162041   0.217   2.814   3.888 -0.4386 -0.7775  0.5258
13542TIP3    H262042   0.273   2.788   4.026  0.2967 -0.3161  0.3184
13543TIP3   OH262043   4.526   6.666   3.275  0.4887  0.4829  0.3234
13543TIP3    H162044   4.599   6.634   3.328  0.1743 -1.7848 -0.5683
13543TIP3    H262045   4.457   6.600   3.287  0.1292  0.3657 -2.2151
13544TIP3   OH262046   1.027   6.770   3.868 -0.0502 -0.2754  0.1758
13544TIP3    H162047   1.044   6.822   3.789 -1.5513 -1.4923 -0.9998
13544TIP3    H262048   1.074   6.814   3.937  1.0734  0.9948 -1.3706
13545TIP3   OH262049   4.199   1.489   1.238 -0.2927  0.3123 -0.2410
13545TIP3    H162050   4.288   1.473   1.206  0.0761  1.5884  0.1110
13545TIP3    H262051   4.177   1.411   1.287  1.1522  0.5228  0.7742
13546TIP3   OH262052   6.777   1.785   4.665 -0.3390  0.0764  0.3436
13546TIP3    H162053   6.752   1.720   4.731  3.0737 -1.4412  0.2627
13546TIP3    H262054   6.776   1.736   4.582 -0.2819  0.8239 -0.1026
13547TIP3   OH262055   0.830   0.907   1.503 -0.6471  0.3938  0.3567
13547TIP3    H162056   0.828   0.847   1.429 -2.4826 -1.5518  1.9349
13547TIP3    H262057   0.807   0.992   1.465  1.0344 -0.0446 -1.7308
13548TIP3   OH262058   6.360   0.475  10.644  0.2715  0.1298 -0.1738
13548TIP3    H162059   6.295   0.517  10.701  0.6711 -1.3170  1.3676
13548TIP3    H262060   6.434   0.456  10.701  1.4311  0.2938 -1.5814
13549TIP3   OH262061   2.465   0.971   3.088  0.6201  0.5986  0.2592
13549TIP3    H162062   2.418   1.042   3.130  1.2357  0.5702  1.0136
13549TIP3    H262063   2.505   1.010   3.011  0.2986  0.8778  0.2335
13550TIP3   OH262064   4.090   5.276   6.172  0.5872 -0.3533  0.1999
13550TIP3    H162065   4.074   5.361   6.131 -0.4943  0.0867  1.5092
13550TIP3    H262066   4.031   5.216   6.126  0.0564 -0.0402  0.4602
13551TIP3   OH262067   3.850   5.856   1.038  0.1980 -0.0396 -0.0353
13551TIP3    H162068   3.921   5.818   0.987  0.2727  2.0890 -1.5401
13551TIP3    H262069   3.884   5.862   1.127  1.1680 -0.8628 -0.3439
13552TIP3   OH262070   1.166   3.927   3.346  0.2888 -0.2909  0.0229
13552TIP3    H162071   1.249   3.963   3.312  0.2579 -0.4788 -0.2535
13552TIP3    H262072   1.098   3.978   3.301  0.2490 -0.4248 -0.0673
13553TIP3   OH262073   0.569   0.270   4.361  1.0726 -0.2340  0.4452
13553TIP3    H162074   0.605   0.351   4.396  2.0194 -0.0252 -0.9530
13553TIP3    H262075   0.633   0.202   4.386 -0.0540 -0.6580  2.1856
13554TIP3   OH262076   3.927   1.716  14.619  0.2619  0.0831 -0.1210
13554TIP3    H162077   3.866   1.726  14.692  1.3069 -1.0467  0.9257
13554TIP3    H262078   3.892   1.774  14.551 -1.4516  0.1531  0.7882
13555TIP3   OH262079   4.930   1.209  12.024  0.7590  0.1961 -0.4548
13555TIP3    H162080   5.012   1.230  12.069  1.5075  2.5564 -2.7734
13555TIP3    H262081   4.866   1.268  12.064  0.0535 -1.8409  1.5507
13556TIP3   OH262082   0.281   3.349   1.071 -0.6281  0.2979 -0.3694
13556TIP3    H162083   0.252   3.259   1.082 -0.2636  0.4485  2.0364
13556TIP3    H262084   0.216   3.401   1.118  0.8275  1.0325  0.8591
13557TIP3   OH262085   5.697   2.669   2.536  0.2775 -0.3402 -0.0762
13557TIP3    H162086   5.616   2.679   2.486  1.4530  0.4954 -1.9139
13557TIP3    H262087   5.766   2.679   2.470  1.8745 -0.5791  1.5257
13558TIP3   OH262088   0.522   1.723   3.862  0.2677  0.0833 -0.0806
13558TIP3    H162089   0.572   1.693   3.937 -0.6230  0.7909  0.8033
13558TIP3    H262090   0.534   1.654   3.796 -1.0259 -1.8165  1.6072
13559TIP3   OH262091   1.810   6.632   5.407 -0.2803 -0.2042 -0.3254
13559TIP3    H162092   1.727   6.637   5.455 -0.3134 -1.5332 -0.2385
13559TIP3    H262093   1.854   6.715   5.427 -1.0056 -0.0554  0.6895
13560TIP3   OH262094   4.412   0.473   5.141 -0.3209  0.2755 -0.0448
13560TIP3    H162095   4.387   0.512   5.058  0.0423 -0.8812 -0.7080
13560TIP3    H262096   4.432   0.381   5.120  0.2576  0.0940  1.2193
13561TIP3   OH262097   2.678   6.601   4.398 -0.0223 -0.3295 -0.3126
13561TIP3    H162098   2.591   6.618   4.361 -0.1242  0.0738  0.1110
13561TIP3    H262099   2.689   6.667   4.466  2.1523  2.0763 -2.8567
13562TIP3   OH262100   6.145   1.772  14.366 -0.2755  0.7776 -0.4927
13562TIP3    H162101   6.066   1.730  14.400 -0.2113  0.7152 -0.4211
13562TIP3    H262102   6.198   1.789  14.443 -0.1712  0.7207 -0.5526
13563TIP3   OH262103   3.617   0.491  15.397 -0.3937  1.0566 -0.1023
13563TIP3    H162104   3.607   0.577  15.436 -3.0664  0.6996  0.1172
13563TIP3    H262105   3.620   0.507  15.303  0.8499  1.5113  0.0080
13564TIP3   OH262106   5.694   0.904   3.554 -0.2600 -0.5351 -0.3139
13564TIP3    H162107   5.679   0.889   3.648  0.9203 -1.8039 -0.3167
13564TIP3    H262108   5.734   0.823   3.523  2.6358  1.1499 -1.1692
13565TIP3   OH262109   0.066   4.119  16.004 -0.2197  0.8357 -0.0572
13565TIP3    H162110  -0.020   4.077  16.001 -0.5315  1.4643 -0.0063
13565TIP3    H262111   0.099   4.113  15.914  0.4622 -0.9814  0.2820
13566TIP3   OH262112   2.185   3.948  13.823  0.8683  0.0978  0.3755
13566TIP3    H162113   2.131   3.871  13.805 -0.0195  1.1280 -1.5270
13566TIP3    H262114   2.272   3.912  13.842  0.1744 -1.4342  0.6985
13567TIP3   OH262115   0.869   6.236   6.556 -0.1541  0.2368 -0.7696
13567TIP3    H162116   0.858   6.278   6.641  1.0234 -0.1640 -0.4071
13567TIP3    H262117   0.784   6.197   6.537 -0.0877 -0.7067  0.7964
13568TIP3   OH262118   4.681   6.371  16.841  0.0249 -0.1596  0.7408
13568TIP3    H162119   4.761   6.421  16.859  0.1235 -0.3225  0.7643
13568TIP3    H262120   4.686   6.350  16.747 -0.0437 -0.0752  0.7210
13569TIP3   OH262121   4.930   4.276  15.397 -0.6935  0.3217 -0.1995
13569TIP3    H162122   4.925   4.302  15.305  1.1269 -0.4035 -0.5169
13569TIP3    H262123   4.898   4.352  15.446  0.5688  1.5902 -1.3142
13570TIP3   OH262124   0.707   6.348  13.951 -0.1797  0.0972  0.3392
13570TIP3    H162125   0.688   6.439  13.975 -0.4609 -0.3899  2.0957
13570TIP3    H262126   0.760   6.354  13.872 -0.1114  1.8001  0.4946
13571TIP3   OH262127   6.007   6.668  12.160  0.3212 -0.5627  0.1817
13571TIP3    H162128   5.964   6.592  12.121  1.0411 -0.9758  0.1846
13571TIP3    H262129   6.016   6.645  12.253  0.6251 -0.5124  0.1643
13572TIP3   OH262130   1.607   3.854  14.530 -0.5055  0.2027 -0.1148
13572TIP3    H162131   1.522   3.847  14.485 -0.5400  0.2285 -0.0519
13572TIP3    H262132   1.638   3.764  14.537 -1.1243  0.0688  1.0122
13573TIP3   OH262133   0.015   3.549   2.346 -0.1698  0.2521  0.5592
13573TIP3    H162134   0.044   3.638   2.367 -1.5863  1.2500 -1.5984
13573TIP3    H262135   0.004   3.507   2.432 -0.3049  2.4147  1.6462
13574TIP3   OH262136   6.117   0.413   2.932  0.5897  0.1929  0.3983
13574TIP3    H162137   6.205   0.380   2.948  0.5782  0.2344  0.5507
13574TIP3    H262138   6.116   0.438   2.840  0.9709  0.8920  0.5754
13575TIP3   OH262139   2.891   1.996   0.728 -0.1809 -0.2935  0.4164
13575TIP3    H162140   2.900   2.077   0.677 -3.6553  0.0961  0.3388
13575TIP3    H262141   2.884   1.927   0.662 -0.6476 -0.2673  0.4409
13576TIP3   OH262142   4.716   1.698   3.342  0.4550  0.0862 -0.4910
13576TIP3    H162143   4.759   1.684   3.427  1.3687 -0.6133 -1.0587
13576TIP3    H262144   4.670   1.616   3.325 -0.9691  0.7710  0.0274
13577TIP3   OH262145   0.959   0.090   4.335 -0.0550 -0.0867  0.1118
13577TIP3    H162146   0.880   0.059   4.290  1.1970 -1.1010 -1.4333
13577TIP3    H262147   0.934   0.175   4.372 -1.7506 -0.2295 -0.6753
13578TIP3   OH262148   3.820   3.654  11.166  0.8279 -0.2067  0.8689
13578TIP3    H162149   3.796   3.608  11.247  2.4742 -0.0899  1.4275
13578TIP3    H262150   3.835   3.584  11.103  2.5788 -0.4432  1.5151
13579TIP3   OH262151   3.864   0.410  15.544  0.0604  0.6938 -0.2248
13579TIP3    H162152   3.795   0.475  15.556 -0.2341  0.0562  1.8297
13579TIP3    H262153   3.839   0.338  15.603  1.1660 -0.6299 -1.3196
13580TIP3   OH262154   1.891   1.803  12.319 -0.0568 -0.2831 -0.1537
13580TIP3    H162155   1.917   1.881  12.271  0.7341 -1.4587 -1.6880
13580TIP3    H262156   1.974   1.760  12.341 -0.4442 -0.1551  1.6186
13581TIP3   OH262157   4.583   4.088   0.499 -0.1034  0.2442  0.3297
13581TIP3    H162158   4.598   4.057   0.410  0.0119  1.5090 -0.1038
13581TIP3    H262159   4.526   4.022   0.539  1.6128 -1.4522  0.0268
13582TIP3   OH262160   3.062   1.997   0.065 -0.2769  0.3177  0.0683
13582TIP3    H162161   3.050   2.067   0.002  0.0260  1.5566  1.3716
13582TIP3    H262162   2.991   2.008   0.128 -0.0850 -0.3890  0.4222
13583TIP3   OH262163   5.326   6.184   1.426  0.0547 -0.0737  0.5051
13583TIP3    H162164   5.338   6.224   1.340 -0.7903 -0.7159  0.0824
13583TIP3    H262165   5.325   6.257   1.488  1.3605  0.3400  0.0518
13584TIP3   OH262166   1.607   6.091   3.642  0.1369  0.3645 -0.2045
13584TIP3    H162167   1.598   6.038   3.563  2.6917  0.5792 -0.7022
13584TIP3    H262168   1.672   6.158   3.618 -0.0080  1.2041  1.6859
13585TIP3   OH262169   3.601   2.294   2.585 -0.1669  0.1704  0.0228
13585TIP3    H162170   3.548   2.223   2.548 -1.0878  0.1195  1.4029
13585TIP3    H262171   3.537   2.361   2.609  0.5419  0.7563  0.2751
13586TIP3   OH262172   1.891   2.095   0.973  0.1013  0.1334 -0.2469
13586TIP3    H162173   1.964   2.135   1.020 -0.1101  0.4347 -0.1747
13586TIP3    H262174   1.900   2.001   0.991  2.1906 -0.1549 -2.6629
13587TIP3   OH262175   4.585   3.322   2.213 -0.1955 -0.1638  0.2628
13587TIP3    H162176   4.645   3.284   2.149 -1.4715  0.0731 -1.1185
13587TIP3    H262177   4.527   3.249   2.238  0.9882 -0.5338  2.0102
13588TIP3   OH262178   4.611   6.769  15.969  0.0963 -0.8960 -0.2231
13588TIP3    H162179   4.677   6.712  16.008  0.4920 -0.4244 -0.2099
13588TIP3    H262180   4.632   6.769  15.875 -1.3121 -2.6453 -0.5821
13589TIP3   OH262181   0.692   0.468  16.803  0.0012  0.0791  0.6623
13589TIP3    H162182   0.758   0.501  16.865  0.1078  0.8213  0.1677
13589TIP3    H262183   0.739   0.406  16.748  0.3076  0.6429  0.2804
13590TIP3   OH262184   3.825   1.039  14.566  0.4028 -0.3323  0.2877
13590TIP3    H162185   3.772   0.974  14.520  1.1455 -0.5049 -0.3307
13590TIP3    H262186   3.911   0.998  14.575  0.2549 -0.3048  1.8519
13591TIP3   OH262187   1.951   3.687  15.326  0.4399 -0.2257  0.4098
13591TIP3    H162188   1.873   3.686  15.382  0.3828  1.8826  0.4167
13591TIP3    H262189   2.017   3.733  15.378  1.6070 -1.7339  0.2795
13592TIP3   OH262190   4.253   2.411  15.527 -0.1024  0.1421  0.3435
13592TIP3    H162191   4.210   2.331  15.555 -0.2582 -0.6996 -2.2008
13592TIP3    H262192   4.200   2.482  15.564 -1.9171 -0.9049 -0.2367
13593TIP3   OH262193   3.245   1.269  14.864  0.4611  0.2918  0.4189
13593TIP3    H162194   3.172   1.256  14.805  1.4649  0.9054 -0.9939
13593TIP3    H262195   3.276   1.181  14.885 -0.4505  0.0482  0.7446
13594TIP3   OH262196   2.625   6.119  16.936  0.0911 -0.4157 -0.2232
13594TIP3    H162197   2.630   6.112  16.841 -0.7264 -3.7500 -0.0775
13594TIP3    H262198   2.532   6.131  16.955  0.3166  0.8421  0.1473
13595TIP3   OH262199   0.568   6.108  15.389  0.7101 -0.0721 -0.0925
13595TIP3    H162200   0.588   6.016  15.374 -0.0942 -0.2357 -0.2016
13595TIP3    H262201   0.495   6.126  15.330 -0.3322  0.1518  1.2257
13596TIP3   OH262202   6.663   1.972   6.287  0.5066  0.0598 -0.3743
13596TIP3    H162203   6.668   1.946   6.195 -2.5423  0.7621 -0.7720
13596TIP3    H262204   6.683   2.065   6.286  0.6468  0.0306 -0.2921
13597TIP3   OH262205   1.024   0.035   4.827  0.1975 -0.2215  0.0498
13597TIP3    H162206   0.995  -0.044   4.781  0.9766 -0.8734  0.6583
13597TIP3    H262207   1.095   0.070   4.773 -0.5354  0.4086 -0.5290
13598TIP3   OH262208   3.102   4.591  15.683  0.3642  0.0069  0.1039
13598TIP3    H162209   3.075   4.676  15.715  1.0116 -0.4888  2.0010
13598TIP3    H262210   3.020   4.542  15.671  0.0735  0.4896  0.1336
13599TIP3   OH262211   2.233   1.471  10.761 -0.7188  0.1425 -0.2486
13599TIP3    H162212   2.150   1.457  10.715  0.1709  1.5844 -2.3363
13599TIP3    H262213   2.225   1.558  10.800  0.5933  1.1738 -2.2203
13600TIP3   OH262214   5.197   2.032  11.042  0.5199  0.0529  0.3196
13600TIP3    H162215   5.162   1.943  11.049  1.5229 -0.4083 -0.4993
13600TIP3    H262216   5.209   2.060  11.133  0.8224 -0.8861  0.5745
13601TIP3   OH262217   1.578   4.503   5.447  0.2763  0.0282 -0.0429
13601TIP3    H162218   1.512   4.455   5.397  1.7935 -0.7086 -1.3770
13601TIP3    H262219   1.657   4.450   5.440  0.6237  0.0886  2.8699
13602TIP3   OH262220   0.076   1.756   0.164  0.0953  0.0901  0.1908
13602TIP3    H162221   0.019   1.689   0.201  0.6772 -0.4414  0.1449
13602TIP3    H262222   0.096   1.814   0.237  1.7241 -1.2973  0.8728
13603TIP3   OH262223   1.693   0.957  13.622  0.0460 -0.0619  0.2691
13603TIP3    H162224   1.771   0.979  13.571  0.4830  0.9529  1.3518
13603TIP3    H262225   1.620   0.965  13.560  0.4737  1.9857 -0.0104
13604TIP3   OH262226   3.981   0.153   3.940 -0.2909 -0.0273  0.0681
13604TIP3    H162227   3.918   0.123   3.875  0.9600  1.4690 -1.8824
13604TIP3    H262228   3.930   0.205   4.002 -0.9498  1.4405 -1.6721
13605TIP3   OH262229   4.694   2.636  14.067 -0.1707  0.3444  0.0695
13605TIP3    H162230   4.766   2.613  14.125 -0.7951  1.1963  1.2102
13605TIP3    H262231   4.650   2.553  14.049 -0.6297  0.2186  1.7255
13606TIP3   OH262232   6.204   5.666  11.968  0.1633 -0.5011  0.6401
13606TIP3    H162233   6.230   5.714  11.890 -2.4380 -1.2414 -0.7421
13606TIP3    H262234   6.286   5.630  12.002  1.5705  1.2693 -0.7318
13607TIP3   OH262235   0.927   6.331  11.274  0.1720  0.0482  0.4693
13607TIP3    H162236   1.012   6.304  11.309  0.2089  0.5734  0.7864
13607TIP3    H262237   0.938   6.329  11.179 -0.1880 -2.2768  0.4512
13608TIP3   OH262238   2.843   5.984   4.515 -0.6218  0.3993 -0.6964
13608TIP3    H162239   2.835   6.066   4.467  0.5976  1.0748  0.2360
13608TIP3    H262240   2.794   5.920   4.462 -0.1983  1.3585 -2.2622
13609TIP3   OH262241   2.287   5.170  11.305  0.6708 -0.1129  0.0741
13609TIP3    H162242   2.228   5.095  11.302  0.7492 -0.1926  0.4353
13609TIP3    H262243   2.351   5.153  11.236 -0.3127  0.4720 -0.9877
13610TIP3   OH262244   2.465   4.662  16.812 -0.0001  0.0646  0.1545
13610TIP3    H162245   2.486   4.745  16.770 -0.2022  0.0999  0.1247
13610TIP3    H262246   2.497   4.672  16.902  0.5959 -0.0793 -0.0370
13611TIP3   OH262247   4.504   3.421  17.199 -0.4493 -0.4857  0.0581
13611TIP3    H162248   4.499   3.341  17.147 -2.2596 -0.6993  0.5407
13611TIP3    H262249   4.579   3.409  17.256  1.0117 -0.6400 -1.8477
13612TIP3   OH262250   2.460   0.566  14.770  0.0123 -0.3342 -0.2116
13612TIP3    H162251   2.367   0.569  14.744 -0.1483  0.3662  0.4187
13612TIP3    H262252   2.492   0.654  14.752  0.5379 -0.5570 -0.3503
13613TIP3   OH262253   4.820   6.048  14.180  0.1209  0.2132 -0.2424
13613TIP3    H162254   4.815   6.010  14.092  2.0066 -0.4363 -0.0995
13613TIP3    H262255   4.759   6.122  14.178 -0.3826 -0.2259 -1.8678
13614TIP3   OH262256   3.924   3.444   4.383 -0.1658 -0.4340 -0.1963
13614TIP3    H162257   3.985   3.428   4.456  2.0922 -1.5886 -2.2595
13614TIP3    H262258   3.904   3.356   4.350 -3.0886 -0.0807  0.4804
13615TIP3   OH262259   6.454   3.147  13.718 -0.3286 -0.2731 -0.5993
13615TIP3    H162260   6.517   3.117  13.782  0.4193  0.3857 -1.0153
13615TIP3    H262261   6.398   3.208  13.766  1.6296  1.9827 -1.0692
13616TIP3   OH262262   6.741   3.914  11.514  0.4768 -0.4265 -0.2215
13616TIP3    H162263   6.749   3.956  11.429 -0.0232 -2.5505 -1.3445
13616TIP3    H262264   6.756   3.821  11.497 -0.4507 -0.9969  1.8821
13617TIP3   OH262265   1.389   5.398  13.805 -0.3251 -0.2498 -0.2762
13617TIP3    H162266   1.390   5.303  13.792 -0.1257 -0.4977  1.3799
13617TIP3    H262267   1.347   5.409  13.890 -1.8007  1.2561 -1.1860
13618TIP3   OH262268   1.369   5.973  13.247 -0.2527 -0.2074 -0.0924
13618TIP3    H162269   1.377   6.057  13.292 -0.1367  0.7706 -1.8821
13618TIP3    H262270   1.458   5.950  13.222 -0.2604 -0.9601  0.5657
13619TIP3   OH262271   1.366   3.403   4.538 -0.4558 -0.6000  0.1880
13619TIP3    H162272   1.351   3.392   4.445  2.2427 -0.6106 -0.2877
13619TIP3    H262273   1.400   3.493   4.546 -0.1975 -0.7734  1.0870
13620TIP3   OH262274   0.593   2.089  14.488  0.3465 -0.2323 -0.2798
13620TIP3    H162275   0.616   2.076  14.580 -0.8894  0.8348  0.2010
13620TIP3    H262276   0.562   2.003  14.458  0.0957 -0.4184  0.5075
13621TIP3   OH262277   2.052   6.630   0.082 -0.0583 -0.1287 -0.3533
13621TIP3    H162278   2.000   6.651   0.159  2.8786 -0.1984  1.7647
13621TIP3    H262279   1.994   6.647   0.008 -2.8284  0.3574  1.8445
13622TIP3   OH262280   5.788   5.901  12.538 -0.3260  0.4420  0.0183
13622TIP3    H162281   5.755   5.822  12.582  0.1897  1.1870  1.7902
13622TIP3    H262282   5.844   5.868  12.469 -0.4032 -0.7600  0.5174
13623TIP3   OH262283   4.757   3.572  10.405 -0.2209 -0.6525  0.2918
13623TIP3    H162284   4.753   3.614  10.318  0.8982 -1.0135  0.0538
13623TIP3    H262285   4.725   3.483  10.390 -0.2340 -0.6477  0.2900
13624TIP3   OH262286   5.407   2.274  10.407  0.1903 -0.1664 -0.7903
13624TIP3    H162287   5.406   2.306  10.497 -0.4320 -0.9608 -0.5064
13624TIP3    H262288   5.390   2.351  10.354 -3.2006 -0.2759 -0.0226
13625TIP3   OH262289   2.284   4.907  13.129  0.0730 -0.2360 -0.1652
13625TIP3    H162290   2.353   4.878  13.069 -1.2230 -0.7124 -1.4733
13625TIP3    H262291   2.240   4.826  13.155  0.2079  0.0353  0.9277
13626TIP3   OH262292   1.085   6.690  12.072  0.0721  0.6819  0.9123
13626TIP3    H162293   1.044   6.736  11.998  1.0392  0.6826  0.3674
13626TIP3    H262294   1.013   6.647  12.117 -0.4155 -0.0341 -0.5478
13627TIP3   OH262295   1.202   2.701  11.760 -0.3733  0.0354  0.2858
13627TIP3    H162296   1.137   2.706  11.690 -1.6602 -1.0322  1.3580
13627TIP3    H262297   1.188   2.780  11.812 -1.3169 -0.5239  0.9085
13628TIP3   OH262298   1.421   4.992   5.742 -0.5846  0.9638 -0.0642
13628TIP3    H162299   1.334   5.022   5.770 -0.6289  1.6064 -0.8812
13628TIP3    H262300   1.432   5.029   5.655 -0.0398 -0.2041 -0.5043
13629TIP3   OH262301   5.145   2.239   4.087  0.3303  0.8256 -0.2030
13629TIP3    H162302   5.187   2.285   4.160  1.0117  1.2148 -0.8366
13629TIP3    H262303   5.055   2.226   4.116  0.5697  1.0546  0.6754
13630TIP3   OH262304   1.124   2.426  16.010 -0.3626 -0.1675  0.0763
13630TIP3    H162305   1.150   2.391  15.925 -0.5906 -1.6678  0.6136
13630TIP3    H262306   1.207   2.440  16.056 -0.2305  0.7923 -0.4303
13631TIP3   OH262307   3.045   5.629   5.949 -0.2822 -0.4830 -0.4232
13631TIP3    H162308   3.097   5.572   6.006 -0.3666  0.1190  0.2629
13631TIP3    H262309   3.080   5.613   5.861 -0.2945 -1.5793 -0.2421
13632TIP3   OH262310   2.732   0.678   0.635 -0.3784 -0.0902 -0.3101
13632TIP3    H162311   2.731   0.673   0.730 -0.2017  1.4621 -0.2179
13632TIP3    H262312   2.824   0.679   0.611 -0.4021  1.1464 -0.3905
13633TIP3   OH262313   1.864   1.650  16.189  0.1168 -0.1684 -0.0888
13633TIP3    H162314   1.877   1.621  16.279  1.8573 -0.6103 -0.4712
13633TIP3    H262315   1.935   1.713  16.173  0.2333 -0.6120 -1.3628
13634TIP3   OH262316   2.686   1.120   2.070 -0.3769 -0.6499  0.7873
13634TIP3    H162317   2.664   1.027   2.081 -0.8764 -0.6383 -0.0656
13634TIP3    H262318   2.641   1.146   1.990  1.0560 -0.0801  0.1407
13635TIP3   OH262319   3.113   4.514   3.132 -0.0647 -0.6745  0.1638
13635TIP3    H162320   3.087   4.424   3.113  0.3934 -0.7237 -0.2293
13635TIP3    H262321   3.139   4.513   3.224  0.8455 -1.1507 -0.0959
13636TIP3   OH262322   3.481   3.710   2.268 -0.3167 -0.5589 -0.1431
13636TIP3    H162323   3.531   3.629   2.257 -1.8409 -1.4748 -0.4833
13636TIP3    H262324   3.492   3.756   2.185  0.7494 -0.2854  0.1369
13637TIP3   OH262325   0.367   5.382  15.991  0.0423  0.2079  0.1785
13637TIP3    H162326   0.370   5.409  16.083 -2.0927 -0.7421  0.5804
13637TIP3    H262327   0.316   5.450  15.948 -1.0285 -0.5676  0.1983
13638TIP3   OH262328   5.745   0.829   0.726 -0.5721  0.2342  0.3455
13638TIP3    H162329   5.837   0.839   0.702 -0.6245 -1.1280 -0.4890
13638TIP3    H262330   5.744   0.833   0.821  0.5256 -1.1595  0.4226
13639TIP3   OH262331   6.538   2.314   1.370 -0.1930 -0.5004 -0.2540
13639TIP3    H162332   6.512   2.234   1.416 -3.1738  1.0105  0.8548
13639TIP3    H262333   6.575   2.370   1.439 -2.4382  0.8359 -0.0778
13640TIP3   OH262334   2.559   0.099   2.065 -0.2743 -0.4448 -0.0004
13640TIP3    H162335   2.513   0.179   2.039  0.6904  0.1794  0.1903
13640TIP3    H262336   2.648   0.128   2.087  0.2105 -1.6221 -0.3322
13641TIP3   OH262337   5.905   3.598   3.798 -0.3006  0.3473  0.6391
13641TIP3    H162338   5.876   3.686   3.772  2.2663  1.1500  0.3439
13641TIP3    H262339   5.937   3.558   3.717  0.3407 -0.1343  1.1230
13642TIP3   OH262340   3.783   2.110  16.484 -0.9183 -0.8809  0.0876
13642TIP3    H162341   3.846   2.182  16.493 -0.2002 -1.6131  1.1008
13642TIP3    H262342   3.704   2.143  16.527 -0.1936 -1.1497  1.6698
13643TIP3   OH262343   1.004   2.520  14.410 -0.3405  0.6227  0.8539
13643TIP3    H162344   1.053   2.438  14.409 -1.3473  0.0089 -0.3078
13643TIP3    H262345   1.008   2.550  14.500 -0.4826 -1.0354  1.4204
13644TIP3   OH262346   6.778   6.135  16.684 -0.3652  0.3872 -0.3002
13644TIP3    H162347   6.833   6.078  16.737 -0.4284  0.4971 -0.1167
13644TIP3    H262348   6.695   6.088  16.676  0.0254 -0.1561 -1.2667
13645TIP3   OH262349   6.367   3.901  12.686 -0.5674 -0.0923  0.0670
13645TIP3    H162350   6.461   3.910  12.669 -0.1892 -1.0994  1.5801
13645TIP3    H262351   6.355   3.809  12.707 -1.9490 -0.0137 -0.3362
13646TIP3   OH262352   3.906   0.740   4.429 -0.7913  0.5931  0.7353
13646TIP3    H162353   3.969   0.706   4.365 -2.6656  1.4077 -1.6195
13646TIP3    H262354   3.960   0.773   4.501  1.5209  1.6370 -1.3964
13647TIP3   OH262355   1.638   2.145   2.798 -0.7946 -0.5758  0.1299
13647TIP3    H162356   1.599   2.219   2.752 -0.3895  0.2457  1.1126
13647TIP3    H262357   1.638   2.170   2.890  0.4799 -1.2793  0.3340
13648TIP3   OH262358   2.904   1.683  11.498  0.1806  0.0783 -0.4404
13648TIP3    H162359   2.988   1.699  11.541  0.9712 -0.4733 -1.7429
13648TIP3    H262360   2.916   1.600  11.452 -2.0441 -1.5049  1.7297
13649TIP3   OH262361   0.646   3.502  11.324  0.0848 -0.3826  0.1694
13649TIP3    H162362   0.699   3.442  11.273  1.4758  1.0222 -0.0696
13649TIP3    H262363   0.555   3.475  11.307  0.6669 -2.0875 -0.2950
13650TIP3   OH262364   0.423   6.432  13.341  0.3148  0.8919  0.2200
13650TIP3    H162365   0.496   6.489  13.318  0.0960  0.6914 -1.0468
13650TIP3    H262366   0.349   6.490  13.351  0.5449  1.0477  1.0456
13651TIP3   OH262367   3.159   1.475  13.189  0.1097 -0.2302  0.2242
13651TIP3    H162368   3.100   1.457  13.117  1.3338  1.9781 -1.3861
13651TIP3    H262369   3.177   1.389  13.228 -2.4942 -1.1469 -0.5217
13652TIP3   OH262370   0.827   0.082   0.658 -0.0568  0.1624  0.2023
13652TIP3    H162371   0.782   0.144   0.601 -0.7591  0.6316  1.2438
13652TIP3    H262372   0.853   0.134   0.734 -1.8146 -1.0643  1.6873
13653TIP3   OH262373   1.671   4.503   2.691 -0.3655 -0.1584  0.3749
13653TIP3    H162374   1.654   4.410   2.705  0.9586 -0.4331  0.2305
13653TIP3    H262375   1.758   4.505   2.652  0.0007  1.2048  1.2582
13654TIP3   OH262376   2.290   5.817   5.370  0.3375 -0.4208  0.1211
13654TIP3    H162377   2.301   5.871   5.292  0.1686 -1.9780 -0.9919
13654TIP3    H262378   2.379   5.797   5.399  0.4017  0.7024  0.7261
13655TIP3   OH262379   1.045   0.942  14.868  0.0936 -0.4104 -0.2225
13655TIP3    H162380   1.042   0.937  14.772  1.5463 -0.7108 -0.2521
13655TIP3    H262381   1.136   0.963  14.888 -0.0405 -1.1205  1.1323
13656TIP3   OH262382   3.646   0.862   4.476 -0.2688 -0.0512 -0.1189
13656TIP3    H162383   3.734   0.823   4.471  0.0397  0.7887 -1.5115
13656TIP3    H262384   3.637   0.910   4.394 -0.5987  2.9157  1.5908
13657TIP3   OH262385   2.582   2.626   2.006 -0.3238 -0.0764 -0.2167
13657TIP3    H162386   2.554   2.545   1.962 -2.9348  0.7347 -0.1412
13657TIP3    H262387   2.618   2.680   1.935  2.3484 -1.6421 -0.1113
13658TIP3   OH262388   4.639   0.403   1.671 -0.1384  0.7285 -0.3323
13658TIP3    H162389   4.595   0.436   1.749  1.9504  1.2820  0.6580
13658TIP3    H262390   4.611   0.462   1.601 -0.9213  1.0879  0.2771
13659TIP3   OH262391   4.556   2.688  15.276 -0.1112 -0.2118 -0.5624
13659TIP3    H162392   4.647   2.704  15.298  0.3029 -0.6773 -1.8859
13659TIP3    H262393   4.537   2.601  15.309  0.1375 -0.3978 -0.9077
13660TIP3   OH262394   6.281   1.181  15.449  0.4346  0.0379 -0.4608
13660TIP3    H162395   6.324   1.256  15.491  2.8153 -2.4349  1.6687
13660TIP3    H262396   6.343   1.150  15.384 -0.0480 -0.7686 -0.5470
13661TIP3   OH262397   2.326   1.225   6.048 -0.4560  0.4300 -0.4351
13661TIP3    H162398   2.395   1.179   6.096  0.2255  2.0666  0.1828
13661TIP3    H262399   2.274   1.268   6.116 -1.2745  0.3497 -0.9915
13662TIP3   OH262400   3.441   3.550   1.124 -0.1908  0.1981 -0.4261
13662TIP3    H162401   3.426   3.459   1.150  3.3101 -0.0949  0.7533
13662TIP3    H262402   3.375   3.566   1.056  0.3742 -3.8020 -2.0812
13663TIP3   OH262403   0.836   3.435  11.916 -0.0727  0.3388 -0.2730
13663TIP3    H162404   0.862   3.425  11.825 -0.5570  0.6232 -0.4467
13663TIP3    H262405   0.918   3.427  11.966  0.2406  0.5316 -0.7572
13664TIP3   OH262406   5.632   5.850  14.048  0.2389 -0.1059 -0.1483
13664TIP3    H162407   5.680   5.851  13.965  0.7258 -2.3690  0.0681
13664TIP3    H262408   5.552   5.899  14.030  1.0536  0.7452 -1.5084
13665TIP3   OH262409   4.619   3.771  16.882 -0.0896  0.1428 -0.2170
13665TIP3    H162410   4.569   3.767  16.800  0.5130  0.1465 -0.5867
13665TIP3    H262411   4.703   3.731  16.861  0.3739  0.9001  0.1756
13666TIP3   OH262412   6.416   5.957  11.803 -0.7528 -0.0425  0.3507
13666TIP3    H162413   6.446   5.974  11.893 -0.3928 -1.0021  0.4089
13666TIP3    H262414   6.465   5.880  11.775  0.1304  1.0529 -1.1690
13667TIP3   OH262415   3.856   4.602   2.893  0.0836 -0.0817  0.4445
13667TIP3    H162416   3.885   4.526   2.942 -0.9424 -0.6512  0.1796
13667TIP3    H262417   3.788   4.642   2.947 -2.1199 -1.5586 -1.1323
13668TIP3   OH262418   1.213   2.669   0.783  0.5092  0.0542 -0.6297
13668TIP3    H162419   1.160   2.725   0.840  0.5975 -1.6682  1.1829
13668TIP3    H262420   1.206   2.709   0.696 -2.4387  0.7547 -0.0927
13669TIP3   OH262421   1.996   1.127  15.448  0.6172 -0.0070 -0.6361
13669TIP3    H162422   2.009   1.177  15.368  0.2140 -1.4178 -1.5991
13669TIP3    H262423   1.934   1.180  15.499 -0.1039  0.2994 -1.8028
13670TIP3   OH262424   6.103   0.593  14.544  0.2873  0.2610  0.0557
13670TIP3    H162425   6.168   0.657  14.574  2.0681 -1.1161 -0.8016
13670TIP3    H262426   6.137   0.509  14.573 -1.1104 -0.4945 -0.4417
13671TIP3   OH262427   2.414   2.421   0.763  0.6287  0.2316  0.1268
13671TIP3    H162428   2.451   2.334   0.748  2.8708  1.2643 -0.5386
13671TIP3    H262429   2.476   2.481   0.721 -2.6496  1.9345 -2.4597
13672TIP3   OH262430   2.949   1.098   2.163  0.1731  0.6337  0.0775
13672TIP3    H162431   2.857   1.101   2.138 -0.0824  0.9795  1.0592
13672TIP3    H262432   2.948   1.082   2.257  1.1058  1.9681  0.3222
13673TIP3   OH262433   5.950   5.524  14.691  0.4850  0.4265  0.0736
13673TIP3    H162434   5.856   5.508  14.682  0.5751 -0.8785  1.3313
13673TIP3    H262435   5.967   5.598  14.633 -1.2633  0.4798 -0.4008
13674TIP3   OH262436   4.407   5.126   6.565 -0.2875  0.4052  0.0342
13674TIP3    H162437   4.327   5.159   6.524  0.2497 -0.7790 -2.0625
13674TIP3    H262438   4.421   5.183   6.640 -0.5882  3.5720 -2.2074
13675TIP3   OH262439   3.330   4.694  11.644  0.3579  0.4197 -0.4046
13675TIP3    H162440   3.425   4.695  11.652  0.3742  0.8271 -0.6496
13675TIP3    H262441   3.312   4.733  11.559 -0.0217  0.1873 -0.4345
13676TIP3   OH262442   1.020   5.490  15.495 -0.0228  0.3615 -0.0303
13676TIP3    H162443   1.112   5.467  15.503 -0.1059  0.3835  1.0947
13676TIP3    H262444   1.019   5.585  15.498 -0.0471  0.3750 -0.4535
13677TIP3   OH262445   2.557   5.600  14.974  0.3548  0.3498  0.4441
13677TIP3    H162446   2.538   5.663  15.043  0.6747 -0.9238  1.7222
13677TIP3    H262447   2.652   5.590  14.976  0.6313  2.0214 -1.7484
13678TIP3   OH262448   1.260   4.447   5.381  0.4606  0.2292 -0.3221
13678TIP3    H162449   1.280   4.537   5.357  1.2446 -0.1058 -0.9562
13678TIP3    H262450   1.227   4.408   5.300 -0.4971  0.1155  0.1102
13679TIP3   OH262451   2.616   1.696   6.696 -0.4929 -0.2983  0.0447
13679TIP3    H162452   2.711   1.691   6.705 -0.5123 -1.1959 -0.1182
13679TIP3    H262453   2.601   1.746   6.616 -0.1352 -0.7758 -0.3249
13680TIP3   OH262454   2.466   0.064  11.704  1.1202 -0.3767 -0.2472
13680TIP3    H162455   2.448  -0.028  11.685  0.3719 -0.5824  1.4252
13680TIP3    H262456   2.541   0.062  11.764 -0.5874 -0.0450  1.9462
13681TIP3   OH262457   1.042   3.990  11.872  0.0134 -0.3856 -0.0405
13681TIP3    H162458   1.086   3.921  11.822  1.4941  1.1914 -0.9594
13681TIP3    H262459   0.957   4.000  11.829  0.8117  0.1293 -1.5502
13682TIP3   OH262460   1.026   5.695  13.188 -0.4062 -0.3595  0.1960
13682TIP3    H162461   1.100   5.634  13.195 -1.3695 -1.3268  2.2961
13682TIP3    H262462   0.948   5.640  13.192 -1.2633  0.7344 -1.1382
13683TIP3   OH262463   1.966   5.118   5.503 -0.2400 -0.6215 -0.1173
13683TIP3    H162464   1.941   5.084   5.589 -2.3895  1.9446  0.3503
13683TIP3    H262465   2.049   5.163   5.519  0.2004 -1.5595  0.2626
13684TIP3   OH262466   3.111   0.747  11.911  0.0337 -0.0732  0.2341
13684TIP3    H162467   3.022   0.729  11.941  0.0319  0.1079  0.3320
13684TIP3    H262468   3.111   0.720  11.819  0.4242 -1.9569  0.7459
13685TIP3   OH262469   3.724   2.141   2.854  0.1241 -0.3065 -0.1781
13685TIP3    H162470   3.787   2.193   2.904 -2.2830  1.2264  1.3300
13685TIP3    H262471   3.664   2.204   2.817 -1.4320 -1.8382 -0.3329
13686TIP3   OH262472   1.063   4.668   4.540  0.9103  0.2063 -0.5599
13686TIP3    H162473   1.086   4.594   4.484  0.2024 -0.1692 -0.3700
13686TIP3    H262474   1.069   4.634   4.629 -0.6516 -0.0036 -0.5163
13687TIP3   OH262475   4.723   3.336  16.611  0.3158  0.0266  0.2475
13687TIP3    H162476   4.808   3.379  16.622  0.8481 -1.2512  1.2302
13687TIP3    H262477   4.744   3.245  16.591 -0.8249 -0.2248  0.1491
13688TIP3   OH262478   3.334   1.214  16.539 -0.3000 -0.1451 -0.2252
13688TIP3    H162479   3.271   1.285  16.550  0.5486  0.5105  0.5373
13688TIP3    H262480   3.322   1.185  16.449  0.6388  2.2579 -1.1822
13689TIP3   OH262481   6.257   3.090  14.175  0.0639 -0.0415 -0.0955
13689TIP3    H162482   6.333   3.060  14.226  0.5868  1.1837 -0.1321
13689TIP3    H262483   6.196   3.125  14.241  0.5560  1.1479 -0.2525
13690TIP3   OH262484   2.426   3.610   4.985  0.4433 -0.5769  0.0545
13690TIP3    H162485   2.432   3.545   4.914  0.7387  0.7320 -1.1416
13690TIP3    H262486   2.516   3.621   5.014  0.2447 -1.5865  1.0891
13691TIP3   OH262487   3.255   0.611   0.457 -0.4926 -0.1031  0.0752
13691TIP3    H162488   3.304   0.681   0.413 -1.3179 -0.9338 -2.2573
13691TIP3    H262489   3.323   0.549   0.485  0.0845  0.5838  0.2036
13692TIP3   OH262490   6.180   5.365  11.741 -0.1945 -0.0424  0.1684
13692TIP3    H162491   6.176   5.447  11.790  2.6425 -0.0624  0.4847
13692TIP3    H262492   6.129   5.303  11.794 -0.9043  1.0619  0.7959
13693TIP3   OH262493   1.688   0.598  12.956 -0.1570 -0.3168 -0.4458
13693TIP3    H162494   1.621   0.540  12.991 -1.1100  2.2821  2.3839
13693TIP3    H262495   1.639   0.663  12.905  0.2570  0.9363  0.7032
13694TIP3   OH262496   5.702   2.762  11.703 -0.0687 -0.6142 -0.5388
13694TIP3    H162497   5.716   2.856  11.699 -1.1471 -0.4776 -1.1095
13694TIP3    H262498   5.630   2.745  11.642  0.0885 -1.7991 -0.4142
13695TIP3   OH262499   2.888   1.776  16.909 -0.3262  0.2396 -0.1892
13695TIP3    H162500   2.875   1.685  16.937 -0.7242 -0.7063 -3.2277
13695TIP3    H262501   2.810   1.822  16.940 -0.9709 -0.8423 -0.1797
13696TIP3   OH262502   2.356   5.703   5.732 -0.1838  0.2923  0.0043
13696TIP3    H162503   2.369   5.610   5.711  0.7541  0.4034  0.0823
13696TIP3    H262504   2.262   5.717   5.721 -0.0531 -0.1881 -1.8959
13697TIP3   OH262505   3.497   1.992  16.086  0.0488  0.0290  0.3686
13697TIP3    H162506   3.403   1.979  16.098 -0.2007  1.5011  0.1913
13697TIP3    H262507   3.516   2.073  16.135  1.0541  0.2327 -0.3371
13698TIP3   OH262508   2.369   1.696  13.238  0.1480 -0.3575 -0.2202
13698TIP3    H162509   2.420   1.734  13.310  0.9250  0.0108 -0.9467
13698TIP3    H262510   2.432   1.642  13.190  0.2274  1.1759 -1.9270
13699TIP3   OH262511   0.561   2.996  16.816 -0.1617  0.2305  0.1890
13699TIP3    H162512   0.475   3.032  16.839 -0.4467 -0.6752  0.6169
13699TIP3    H262513   0.546   2.901  16.813  1.4106 -0.1758  2.9576
13700TIP3   OH262514   4.542   2.992  15.151 -0.0634 -0.2760  0.6123
13700TIP3    H162515   4.580   2.908  15.125  0.9569  0.1010  0.8484
13700TIP3    H262516   4.611   3.056  15.133 -0.9294  0.5515  0.1793
13701TIP3   OH262517   4.064   6.558  11.272  0.0003 -0.4796 -0.6576
13701TIP3    H162518   4.154   6.527  11.261  0.3251  0.5122 -0.8753
13701TIP3    H262519   4.017   6.524  11.196  0.3325 -0.5092 -0.8503
13702TIP3   OH262520   5.199   4.715   0.969  0.4187  0.4785 -0.6357
13702TIP3    H162521   5.251   4.772   1.026 -1.8398 -0.1640  2.2096
13702TIP3    H262522   5.125   4.769   0.943  0.8280  0.3835 -2.0098
13703TIP3   OH262523   0.239   2.553  12.940  0.5992  0.3815 -0.1722
13703TIP3    H162524   0.299   2.606  12.993  0.6171  0.8556 -0.6589
13703TIP3    H262525   0.153   2.594  12.953  0.7171  0.9377 -1.0561
13704TIP3   OH262526   1.428   2.002  11.312  0.3456  0.1301 -0.6841
13704TIP3    H162527   1.508   1.950  11.303  0.4441  0.1577 -0.0298
13704TIP3    H262528   1.359   1.947  11.275  0.4621 -0.4401 -0.0703
13705TIP3   OH262529   1.149   0.340   1.440 -0.1554  0.2477  0.4044
13705TIP3    H162530   1.065   0.337   1.395 -0.0312 -0.8173  0.2353
13705TIP3    H262531   1.147   0.422   1.489 -1.5433 -0.0485  0.8711
13706TIP3   OH262532   0.365   2.548  12.404 -0.1149  0.5878  0.5058
13706TIP3    H162533   0.317   2.471  12.435  1.2032 -0.2548  0.5036
13706TIP3    H262534   0.328   2.621  12.454 -1.2545 -0.0695  0.6414
13707TIP3   OH262535   3.159   1.990   0.893  0.1556 -0.1539  0.0248
13707TIP3    H162536   3.196   1.901   0.889  1.1818  0.3167 -1.4948
13707TIP3    H262537   3.187   2.031   0.811 -1.6023  1.0816  0.0033
13708TIP3   OH262538   0.417   5.930  16.680 -0.6613 -0.2305  0.3623
13708TIP3    H162539   0.426   5.986  16.604 -0.7837 -1.0978 -0.3016
13708TIP3    H262540   0.436   5.842  16.648 -0.3213 -0.5551  1.4130
13709TIP3   OH262541   1.920   3.842  13.554 -0.0986 -0.4668 -0.0742
13709TIP3    H162542   1.882   3.852  13.467 -1.8076  1.3907  0.8396
13709TIP3    H262543   2.001   3.893  13.551 -0.4020 -0.0027 -0.4373
13710TIP3   OH262544   4.331   0.975   4.719 -0.2251  0.2092  0.2012
13710TIP3    H162545   4.308   0.915   4.790 -2.0908 -0.0026 -0.5300
13710TIP3    H262546   4.364   0.918   4.649  0.3059  0.2771  0.3975
13711TIP3   OH262547   1.756   4.231   4.560 -0.2713 -0.2325 -0.4267
13711TIP3    H162548   1.729   4.297   4.496 -2.3816  0.7248  1.3837
13711TIP3    H262549   1.792   4.281   4.633 -1.3894 -1.0719  0.7379
13712TIP3   OH262550   0.300   4.562  17.163  0.0863 -0.1164  0.3299
13712TIP3    H162551   0.333   4.488  17.215  0.1964 -0.7006 -0.5553
13712TIP3    H262552   0.276   4.628  17.228  0.1680 -0.8567  1.1253
13713TIP3   OH262553   0.271   1.451  16.661 -0.3069  0.0430  0.6003
13713TIP3    H162554   0.177   1.434  16.674 -0.1754 -1.2344 -0.1325
13713TIP3    H262555   0.273   1.529  16.604 -0.9597 -1.4443 -1.5211
13714TIP3   OH262556   4.985   6.443  11.746  0.2355  0.1638 -0.2800
13714TIP3    H162557   4.889   6.447  11.750  0.3160  0.6085  1.3312
13714TIP3    H262558   5.004   6.432  11.653 -1.4933 -2.9201 -0.3174
13715TIP3   OH262559   0.466   0.664  14.825 -0.1031  0.2464  0.0479
13715TIP3    H162560   0.541   0.698  14.776 -0.7053  3.4669  1.2090
13715TIP3    H262561   0.417   0.612  14.761  2.5084 -1.0035 -1.0021
13716TIP3   OH262562   2.862   4.236  11.694  0.4586 -0.0959  1.2861
13716TIP3    H162563   2.951   4.208  11.671  0.1197  0.1904 -0.4449
13716TIP3    H262564   2.847   4.199  11.781  1.6653 -1.5512  0.8981
13717TIP3   OH262565   1.262   0.298   5.858 -0.7907  0.0312 -0.2685
13717TIP3    H162566   1.291   0.209   5.876  0.9238  0.7203  0.4319
13717TIP3    H262567   1.281   0.346   5.938 -2.9866  0.7379 -0.1327
13718TIP3   OH262568   1.837   0.546   3.207 -0.0916  0.5894  0.1523
13718TIP3    H162569   1.858   0.543   3.301 -2.6027 -1.2986  0.7114
13718TIP3    H262570   1.916   0.512   3.164  0.9602  1.1583  1.5918
13719TIP3   OH262571   6.359   5.461  13.227 -0.3077  0.1022  0.6200
13719TIP3    H162572   6.401   5.514  13.295 -1.7535 -0.5791  2.0768
13719TIP3    H262573   6.376   5.371  13.255  0.3633 -0.2012 -0.7374
13720TIP3   OH262574   6.556   5.824   4.622 -0.3949  0.1984 -0.3158
13720TIP3    H162575   6.545   5.748   4.680 -1.5723  0.2189 -0.4992
13720TIP3    H262576   6.478   5.824   4.567 -0.6245  1.7843 -0.0362
13721TIP3   OH262577   1.692   4.788   4.755 -0.2591  0.1354 -0.5081
13721TIP3    H162578   1.700   4.810   4.848  2.4840  0.7488 -0.8624
13721TIP3    H262579   1.629   4.851   4.721  0.0985  1.0826  0.5625
13722TIP3   OH262580   4.848   0.534  11.449 -0.7036  0.1660  0.1661
13722TIP3    H162581   4.827   0.442  11.466 -0.9046 -0.2615 -2.1913
13722TIP3    H262582   4.933   0.547  11.491 -0.5825 -1.1560  0.3647
13723TIP3   OH262583   4.748   1.282   1.548 -0.4641  0.2431  0.4619
13723TIP3    H162584   4.799   1.207   1.580 -0.7343 -0.0670  0.1628
13723TIP3    H262585   4.801   1.318   1.476  0.2570  1.0836  1.4002
13724TIP3   OH262586   3.493   0.860   6.792  0.0458 -0.1704  0.0994
13724TIP3    H162587   3.539   0.783   6.757 -0.4807 -0.5542  0.2373
13724TIP3    H262588   3.419   0.823   6.840 -0.8259  0.4554 -0.7376
13725TIP3   OH262589   3.891   6.298   4.191  0.8936 -0.6544 -0.1311
13725TIP3    H162590   3.928   6.342   4.115 -0.3943  1.6936  0.5573
13725TIP3    H262591   3.797   6.309   4.183  0.8139  2.9108  3.5754
13726TIP3   OH262592   4.169   0.931  17.198  0.1171 -0.0189  0.6479
13726TIP3    H162593   4.131   0.990  17.263 -0.9174  0.0241  0.0047
13726TIP3    H262594   4.208   0.860  17.250 -1.2276 -0.2912  1.3034
13727TIP3   OH262595   3.464   1.064   3.503  0.7034 -0.2179 -0.1820
13727TIP3    H162596   3.388   1.062   3.561  0.1143  0.1032 -0.9324
13727TIP3    H262597   3.463   1.153   3.465  0.4857 -0.7474 -1.4534
13728TIP3   OH262598   5.081   6.571   1.715  0.2672 -0.1475 -0.2428
13728TIP3    H162599   4.992   6.536   1.702  0.1819  0.6018 -1.8425
13728TIP3    H262600   5.070   6.642   1.777 -0.2500 -0.0664 -0.4220
13729TIP3   OH262601   1.297   5.053   1.344  0.1841  0.0135 -0.6412
13729TIP3    H162602   1.238   5.010   1.406  1.5812 -0.6051  0.2865
13729TIP3    H262603   1.325   4.983   1.285  0.4296  0.1937 -0.7391
13730TIP3   OH262604   3.207   6.041   2.202 -0.0700  0.1169 -0.7069
13730TIP3    H162605   3.255   6.067   2.281  1.4153 -1.3752 -1.0825
13730TIP3    H262606   3.239   6.100   2.134  0.3537 -0.0924 -0.6906
13731TIP3   OH262607   0.381   1.267  14.388 -0.0725 -0.2282 -0.0473
13731TIP3    H162608   0.362   1.251  14.481  0.0466 -2.2052 -0.3445
13731TIP3    H262609   0.297   1.295  14.351 -0.4133 -0.6517  0.3969
13732TIP3   OH262610   0.962   3.199  16.029  0.3905 -0.0443  0.1036
13732TIP3    H162611   0.884   3.240  15.993 -2.3014 -4.1667  0.8787
13732TIP3    H262612   0.991   3.139  15.960  1.5350 -0.1417  0.6606
13733TIP3   OH262613   1.233   6.378   5.815  0.2771  0.2008 -0.0033
13733TIP3    H162614   1.257   6.463   5.851 -0.4455  0.2126  0.4639
13733TIP3    H262615   1.311   6.324   5.827  0.1928  0.3357  1.1969
13734TIP3   OH262616   3.545   5.783  15.043  0.0589 -0.7593  0.3413
13734TIP3    H162617   3.577   5.713  14.987  0.6672 -0.0280 -0.2269
13734TIP3    H262618   3.510   5.848  14.983 -1.1267 -0.8644  0.8972
13735TIP3   OH262619   5.442   6.292  13.155 -0.7039 -0.4568 -0.6077
13735TIP3    H162620   5.515   6.283  13.094  0.0774 -2.3502  0.5435
13735TIP3    H262621   5.460   6.374  13.202  1.7606 -1.8821  1.0159
13736TIP3   OH262622   2.884   6.479   4.595  1.1583  0.3914 -0.0628
13736TIP3    H162623   2.834   6.495   4.515  1.1460 -2.3900 -0.6661
13736TIP3    H262624   2.836   6.526   4.663 -1.4815 -0.9956 -0.8950
13737TIP3   OH262625   3.064   5.445  15.657 -0.3907  0.4673 -0.1571
13737TIP3    H162626   3.144   5.470  15.610 -0.3093  0.3048 -0.1060
13737TIP3    H262627   3.039   5.524  15.705  1.3426 -0.2912  2.1213
13738TIP3   OH262628   0.531   5.172   1.559  0.2679  0.4799 -0.4286
13738TIP3    H162629   0.527   5.076   1.562 -1.4265  0.5652  0.5555
13738TIP3    H262630   0.508   5.193   1.469 -1.2235  0.0281 -0.1626
13739TIP3   OH262631   4.266   2.028  11.299  0.1947  0.1880 -0.2441
13739TIP3    H162632   4.230   1.964  11.237 -0.3726  1.3928 -1.1716
13739TIP3    H262633   4.358   2.003  11.308 -0.3197 -1.5739  0.4496
13740TIP3   OH262634   0.192   1.893   6.146 -0.8153 -0.2357  0.0513
13740TIP3    H162635   0.158   1.858   6.064 -1.2097 -2.2418  1.0403
13740TIP3    H262636   0.174   1.825   6.210  0.1065  1.0214  1.6767
13741TIP3   OH262637   4.754   1.936  13.459 -0.0589 -0.1878  0.9483
13741TIP3    H162638   4.737   1.856  13.409  1.5493  0.3133 -0.4606
13741TIP3    H262639   4.850   1.940  13.465 -0.1804 -0.5672  4.6512
13742TIP3   OH262640   6.542   1.847   3.086 -0.1452 -0.3180  0.0030
13742TIP3    H162641   6.617   1.834   3.144  1.0858  0.4433 -1.3854
13742TIP3    H262642   6.541   1.941   3.069 -1.9529 -0.1903  0.6773
13743TIP3   OH262643   3.295   1.301  11.858 -0.0716  0.1984 -0.2997
13743TIP3    H162644   3.308   1.355  11.936  1.1736 -1.9187  1.0244
13743TIP3    H262645   3.217   1.249  11.877 -0.6426  0.7737 -1.0976
13744TIP3   OH262646   1.900   5.646  14.683  0.5782 -1.0285 -0.3497
13744TIP3    H162647   1.811   5.660  14.649  1.5395  2.1064 -1.8087
13744TIP3    H262648   1.944   5.594  14.615  0.9504  0.7418 -1.5038
13745TIP3   OH262649   1.677   5.651  11.666 -0.1348 -0.0897 -0.1281
13745TIP3    H162650   1.706   5.574  11.715 -0.8033 -0.8530 -0.9245
13745TIP3    H262651   1.613   5.617  11.603  0.7948  0.8518 -1.6132
13746TIP3   OH262652   3.324   5.082   0.042 -0.3454 -0.0887  0.2748
13746TIP3    H162653   3.388   5.011   0.039 -1.5183 -1.2180  1.1956
13746TIP3    H262654   3.344   5.130   0.122 -0.2054 -0.0032  0.1888
13747TIP3   OH262655   5.046   6.440   0.841 -0.6672 -0.0950  0.4436
13747TIP3    H162656   5.117   6.469   0.898 -0.0549 -0.3069 -0.1920
13747TIP3    H262657   4.968   6.484   0.874  0.1236  1.7648 -0.0896
13748TIP3   OH262658   3.087   1.610  15.329  0.7835 -0.6353  0.2155
13748TIP3    H162659   3.038   1.527  15.331 -2.7933  1.2502 -2.6695
13748TIP3    H262660   3.151   1.598  15.259 -0.7582 -0.5267 -1.2655
13749TIP3   OH262661   0.449   2.579   1.574 -0.1491  0.2468  0.0142
13749TIP3    H162662   0.428   2.556   1.483 -2.0390  1.6556  0.0768
13749TIP3    H262663   0.398   2.517   1.626  0.1326  0.1037  0.1179
13750TIP3   OH262664   4.444   0.259   4.716  0.1301  0.2797  0.5951
13750TIP3    H162665   4.357   0.252   4.755 -0.2653 -0.9323 -0.4760
13750TIP3    H262666   4.430   0.307   4.634  0.6060  0.7896  0.8048
13751TIP3   OH262667   3.127   3.615  11.808  0.2458 -0.0539  0.3692
13751TIP3    H162668   3.107   3.599  11.901 -2.0378  0.6379  0.0418
13751TIP3    H262669   3.133   3.710  11.801  2.9743 -0.2183  0.2666
13752TIP3   OH262670   5.936   0.816  14.110 -0.3529  0.2837  0.5980
13752TIP3    H162671   6.020   0.850  14.079 -0.7451 -2.2318 -3.5598
13752TIP3    H262672   5.959   0.764  14.187  1.5370  1.8692  1.1396
13753TIP3   OH262673   4.160   6.107  15.060  0.1542 -0.2007 -0.4691
13753TIP3    H162674   4.150   6.022  15.017  1.8444 -1.3235  1.2876
13753TIP3    H262675   4.117   6.096  15.145  0.2194  0.7792 -0.3020
13754TIP3   OH262676   3.880   3.632   1.201 -0.4126  0.2135 -0.2814
13754TIP3    H162677   3.789   3.643   1.229 -0.9096  0.6484 -2.0058
13754TIP3    H262678   3.930   3.631   1.283 -1.9462  0.0634  0.6840
13755TIP3   OH262679   3.181   5.223  12.333  0.0320  0.1271  0.1042
13755TIP3    H162680   3.273   5.234  12.357  0.2564  0.8936 -1.0326
13755TIP3    H262681   3.132   5.266  12.403  0.4715 -1.3809  1.3674
13756TIP3   OH262682   2.905   4.013   2.067 -0.1702  0.6420  0.0629
13756TIP3    H162683   2.843   4.079   2.099 -0.3697  0.7117 -0.4614
13756TIP3    H262684   2.988   4.060   2.060 -0.0795  0.5726  0.6773
13757TIP3   OH262685   5.502   2.504  13.183 -0.4513  0.1400  0.3848
13757TIP3    H162686   5.596   2.492  13.196 -0.0266  2.6653 -0.1028
13757TIP3    H262687   5.480   2.444  13.111  1.1393  0.7621 -0.6440
13758TIP3   OH262688   5.896   4.406  13.847  0.1911 -0.0780  0.2549
13758TIP3    H162689   5.974   4.351  13.842 -1.1123 -1.8240 -1.4233
13758TIP3    H262690   5.839   4.361  13.910 -0.2500  0.1711  0.0343
13759TIP3   OH262691   1.510   5.430  10.440 -0.1076 -0.2713  0.4816
13759TIP3    H162692   1.593   5.396  10.473 -0.4505 -1.7122 -0.1055
13759TIP3    H262693   1.446   5.362  10.459 -1.1122  0.7153  0.6808
13760TIP3   OH262694   1.419   0.122  13.370 -0.2332 -0.5124 -0.6157
13760TIP3    H162695   1.331   0.096  13.342  0.1360 -1.1908 -1.1656
13760TIP3    H262696   1.474   0.106  13.293  0.4622 -0.5738 -0.1090
13761TIP3   OH262697   0.704   0.552  13.700  0.0313 -0.5797 -0.0189
13761TIP3    H162698   0.744   0.515  13.621  1.3093 -0.3288  0.5022
13761TIP3    H262699   0.629   0.603  13.667  0.8262 -0.0955 -1.1237
13762TIP3   OH262700   0.011   1.770  17.083 -0.2142 -0.2468 -0.3214
13762TIP3    H162701  -0.029   1.831  17.145  0.9720 -1.2964  1.5113
13762TIP3    H262702  -0.064   1.725  17.042 -0.9832 -0.4944  1.3186
13763TIP3   OH262703   4.201   1.861   2.498  0.0301 -0.0025  0.2340
13763TIP3    H162704   4.264   1.791   2.481 -0.5899 -1.1462  2.5010
13763TIP3    H262705   4.141   1.825   2.563 -0.4450  2.5359  1.2710
13764TIP3   OH262706   2.319   2.960   1.831 -0.1722 -0.1025  0.2316
13764TIP3    H162707   2.350   3.021   1.764 -1.0636 -0.0127 -0.1033
13764TIP3    H262708   2.389   2.958   1.896  0.8122 -0.3850 -0.8277
13765TIP3   OH262709   2.839   5.944   4.195  0.0260  0.1733  0.4867
13765TIP3    H162710   2.934   5.931   4.191 -0.1089 -1.0814  1.1904
13765TIP3    H262711   2.828   6.038   4.207  1.1731  0.3482  0.1964
13766TIP3   OH262712   6.492   5.662   4.006 -0.2464 -0.4478  0.6894
13766TIP3    H162713   6.551   5.735   3.987 -1.4756  0.3703 -0.0879
13766TIP3    H262714   6.476   5.668   4.100 -1.7474  1.4176  0.3578
13767TIP3   OH262715   6.749   0.787   1.227  0.3968 -0.5699 -0.1108
13767TIP3    H162716   6.732   0.826   1.141 -1.3533 -0.6209  0.1807
13767TIP3    H262717   6.759   0.862   1.286 -3.2905 -0.4621  0.5102
13768TIP3   OH262718   5.748   0.942  15.931  0.3705  0.3355 -0.2262
13768TIP3    H162719   5.735   0.857  15.973 -0.9330  1.6251  2.0924
13768TIP3    H262720   5.677   0.947  15.867 -0.3155  0.2087  0.5170
13769TIP3   OH262721   4.891   1.864   5.641 -0.2724  0.0431 -0.3595
13769TIP3    H162722   4.980   1.899   5.637 -0.9750  2.0344  0.5155
13769TIP3    H262723   4.852   1.907   5.717 -1.9820 -0.8052 -0.7241
13770TIP3   OH262724   3.729   1.638   2.584 -0.4587  0.1105 -0.2047
13770TIP3    H162725   3.724   1.563   2.643 -1.5405  0.9401  0.7791
13770TIP3    H262726   3.804   1.688   2.615 -0.4652  0.0704 -0.1246
13771TIP3   OH262727   0.244   3.603  13.874 -0.1077 -0.1946  0.0424
13771TIP3    H162728   0.295   3.665  13.926  1.2254 -0.4007 -1.0096
13771TIP3    H262729   0.153   3.619  13.900  0.1699  2.4916 -0.5253
13772TIP3   OH262730   1.228   1.573   4.351 -0.2758  0.1162 -0.1842
13772TIP3    H162731   1.296   1.548   4.289  1.2603  1.7036  0.8226
13772TIP3    H262732   1.248   1.524   4.431 -0.4102  0.4500  0.0559
13773TIP3   OH262733   2.570   1.306  16.986 -0.1249  0.2706  0.1915
13773TIP3    H162734   2.604   1.234  17.039  0.9742 -0.0652 -0.9565
13773TIP3    H262735   2.477   1.312  17.011  0.0729 -0.7081  1.2151
13774TIP3   OH262736   1.953   4.057  16.074 -0.3786 -0.2106 -0.0319
13774TIP3    H162737   1.968   4.129  16.136  0.5808 -0.2298 -0.2335
13774TIP3    H262738   1.864   4.028  16.092 -0.3336  0.2107  0.9045
13775TIP3   OH262739   4.387   3.071   0.755  0.0294 -0.0128 -0.4777
13775TIP3    H162740   4.377   3.007   0.684  3.0873 -1.0296 -0.0622
13775TIP3    H262741   4.441   3.141   0.717  0.3191  0.2171  0.3413
13776TIP3   OH262742   2.444   3.601  15.231  0.1746 -0.3927 -0.3987
13776TIP3    H162743   2.505   3.674  15.228 -0.8549  0.4620 -1.0518
13776TIP3    H262744   2.496   3.526  15.259  1.4643  0.3614 -0.7862
13777TIP3   OH262745   2.423   3.264   4.915 -0.3636  0.0069  0.0578
13777TIP3    H162746   2.432   3.172   4.891  0.7568 -0.1572  1.0390
13777TIP3    H262747   2.481   3.311   4.855 -2.4360  0.3212 -1.7694
13778TIP3   OH262748   5.495   3.827  10.629 -0.3454 -0.1536 -0.0913
13778TIP3    H162749   5.538   3.869  10.703  1.3802  1.4781 -1.9526
13778TIP3    H262750   5.403   3.852  10.637 -0.0663  0.5215  1.1313
13779TIP3   OH262751   5.795   2.673   4.876  0.4904 -0.6718 -0.1773
13779TIP3    H162752   5.864   2.706   4.933  0.1605  1.3260 -0.8936
13779TIP3    H262753   5.786   2.581   4.900  1.3794 -0.2378  1.9469
13780TIP3   OH262754   6.757   4.254  13.761  0.1712 -0.1446  0.1919
13780TIP3    H162755   6.743   4.264  13.855  0.7040 -0.9402  0.3555
13780TIP3    H262756   6.687   4.307  13.721  0.4476  0.8721  1.0231
13781TIP3   OH262757   2.171   4.309  12.221  0.2024  0.1650  0.3671
13781TIP3    H162758   2.171   4.324  12.315 -3.0704  3.6144 -0.0414
13781TIP3    H262759   2.238   4.368  12.187 -0.7526  1.2333  0.3027
13782TIP3   OH262760   2.283   4.658  15.677 -0.1864 -0.0956 -0.3025
13782TIP3    H162761   2.221   4.693  15.613  0.0086 -0.8080 -0.8890
13782TIP3    H262762   2.306   4.733  15.732 -1.6909  0.1412  0.0285
13783TIP3   OH262763   2.240   2.264   4.106  0.1337  0.8558  0.6314
13783TIP3    H162764   2.186   2.186   4.095  0.4578  0.4885  1.6000
13783TIP3    H262765   2.180   2.329   4.142  0.3762  0.3865  1.8997
13784TIP3   OH262766   4.279   0.974   4.277 -0.4158 -0.3214 -0.2413
13784TIP3    H162767   4.213   0.982   4.347 -0.1796 -0.4149 -0.0092
13784TIP3    H262768   4.234   0.924   4.208  0.3835 -3.0244  1.1339
13785TIP3   OH262769   5.017   4.404   4.606 -0.6716 -0.1607 -0.1121
13785TIP3    H162770   5.089   4.466   4.607 -0.0187 -0.8973 -0.5849
13785TIP3    H262771   5.056   4.321   4.637 -1.2371 -0.6293 -0.6438
13786TIP3   OH262772   0.078   4.479  13.404 -0.1326  0.4299 -0.0878
13786TIP3    H162773   0.104   4.390  13.379 -1.1918  0.3804 -1.0992
13786TIP3    H262774   0.001   4.466  13.461  0.5213  0.6567  0.8593
13787TIP3   OH262775   3.560   5.595   3.332 -0.2311 -0.2050  0.5049
13787TIP3    H162776   3.473   5.616   3.299  0.9463  2.4606 -1.0890
13787TIP3    H262777   3.558   5.622   3.424 -0.4492  1.9583 -0.0997
13788TIP3   OH262778   2.247   4.697  10.725 -0.3341 -0.3653  0.0875
13788TIP3    H162779   2.332   4.694  10.682 -0.9918 -1.2471 -1.1742
13788TIP3    H262780   2.186   4.727  10.658 -1.3763 -1.7976  0.3732
13789TIP3   OH262781   3.280   0.950  11.963  0.0049 -0.2013  0.2102
13789TIP3    H162782   3.245   0.997  12.039 -0.9355 -1.3170  0.4734
13789TIP3    H262783   3.206   0.898  11.931  0.1074  1.0050 -2.0736
13790TIP3   OH262784   2.167   3.403   1.914 -0.4227  0.3400 -0.5766
13790TIP3    H162785   2.148   3.394   2.008  0.0628  2.7682 -0.1984
13790TIP3    H262786   2.253   3.362   1.903 -0.7038 -0.4011 -0.0568
13791TIP3   OH262787   3.900   3.427  10.719 -0.0584 -0.1403  0.5640
13791TIP3    H162788   3.926   3.513  10.685  0.4703  0.1361  1.6314
13791TIP3    H262789   3.806   3.423  10.704  0.0896  0.1952 -0.4456
13792TIP3   OH262790   2.459   3.340   0.101 -0.5645  0.0152 -0.4359
13792TIP3    H162791   2.433   3.342   0.194 -0.6628 -1.0808 -0.4377
13792TIP3    H262792   2.383   3.374   0.055 -1.7085 -2.3425 -0.3641
13793TIP3   OH262793   2.622   5.710  14.093  0.2515 -0.0973 -0.1951
13793TIP3    H162794   2.588   5.755  14.170 -1.2199 -0.1657 -0.7848
13793TIP3    H262795   2.586   5.759  14.019  1.1453 -0.4033 -0.8495
13794TIP3   OH262796   4.919   4.307   1.015  0.2822  0.2898 -0.4301
13794TIP3    H162797   4.833   4.278   1.043  0.6846  1.2971  2.0079
13794TIP3    H262798   4.959   4.231   0.975 -0.5527 -1.0866  1.2992
13795TIP3   OH262799   6.039   5.424  12.365 -0.0605 -0.2640  0.1264
13795TIP3    H162800   6.001   5.402  12.280  0.6551 -1.8910  0.2043
13795TIP3    H262801   6.032   5.344  12.416  1.4950  0.0360  0.8593
13796TIP3   OH262802   3.226   3.770  15.995 -0.0370  0.0746  0.2420
13796TIP3    H162803   3.154   3.830  15.978  0.9946  0.7826 -1.8103
13796TIP3    H262804   3.183   3.687  16.018 -1.4798  0.9312  0.6901
13797TIP3   OH262805   0.851   5.879   0.941 -0.9019 -0.5351 -0.5000
13797TIP3    H162806   0.830   5.817   1.012  0.3976 -0.6576 -0.2235
13797TIP3    H262807   0.790   5.952   0.955  0.7073  0.4030  2.0018
13798TIP3   OH262808   1.400   0.101  10.680  0.3764  0.5179 -0.2719
13798TIP3    H162809   1.487   0.062  10.692 -0.3210 -1.9558 -2.7849
13798TIP3    H262810   1.363   0.104  10.768  1.6713 -1.7063  0.3779
13799TIP3   OH262811   6.352   2.406  15.593 -0.1479  0.0769  0.1353
13799TIP3    H162812   6.428   2.346  15.595 -0.7138 -0.6423  0.3602
13799TIP3    H262813   6.352   2.447  15.680 -0.5675 -0.6237  0.4695
13800TIP3   OH262814   0.224   4.071  10.964 -0.1572  0.0930 -0.4796
13800TIP3    H162815   0.259   4.094  10.878  0.5231 -3.1911 -1.1492
13800TIP3    H262816   0.133   4.101  10.963  0.7372  2.9108 -1.1263
13801TIP3   OH262817   2.994   0.240   4.126 -0.2289 -0.1058 -0.0294
13801TIP3    H162818   2.905   0.277   4.129 -0.5391 -0.7608 -1.0101
13801TIP3    H262819   3.041   0.295   4.063 -0.1400 -0.2081 -0.0515
13802TIP3   OH262820   3.135   6.644  11.689  0.2182 -0.1100 -0.4690
13802TIP3    H162821   3.104   6.566  11.642 -1.2474  0.1773  0.0089
13802TIP3    H262822   3.133   6.618  11.781 -0.7046  0.6435 -0.2758
13803TIP3   OH262823   6.714   4.116   1.457  0.0414 -0.1024  0.7379
13803TIP3    H162824   6.700   4.021   1.464 -0.7809 -0.0252  0.2685
13803TIP3    H262825   6.630   4.154   1.483  0.1067  0.4700  0.1086
13804TIP3   OH262826   4.509   2.252   2.424 -0.7970 -0.1467 -0.0007
13804TIP3    H162827   4.502   2.157   2.430 -0.1147 -0.1073  1.6011
13804TIP3    H262828   4.547   2.268   2.338  0.2652 -1.3872  0.2188
13805TIP3   OH262829   2.691   3.120  14.249  0.9845 -0.4226  0.0621
13805TIP3    H162830   2.714   3.179  14.178  0.4504 -0.6777 -0.3300
13805TIP3    H262831   2.614   3.162  14.290 -0.5362 -1.7529 -1.3678
13806TIP3   OH262832   4.290   2.262  11.046 -0.5362  0.5982 -0.3442
13806TIP3    H162833   4.208   2.305  11.019 -2.6753 -2.7414  0.4392
13806TIP3    H262834   4.316   2.210  10.970 -0.2387  0.1298  0.0702
13807TIP3   OH262835   3.846   2.910   1.019  0.1128 -0.0541  0.5594
13807TIP3    H162836   3.897   2.986   0.989 -1.4281  0.7993  0.0436
13807TIP3    H262837   3.764   2.916   0.971 -0.8427 -0.9077  2.0648
13808TIP3   OH262838   0.979   2.804   1.410  0.0795 -0.3398  0.2252
13808TIP3    H162839   0.911   2.787   1.476  1.7446 -1.3200  1.7375
13808TIP3    H262840   0.971   2.732   1.348 -0.2507 -0.4463  0.3886
13809TIP3   OH262841   5.322   5.745  11.969 -0.3822  0.6928 -0.1551
13809TIP3    H162842   5.412   5.753  11.939  0.1111 -1.0619  0.8286
13809TIP3    H262843   5.312   5.817  12.032  1.0335 -0.4342  1.4005
13810TIP3   OH262844   1.690   2.467   3.960  0.2338  0.2905  0.1003
13810TIP3    H162845   1.690   2.529   3.887 -0.8462 -1.1763 -1.1492
13810TIP3    H262846   1.770   2.490   4.009  1.5986  0.5588 -2.1416
13811TIP3   OH262847   2.430   2.504  12.445  0.1939  0.2455  0.2367
13811TIP3    H162848   2.395   2.454  12.371 -0.4031 -0.2076  0.8232
13811TIP3    H262849   2.495   2.562  12.405  1.9602 -2.0008 -0.2844
13812TIP3   OH262850   0.643   4.533  15.215 -0.7623  0.1832 -0.8706
13812TIP3    H162851   0.605   4.581  15.141 -1.2195  0.3435 -0.5350
13812TIP3    H262852   0.568   4.492  15.258 -0.5992  0.8155  0.0242
13813TIP3   OH262853   0.891   4.941   3.550  0.1500 -0.1219 -0.3350
13813TIP3    H162854   0.877   5.036   3.552 -0.1876 -0.1232 -2.0430
13813TIP3    H262855   0.927   4.924   3.464  1.0107 -1.4604  0.2705
13814TIP3   OH262856   0.056   6.425   3.917  0.4166 -0.0769 -0.4829
13814TIP3    H162857   0.016   6.342   3.944  0.8608 -0.0815  0.1673
13814TIP3    H262858   0.018   6.442   3.831 -0.9607 -0.0997  0.0898
13815TIP3   OH262859   2.528   5.028   3.911  0.3009  0.2906 -0.0982
13815TIP3    H162860   2.612   5.040   3.954  1.0931 -1.4937 -1.1043
13815TIP3    H262861   2.518   5.106   3.856  1.7040  0.1057 -0.6250
13816TIP3   OH262862   0.108   3.207   0.545 -0.3928  0.5588 -0.2541
13816TIP3    H162863   0.023   3.190   0.503 -0.4764 -2.1892  0.9689
13816TIP3    H262864   0.108   3.152   0.623  1.1730  3.0402  1.5595
13817TIP3   OH262865   2.397   3.884   1.380  0.2057 -0.1005 -0.7202
13817TIP3    H162866   2.472   3.850   1.332  0.9931  0.7181 -0.0781
13817TIP3    H262867   2.431   3.957   1.431 -1.0169  0.2628 -0.3906
13818TIP3   OH262868   4.004   1.748  12.732 -0.8026  0.2102  0.4426
13818TIP3    H162869   4.054   1.667  12.724 -0.1173  0.7113 -0.4421
13818TIP3    H262870   4.070   1.816  12.745 -1.2472  0.8973 -0.8313
13819TIP3   OH262871   6.544   3.661   0.151  0.5599 -0.0400 -0.4866
13819TIP3    H162872   6.487   3.731   0.121  1.6672  1.3186  0.5165
13819TIP3    H262873   6.484   3.594   0.185 -0.4550  1.1689  0.1451
13820TIP3   OH262874   0.645   6.501   1.639 -0.1188 -0.0220 -0.3033
13820TIP3    H162875   0.620   6.466   1.554  0.8259  2.4227 -1.6430
13820TIP3    H262876   0.735   6.471   1.652  0.2284  0.7762 -0.8358
13821TIP3   OH262877   1.026   1.840  13.314 -0.3329  0.6062 -0.0150
13821TIP3    H162878   0.978   1.807  13.238 -1.0953 -0.1955  0.8057
13821TIP3    H262879   0.959   1.858  13.379  0.1911  2.6350 -0.0061
13822TIP3   OH262880   5.931   4.595  14.982 -0.0097 -0.4113 -0.4523
13822TIP3    H162881   5.837   4.596  14.967  0.1485  1.2320 -1.4333
13822TIP3    H262882   5.969   4.567  14.899  0.4301  0.2919 -0.4996
13823TIP3   OH262883   6.122   1.506   3.501  0.2413  0.0964 -0.3833
13823TIP3    H162884   6.154   1.446   3.434 -0.2998 -0.2074 -0.3736
13823TIP3    H262885   6.197   1.560   3.523  0.5201 -0.0489 -0.9708
13824TIP3   OH262886   1.379   0.009  17.145 -0.0372  0.6882 -0.1451
13824TIP3    H162887   1.313   0.066  17.184  0.2384  0.6856  0.3348
13824TIP3    H262888   1.333  -0.072  17.126 -0.0214  0.4568  0.7851
13825TIP3   OH262889   1.732   0.978  14.649  0.6501 -0.0572  0.0854
13825TIP3    H162890   1.806   0.961  14.706  0.8950  0.9164  0.0727
13825TIP3    H262891   1.769   1.029  14.576  0.1495 -0.3857 -0.4034
13826TIP3   OH262892   1.058   1.402   1.488  0.5543  0.1729  0.2557
13826TIP3    H162893   1.053   1.310   1.514  2.2584 -0.0043 -0.0158
13826TIP3    H262894   1.112   1.443   1.555  0.4055  0.8314 -0.0240
13827TIP3   OH262895   4.544   5.798   2.816 -0.2441 -0.0277 -0.1413
13827TIP3    H162896   4.514   5.867   2.757 -0.7401 -0.1145  0.0035
13827TIP3    H262897   4.474   5.732   2.813  0.9065 -1.2149 -1.4281
13828TIP3   OH262898   0.614   1.864   0.822  0.1632  0.3580 -0.3846
13828TIP3    H162899   0.524   1.838   0.842  0.7444 -0.9120  0.7065
13828TIP3    H262900   0.662   1.781   0.814  1.0309  0.9917 -1.9688
13829TIP3   OH262901   2.181   6.684  15.770  0.5076 -0.4217  0.5528
13829TIP3    H162902   2.224   6.769  15.764  0.0154 -0.3583 -3.2382
13829TIP3    H262903   2.252   6.620  15.764  0.6223 -0.2919  0.5345
13830TIP3   OH262904   6.250   4.869  14.888 -0.5626 -0.1210 -0.1772
13830TIP3    H162905   6.263   4.960  14.859  1.3412 -0.0545  0.7645
13830TIP3    H262906   6.183   4.834  14.830  0.2900  1.2319 -2.0353
13831TIP3   OH262907   3.411   6.691  11.663 -0.3866  1.3089  0.2412
13831TIP3    H162908   3.324   6.657  11.644  1.2585 -2.1014 -1.8221
13831TIP3    H262909   3.458   6.686  11.580  2.0301  2.2255  1.4704
13832TIP3   OH262910   5.790   2.328   0.575  0.9189 -0.2176 -0.2922
13832TIP3    H162911   5.842   2.380   0.514  0.9824 -0.6159 -0.5774
13832TIP3    H262912   5.703   2.324   0.535  0.8861 -0.2454 -0.2190
13833TIP3   OH262913   4.238   0.756   0.421 -0.3192  0.2683 -0.3530
13833TIP3    H162914   4.295   0.703   0.478  0.9055 -0.6873 -2.3838
13833TIP3    H262915   4.149   0.732   0.447  0.2020 -0.0869  1.1949
13834TIP3   OH262916   3.906   6.631   5.546  0.3376 -0.2273  0.0009
13834TIP3    H162917   3.922   6.641   5.640 -0.9863 -0.5604  0.2684
13834TIP3    H262918   3.969   6.565   5.518  0.6404 -0.2299  0.6767
13835TIP3   OH262919   2.137   6.136  12.617  0.2156 -0.6745 -0.6029
13835TIP3    H162920   2.053   6.164  12.579 -0.1509  1.4024  1.6457
13835TIP3    H262921   2.115   6.108  12.706  2.0754  1.1478  0.4679
13836TIP3   OH262922   1.676   2.565   1.860 -0.3283  0.3516 -0.4382
13836TIP3    H162923   1.687   2.608   1.775 -1.5142  0.7267 -0.4053
13836TIP3    H262924   1.629   2.484   1.841 -0.6714  0.4778 -0.1240
13837TIP3   OH262925   1.588   3.597   4.834 -0.1827 -0.4475 -0.4028
13837TIP3    H162926   1.592   3.587   4.739  0.0733 -0.1082 -0.4272
13837TIP3    H262927   1.668   3.555   4.866  0.7789  1.2690 -0.4894
13838TIP3   OH262928   6.621   2.714   3.482  0.1050  0.0682 -0.0152
13838TIP3    H162929   6.576   2.669   3.554  0.8775  1.2654  1.2524
13838TIP3    H262930   6.615   2.807   3.505  1.1733  0.3942 -1.0238
13839TIP3   OH262931   0.893   3.941  14.646  0.4002  0.2577  0.0959
13839TIP3    H162932   0.957   3.902  14.706  0.7120 -0.1417 -0.4910
13839TIP3    H262933   0.842   4.001  14.700  0.6203 -0.1746  0.7810
13840TIP3   OH262934   3.443   1.365  12.784  0.5191 -0.0932  0.0289
13840TIP3    H162935   3.381   1.437  12.794  2.3571  1.6010 -0.4439
13840TIP3    H262936   3.393   1.297  12.737 -1.3018  0.7585  0.6762
13841TIP3   OH262937   1.797   2.432  12.571 -0.3064  0.0193  0.7592
13841TIP3    H162938   1.827   2.404  12.658 -0.7131  0.4340  1.0328
13841TIP3    H262939   1.874   2.475  12.533 -0.7295  1.6550  1.7121
13842TIP3   OH262940   3.223   6.440   2.000  0.0074  0.2528  0.9952
13842TIP3    H162941   3.171   6.362   1.984  0.1354  0.5381 -0.9675
13842TIP3    H262942   3.302   6.427   1.946 -0.0394  1.7858  0.5385
13843TIP3   OH262943   3.716   0.689  13.845 -0.3993 -0.1946 -0.0187
13843TIP3    H162944   3.687   0.771  13.885  0.8467  0.2677 -0.0306
13843TIP3    H262945   3.652   0.624  13.875 -1.8085  0.9078 -0.6128
13844TIP3   OH262946   0.832   0.265   5.041 -0.1650 -0.3239 -0.0345
13844TIP3    H162947   0.760   0.322   5.068 -0.5193 -1.2028  0.9131
13844TIP3    H262948   0.799   0.218   4.965  0.4004  1.2686 -1.3044
13845TIP3   OH262949   0.059   1.953   2.269  0.5443  0.3976  0.3078
13845TIP3    H162950   0.060   2.047   2.284 -0.7034  0.8777 -2.2243
13845TIP3    H262951  -0.021   1.923   2.312  1.0997  0.4267  1.3763
13846TIP3   OH262952   2.860   2.485   0.885  0.6519 -0.1727  0.3330
13846TIP3    H162953   2.829   2.429   0.956  2.1183  0.5841  1.6104
13846TIP3    H262954   2.789   2.483   0.820 -0.2690 -1.6961  1.3509
13847TIP3   OH262955   3.341   3.278  11.953  0.1568  0.6655  0.4501
13847TIP3    H162956   3.409   3.212  11.939  0.1848  0.7367  0.2434
13847TIP3    H262957   3.389   3.360  11.961  0.0590  0.7942 -0.2619
13848TIP3   OH262958   2.376   0.724  12.786 -0.2705  0.0043  0.1952
13848TIP3    H162959   2.400   0.638  12.752 -0.7498  0.0972 -0.3715
13848TIP3    H262960   2.421   0.786  12.729 -1.2072  0.1633 -0.3749
13849TIP3   OH262961   4.522   1.815   3.099 -0.5947  0.4885  0.6235
13849TIP3    H162962   4.579   1.813   3.022 -1.4148  1.0087 -0.0120
13849TIP3    H262963   4.556   1.746   3.156 -0.4370 -0.4337 -0.5517
13850TIP3   OH262964   4.780   4.739  11.357  0.6067  0.1920 -0.1395
13850TIP3    H162965   4.688   4.748  11.330  0.5023  1.0098  0.4562
13850TIP3    H262966   4.810   4.829  11.367  0.9801 -0.0843  1.3409
13851TIP3   OH262967   5.521   5.300   2.823  0.1780  0.0498  0.2292
13851TIP3    H162968   5.545   5.392   2.811 -1.3633  0.5882  1.0812
13851TIP3    H262969   5.490   5.296   2.914  0.4529 -1.3667  0.2685
13852TIP3   OH262970   6.681   6.396   3.691  0.2435 -0.5664  0.6139
13852TIP3    H162971   6.648   6.486   3.693  0.6054 -0.4281  0.3267
13852TIP3    H262972   6.643   6.357   3.613 -0.5503 -0.9035  1.1708
13853TIP3   OH262973   1.361   2.521  11.669  0.1972  0.2318  0.1936
13853TIP3    H162974   1.416   2.457  11.714 -0.2628 -0.5286 -0.3176
13853TIP3    H262975   1.337   2.583  11.737 -0.7933 -1.1179  1.1034
13854TIP3   OH262976   1.278   3.184  15.841  0.0370 -0.3540  0.3353
13854TIP3    H162977   1.259   3.137  15.923  0.3627 -0.6877  0.2216
13854TIP3    H262978   1.343   3.250  15.866  1.2641 -1.4294  0.0613
13855TIP3   OH262979   0.394   3.810   4.131  0.1847  0.6244  0.5909
13855TIP3    H162980   0.480   3.848   4.149 -0.2866  3.2418 -2.2001
13855TIP3    H262981   0.406   3.760   4.050 -1.4612  3.3187 -1.4034
13856TIP3   OH262982   4.769   1.142   0.815  0.0887 -0.1887 -0.6711
13856TIP3    H162983   4.765   1.079   0.887 -2.0227 -0.0931 -0.6793
13856TIP3    H262984   4.804   1.222   0.854 -0.7631 -0.2334  0.1794
13857TIP3   OH262985   6.497   4.291  15.625 -0.1100  0.3362  0.0934
13857TIP3    H162986   6.427   4.318  15.685 -0.1849  1.2296 -0.3769
13857TIP3    H262987   6.481   4.343  15.546  2.1663  1.9409  0.6349
13858TIP3   OH262988   3.148   5.065  10.922 -0.1031 -0.1656  0.0286
13858TIP3    H162989   3.067   5.078  10.872  0.2299  1.0810 -0.2123
13858TIP3    H262990   3.218   5.079  10.858  0.3507  2.4060  1.0143
13859TIP3   OH262991   3.912   0.069  16.580 -0.5497 -0.4295  0.3277
13859TIP3    H162992   3.839   0.130  16.589  0.2374  0.4547  0.7643
13859TIP3    H262993   3.948   0.086  16.493 -2.0979 -2.2583 -0.7073
13860TIP3   OH262994   4.444   1.645  13.798  0.0532  0.4904 -0.0105
13860TIP3    H162995   4.363   1.669  13.753 -0.4334  1.2648  1.2673
13860TIP3    H262996   4.415   1.617  13.885  1.0415 -0.4576  0.0240
13861TIP3   OH262997   0.350   0.254   2.955  0.2919 -0.0358 -0.1888
13861TIP3    H162998   0.343   0.207   3.038  2.5994 -1.5786 -0.8069
13861TIP3    H262999   0.388   0.338   2.978 -0.0222 -0.0597  0.4342
13862TIP3   OH263000   5.035   3.060   0.433  0.5075  0.3848 -0.0994
13862TIP3    H163001   5.070   3.077   0.345  0.0066  0.3273 -0.3132
13862TIP3    H263002   4.992   3.142   0.457 -0.0693  0.1243 -0.2489
13863TIP3   OH263003   4.255   4.448   0.349 -0.1861 -0.2102 -0.2146
13863TIP3    H163004   4.253   4.353   0.334  0.6156 -0.2799  0.0983
13863TIP3    H263005   4.344   4.474   0.325  0.3108  0.1083  1.8712
13864TIP3   OH263006   2.493   3.622   1.336 -0.5370 -0.4954 -0.7918
13864TIP3    H163007   2.500   3.577   1.252 -1.0395 -1.7072 -0.1894
13864TIP3    H263008   2.407   3.663   1.335 -0.2160  0.1842 -1.1973
13865TIP3   OH263009   3.415   6.613   2.138  0.0584  0.0725  0.1901
13865TIP3    H163010   3.359   6.547   2.097  1.0179 -0.0763 -0.8967
13865TIP3    H263011   3.386   6.616   2.229 -2.0491  0.3649 -0.4747
13866TIP3   OH263012   0.608   2.990   4.159  0.0710  0.0400  0.4047
13866TIP3    H163013   0.557   2.909   4.166 -2.6306  1.7800  1.9269
13866TIP3    H263014   0.676   2.981   4.226 -1.7424  0.0203  2.3272
13867TIP3   OH263015   6.290   4.852   4.772  0.4094 -0.5611  0.1406
13867TIP3    H163016   6.245   4.910   4.711  1.0210  0.6246  0.7892
13867TIP3    H263017   6.244   4.864   4.855  1.9149  0.6928  0.8194
13868TIP3   OH263018   2.857   6.653   5.745 -0.1524 -0.1042  0.0651
13868TIP3    H163019   2.926   6.590   5.766 -0.2435  0.3764  1.9722
13868TIP3    H263020   2.903   6.732   5.717  0.0180 -0.3996 -0.4825
13869TIP3   OH263021   0.646   1.806  11.373 -0.9222 -0.0989  0.6257
13869TIP3    H163022   0.556   1.777  11.389 -0.9602 -0.4144 -0.1382
13869TIP3    H263023   0.698   1.726  11.375 -0.8595 -0.0855 -0.2945
13870TIP3   OH263024   2.066   3.721  13.802 -0.1563 -0.4845  0.5867
13870TIP3    H163025   2.044   3.687  13.716  2.2094 -0.1682 -0.1808
13870TIP3    H263026   2.073   3.644  13.858 -1.7841 -0.6809  0.5413
13871TIP3   OH263027   1.401   0.892   1.010 -0.0302 -0.7615  0.4217
13871TIP3    H163028   1.429   0.802   1.026 -0.6421 -0.9565  0.4265
13871TIP3    H263029   1.305   0.887   1.008 -0.0797 -0.0555  0.7876
13872TIP3   OH263030   2.519   6.194   5.555 -0.2945 -0.6050  0.4401
13872TIP3    H163031   2.476   6.110   5.570 -0.8569 -0.7121 -1.5713
13872TIP3    H263032   2.465   6.257   5.603 -1.0296 -1.1291  0.3067
13873TIP3   OH263033   5.648   4.630   4.637 -0.3991  0.2574  0.3514
13873TIP3    H163034   5.700   4.708   4.660  0.5437 -0.1558 -0.3484
13873TIP3    H263035   5.593   4.615   4.714  0.7202  0.5530  1.2303
13874TIP3   OH263036   5.313   5.019   0.432  0.3434 -0.1053  0.0606
13874TIP3    H163037   5.246   4.977   0.486 -0.2917  0.8306 -0.0026
13874TIP3    H263038   5.272   5.029   0.346  0.6750  0.1772 -0.0649
13875TIP3   OH263039   0.658   4.730   5.345  0.1396 -0.3704  0.7126
13875TIP3    H163040   0.652   4.826   5.343 -1.9326 -0.4836  0.5342
13875TIP3    H263041   0.616   4.705   5.427 -0.2394 -1.1915  0.2717
13876TIP3   OH263042   1.196   4.863   1.010  0.8190  0.6966 -0.5299
13876TIP3    H163043   1.136   4.873   0.936 -1.6400  2.0487  1.5656
13876TIP3    H263044   1.151   4.804   1.070  1.2074  2.2996  1.4059
13877TIP3   OH263045   5.632   5.306   4.456  0.2909 -0.1073  0.0885
13877TIP3    H163046   5.555   5.315   4.400  1.0491 -0.8547 -1.1102
13877TIP3    H263047   5.653   5.396   4.483  0.5724  0.4076 -1.7660
13878TIP3   OH263048   2.707   5.853  14.747  0.3026  0.0795  0.1692
13878TIP3    H163049   2.693   5.842  14.653  0.1850 -1.6429  0.3555
13878TIP3    H263050   2.621   5.836  14.786  0.3300  0.8887  0.5763
13879TIP3   OH263051   2.865   1.017  16.861  0.2239 -0.0153  0.1524
13879TIP3    H163052   2.780   1.035  16.902  0.4999  3.9242 -0.8049
13879TIP3    H263053   2.909   0.959  16.923 -2.9627 -1.8715  0.8313
13880TIP3   OH263054   0.635   5.447  12.104 -0.6463 -0.1118  0.3792
13880TIP3    H163055   0.544   5.461  12.127 -1.2031 -0.4507 -1.5356
13880TIP3    H263056   0.652   5.508  12.033  1.2269  1.3906  2.0604
13881TIP3   OH263057   5.824   6.297   1.497  0.8804  0.3876 -0.4005
13881TIP3    H163058   5.785   6.379   1.526  0.9657 -0.3143  1.7864
13881TIP3    H263059   5.887   6.274   1.566  1.3112 -1.1832 -1.2781
13882TIP3   OH263060   3.480   2.458   2.935 -0.1981  0.0442  0.4659
13882TIP3    H163061   3.508   2.515   2.864 -0.0785  0.4245  0.8159
13882TIP3    H263062   3.400   2.498   2.969 -1.0772 -0.9464 -0.4155
13883TIP3   OH263063   5.212   5.987  14.662  0.1855  0.3663 -0.1174
13883TIP3    H163064   5.292   6.028  14.696  0.2736  0.3712 -0.3314
13883TIP3    H263065   5.153   5.986  14.737  0.6387 -0.2808  0.2408
13884TIP3   OH263066   0.856   0.343  13.261 -0.7141 -0.2721  0.1611
13884TIP3    H163067   0.820   0.397  13.190 -1.8045 -1.4075 -0.1722
13884TIP3    H263068   0.927   0.294  13.220 -1.0315 -0.5724 -0.0350
13885TIP3   OH263069   2.628   0.870   3.661 -0.3375 -0.1746 -0.6223
13885TIP3    H163070   2.672   0.942   3.616 -1.1990 -0.1610 -1.4647
13885TIP3    H263071   2.687   0.846   3.732  0.2696  0.9139 -0.7521
13886TIP3   OH263072   2.861   3.335   1.909  0.7154 -0.1245  0.1651
13886TIP3    H163073   2.873   3.386   1.988 -1.9599 -0.6126  0.9437
13886TIP3    H263074   2.824   3.396   1.845  0.7520 -0.2583  0.0133
13887TIP3   OH263075   5.498   2.320   2.383  0.6662  0.4178  0.0453
13887TIP3    H163076   5.497   2.306   2.477 -3.9959 -0.9695 -0.0686
13887TIP3    H263077   5.469   2.410   2.371 -0.4327  0.0588 -0.0708
13888TIP3   OH263078   2.001   3.355  15.608 -0.3867 -0.5170  0.2921
13888TIP3    H163079   2.063   3.286  15.583  2.0767  0.3078  3.6869
13888TIP3    H263080   1.972   3.392  15.524  0.8910 -3.3609 -1.4938
13889TIP3   OH263081   1.427   2.383   3.921 -0.4505  0.0013 -0.6313
13889TIP3    H163082   1.430   2.474   3.890  0.6403 -0.1616 -1.0099
13889TIP3    H263083   1.514   2.367   3.958  0.0603 -1.5507 -2.4485
13890TIP3   OH263084   0.344   2.209  14.288 -0.1521  0.4984 -0.5137
13890TIP3    H163085   0.313   2.268  14.220 -0.7239  1.1466  0.2991
13890TIP3    H263086   0.438   2.227  14.295 -0.2031  0.8387 -0.7273
13891TIP3   OH263087   4.986   4.811   4.703  0.1083 -0.1503 -0.4146
13891TIP3    H163088   5.067   4.760   4.711 -1.0565 -2.5818 -3.0918
13891TIP3    H263089   4.918   4.753   4.737 -0.8609  0.8558 -0.6034
13892TIP3   OH263090   1.153   3.163  12.328  0.6856  0.1018 -0.0417
13892TIP3    H163091   1.191   3.218  12.259 -0.2790  3.0878  1.7039
13892TIP3    H263092   1.062   3.152  12.302  0.8013 -0.4399 -0.2288
13893TIP3   OH263093   1.913   4.469   1.545  0.0512  0.2966  0.5936
13893TIP3    H163094   1.987   4.528   1.536  0.3540 -0.2664 -0.7191
13893TIP3    H263095   1.944   4.386   1.510 -1.0949 -0.0409  0.3511
13894TIP3   OH263096   4.707   3.369   0.411  0.4686 -0.1351  0.3090
13894TIP3    H163097   4.669   3.302   0.354  2.5875 -0.0010 -1.3215
13894TIP3    H263098   4.694   3.451   0.362 -0.5113  0.4084  1.4717
13895TIP3   OH263099   3.325   4.878  14.360 -0.3539 -0.0537 -0.6863
13895TIP3    H163100   3.315   4.786  14.385 -1.0291  0.3448  0.5271
13895TIP3    H263101   3.378   4.916  14.430 -0.5624  0.6055 -0.8883
13896TIP3   OH263102   3.949   5.664  13.772 -0.4004 -0.1155 -0.1389
13896TIP3    H163103   3.856   5.666  13.751 -0.6548 -0.4503  0.9623
13896TIP3    H263104   3.956   5.713  13.853  0.3541 -0.3082 -0.0884
13897TIP3   OH263105   3.875   3.499  13.127 -0.8511  0.0918  0.0398
13897TIP3    H163106   3.968   3.513  13.108 -0.3412 -0.9341  1.6590
13897TIP3    H263107   3.829   3.548  13.059  0.8761 -0.0716 -1.2839
13898TIP3   OH263108   4.235   5.470   4.571  0.0997 -0.9321 -0.1707
13898TIP3    H163109   4.206   5.560   4.584  0.0651 -0.9989  0.2124
13898TIP3    H263110   4.222   5.427   4.655  1.4074 -0.9343  0.0517
13899TIP3   OH263111   5.985   2.983   4.241  0.1786  0.5669  0.1572
13899TIP3    H163112   6.022   2.896   4.225 -2.0143 -0.3884  0.1795
13899TIP3    H263113   5.981   2.990   4.336 -1.0113  0.0765  0.1546
13900TIP3   OH263114   4.343   2.766   5.013  0.0744 -0.4758 -0.3715
13900TIP3    H163115   4.288   2.712   5.071  1.6517  1.0400  2.6563
13900TIP3    H263116   4.431   2.729   5.022  0.8795  1.5765  0.5360
13901TIP3   OH263117   2.556   0.424  11.673 -0.1067  0.5268  0.2252
13901TIP3    H163118   2.645   0.391  11.665 -0.3876 -0.2412  0.2385
13901TIP3    H263119   2.539   0.467  11.589 -0.0215 -0.0706 -0.1043
13902TIP3   OH263120   6.383   4.788   2.662  0.1955 -0.8596 -0.7143
13902TIP3    H163121   6.391   4.847   2.588 -1.4586 -0.0942 -0.2953
13902TIP3    H263122   6.290   4.786   2.682  0.5795 -1.3074  1.1377
13903TIP3   OH263123   1.543   0.115  16.725 -0.0051  0.1973  0.1038
13903TIP3    H163124   1.590   0.045  16.771 -0.1756 -0.4888 -0.7348
13903TIP3    H263125   1.457   0.118  16.767  0.7012  1.2819  1.4805
13904TIP3   OH263126   3.630   4.970  16.008  0.1198  0.0876 -0.0752
13904TIP3    H163127   3.559   4.939  16.064  1.3267 -1.6407  0.5173
13904TIP3    H263128   3.701   4.991  16.068  0.3631  1.1651 -0.7280
13905TIP3   OH263129   3.881   1.427   4.904 -0.0919 -0.1950 -0.0115
13905TIP3    H163130   3.937   1.490   4.949 -0.7557  2.3651 -2.6033
13905TIP3    H263131   3.941   1.362   4.868  1.0263  1.3007 -0.8839
13906TIP3   OH263132   5.998   4.331  12.341  0.5055 -0.4924  0.0446
13906TIP3    H163133   5.994   4.313  12.247  1.9235 -0.7063  0.0112
13906TIP3    H263134   5.907   4.332  12.369  0.0821 -0.7113 -1.2816
13907TIP3   OH263135   1.888   0.256  11.122 -0.2993 -0.3109  0.0452
13907TIP3    H163136   1.936   0.263  11.040 -0.1520 -2.3715 -0.0597
13907TIP3    H263137   1.951   0.281  11.189 -0.3622  1.1938 -0.4392
13908TIP3   OH263138   1.936   1.692  16.447  0.0667 -0.2866  0.1374
13908TIP3    H163139   1.897   1.638  16.516 -1.0852  0.3836  0.0357
13908TIP3    H263140   2.024   1.658  16.436 -0.3196 -1.5100  0.7554
13909TIP3   OH263141   5.723   5.321  15.636 -0.1108  0.0608  0.7700
13909TIP3    H163142   5.685   5.403  15.606 -0.1473 -0.1736  0.1672
13909TIP3    H263143   5.655   5.281  15.690 -0.1489  0.3583  0.9398
13910TIP3   OH263144   6.581   2.622   4.099  0.4855  0.5140 -0.2028
13910TIP3    H163145   6.543   2.535   4.113  0.7959  0.5179  0.6652
13910TIP3    H263146   6.674   2.605   4.080  0.7639  0.7120  0.9461
13911TIP3   OH263147   1.153   5.556   3.745  0.0654  1.0194 -0.2017
13911TIP3    H163148   1.070   5.516   3.770 -0.0226  1.1830 -0.2326
13911TIP3    H263149   1.150   5.562   3.649  0.7788 -0.4320 -0.3361
13912TIP3   OH263150   1.733   1.793  15.932  0.3092 -0.5998 -0.3835
13912TIP3    H163151   1.816   1.798  15.886  0.7312 -1.5710  0.2605
13912TIP3    H263152   1.750   1.736  16.007 -0.8397 -0.5204 -0.0490
13913TIP3   OH263153   4.822   0.494   5.069  0.0485  0.5164  0.4206
13913TIP3    H163154   4.894   0.537   5.116 -0.7691  1.8748  0.4687
13913TIP3    H263155   4.811   0.410   5.114  0.4924  1.0200  1.4924
13914TIP3   OH263156   4.020   1.329   3.916  0.3791 -0.3299 -0.2986
13914TIP3    H163157   3.984   1.250   3.874 -0.3284  1.1157 -2.4840
13914TIP3    H263158   3.968   1.401   3.880  2.5791  1.3711 -0.1684
13915TIP3   OH263159   4.430   0.746  15.436  0.2537 -0.5429  0.0920
13915TIP3    H163160   4.487   0.707  15.369 -0.2385 -1.6473  0.3066
13915TIP3    H263161   4.410   0.673  15.495 -0.2301  0.1719  0.8103
13916TIP3   OH263162   1.886   2.647  11.123  0.0680  0.7025  0.8447
13916TIP3    H163163   1.900   2.663  11.216 -2.4247  1.0487  1.1767
13916TIP3    H263164   1.909   2.555  11.111 -0.6087  0.3655  2.0176
13917TIP3   OH263165   5.954   1.525  11.793 -0.6105 -0.6057 -0.2964
13917TIP3    H163166   5.991   1.591  11.734 -2.2115  0.0457 -0.6069
13917TIP3    H263167   6.016   1.520  11.866  0.5024 -0.1561 -1.2097
13918TIP3   OH263168   3.158   5.927  15.061 -0.0844 -0.2121 -0.0718
13918TIP3    H163169   3.122   5.971  14.984 -2.6108 -0.0265  1.1567
13918TIP3    H263170   3.224   5.988  15.094 -1.1090  1.1063 -0.3775
13919TIP3   OH263171   2.340   2.718   3.982  0.0331 -0.6803 -0.0990
13919TIP3    H163172   2.334   2.800   3.934  0.8081 -0.2145  0.5835
13919TIP3    H263173   2.415   2.730   4.041 -0.9115 -1.2263  1.2303
13920TIP3   OH263174   4.351   0.890   0.793 -0.5214 -0.1775 -0.1031
13920TIP3    H163175   4.394   0.874   0.709  1.1694 -0.8090  0.8519
13920TIP3    H263176   4.407   0.845   0.857 -2.4228 -0.6859  1.2247
13921TIP3   OH263177   3.806   0.828   3.268 -0.3040 -0.0004 -0.5190
13921TIP3    H163178   3.897   0.816   3.296 -0.3483  0.3415 -0.2282
13921TIP3    H263179   3.763   0.869   3.344 -0.7185 -0.2411 -0.6222
13922TIP3   OH263180   4.925   6.371  13.683 -0.3800  0.1105  0.2164
13922TIP3    H163181   5.017   6.397  13.689  0.0462 -1.3052 -0.1839
13922TIP3    H263182   4.884   6.414  13.758  0.5592  0.8871  0.3042
13923TIP3   OH263183   5.066   1.962  16.516 -0.0688 -0.0620 -0.1948
13923TIP3    H163184   4.977   1.929  16.530 -0.2062 -0.8969 -2.7843
13923TIP3    H263185   5.064   1.998  16.427  1.5556  2.0891  0.6049
13924TIP3   OH263186   1.644   3.583  13.201  0.1302 -0.1149  0.4650
13924TIP3    H163187   1.590   3.512  13.167 -1.1292  1.5595 -1.1820
13924TIP3    H263188   1.633   3.580  13.295 -2.1488 -0.3598  0.2056
13925TIP3   OH263189   3.683   0.339  13.927 -0.0418 -0.4624  0.5828
13925TIP3    H163190   3.600   0.385  13.942 -0.0247 -0.2849  0.1162
13925TIP3    H263191   3.657   0.255  13.889 -0.0803 -0.8918  1.5207
13926TIP3   OH263192   3.825   5.314  11.664 -0.6016  0.4393  0.5236
13926TIP3    H163193   3.917   5.337  11.654 -0.4951  0.0962  0.7101
13926TIP3    H263194   3.821   5.221  11.641 -1.4852  1.2364 -2.9547
13927TIP3   OH263195   0.311   6.087   1.522  0.5374 -0.1883  0.0035
13927TIP3    H163196   0.258   6.139   1.583  0.6719 -0.3705  0.2784
13927TIP3    H263197   0.258   6.081   1.443 -1.5563 -3.5763  1.5270
13928TIP3   OH263198   0.948   1.099   4.215 -0.1917  0.4300  0.0303
13928TIP3    H163199   1.036   1.134   4.226  0.6597 -0.8342 -2.3559
13928TIP3    H263200   0.960   1.004   4.210 -1.4697  0.3606 -2.2228
13929TIP3   OH263201   0.209   3.150  15.024  0.2739 -0.3309  0.4433
13929TIP3    H163202   0.227   3.223  14.966 -1.3498 -1.2287 -1.2645
13929TIP3    H263203   0.207   3.188  15.112  1.7864  1.2217 -0.1714
13930TIP3   OH263204   4.287   2.403  16.359 -0.1533 -0.3642 -0.2541
13930TIP3    H163205   4.243   2.469  16.413  1.3186 -0.6875  1.3744
13930TIP3    H263206   4.218   2.339  16.339 -0.9671  0.3158  0.3268
13931TIP3   OH263207   3.483   6.060   5.167 -0.0299 -0.3322  0.3753
13931TIP3    H163208   3.457   5.969   5.175 -1.2205 -0.0048  0.3170
13931TIP3    H263209   3.435   6.092   5.091  1.3829  0.0028 -0.3986
13932TIP3   OH263210   3.706   4.224  14.373  0.1285  0.2081  0.1347
13932TIP3    H163211   3.679   4.308  14.335  0.3132 -0.2352 -0.9850
13932TIP3    H263212   3.792   4.208  14.336 -0.2481 -0.8742 -0.2869
13933TIP3   OH263213   1.734   2.963  13.276 -0.7262 -0.5105  0.0393
13933TIP3    H163214   1.739   2.880  13.322 -0.2478 -0.9155 -0.7311
13933TIP3    H263215   1.825   2.994  13.271 -1.0100  0.5684  1.2377
13934TIP3   OH263216   6.381   4.696   5.162 -0.3225  0.6044  0.1991
13934TIP3    H163217   6.419   4.765   5.216 -1.0540  1.6368 -0.5912
13934TIP3    H263218   6.456   4.650   5.124  0.1435  1.7731 -0.2849
13935TIP3   OH263219   6.468   2.988  12.429  0.1756  0.0571  0.9278
13935TIP3    H163220   6.375   2.977  12.448 -0.4986 -0.4817 -2.2510
13935TIP3    H263221   6.506   2.901  12.438 -0.1472 -0.2006 -0.0730
13936TIP3   OH263222   4.794   0.855  17.103  0.0447 -0.0494  0.5660
13936TIP3    H163223   4.828   0.906  17.177  0.1433 -0.1725  0.6051
13936TIP3    H263224   4.745   0.919  17.051  2.9805  0.8539 -1.2105
13937TIP3   OH263225   1.708   3.736  17.162  0.4084 -0.1128  0.0862
13937TIP3    H163226   1.675   3.811  17.210 -1.6780 -0.0376 -1.3644
13937TIP3    H263227   1.757   3.774  17.089 -1.5957 -0.0735 -1.2990
13938TIP3   OH263228   3.704   5.992   3.954  0.4963 -0.4733 -0.0455
13938TIP3    H163229   3.797   5.974   3.968  0.2996  0.1233  2.2663
13938TIP3    H263230   3.678   6.044   4.031 -2.1085 -2.0136  0.1708
13939TIP3   OH263231   0.380   0.161  15.875  0.0570  0.2895 -0.0944
13939TIP3    H163232   0.344   0.233  15.823  0.2794  1.7423  1.7119
13939TIP3    H263233   0.432   0.110  15.813 -1.5183  0.6669 -1.7844
13940TIP3   OH263234   6.706   0.226  15.603  0.0690 -0.3036  0.0141
13940TIP3    H163235   6.776   0.291  15.615 -0.5568  0.0163  2.2968
13940TIP3    H263236   6.629   0.278  15.581 -0.5102 -0.1827  2.1646
13941TIP3   OH263237   4.565   2.830   0.866  0.6728 -0.2391  0.0485
13941TIP3    H163238   4.563   2.925   0.851 -0.5180 -0.2278  0.2852
13941TIP3    H263239   4.505   2.794   0.801  0.3670 -0.7449  0.6132
13942TIP3   OH263240   2.798   6.151   5.582  0.0381 -0.9438 -0.1368
13942TIP3    H163241   2.831   6.176   5.495  1.5709 -0.3019  0.6076
13942TIP3    H263242   2.704   6.167   5.577  0.1665 -0.5339 -1.5678
13943TIP3   OH263243   1.792   0.474   0.950  0.0448 -0.0136  0.2711
13943TIP3    H163244   1.739   0.401   0.981 -0.0542  0.0104  0.1603
13943TIP3    H263245   1.748   0.503   0.870  0.5070 -0.3041 -0.0830
13944TIP3   OH263246   4.578   2.404   0.660 -0.1500  0.3319 -0.0996
13944TIP3    H163247   4.558   2.492   0.627  0.2937  0.9184  1.1725
13944TIP3    H263248   4.492   2.366   0.680 -0.2763  0.9691  0.5862
13945TIP3   OH263249   3.408   4.547   1.919 -0.4912 -0.4609  0.2445
13945TIP3    H163250   3.368   4.603   1.985  0.8421  1.2829 -0.4067
13945TIP3    H263251   3.348   4.472   1.912 -1.9476  0.5517  1.5764
13946TIP3   OH263252   2.834   6.516  11.923  0.5721 -0.3137 -0.6663
13946TIP3    H163253   2.778   6.468  11.983  2.0347 -1.5208 -0.2433
13946TIP3    H263254   2.899   6.452  11.894  2.2152  1.2552 -0.5306
13947TIP3   OH263255   6.467   0.039  16.472 -0.6418  0.9403  0.4043
13947TIP3    H163256   6.539   0.069  16.416 -0.1577 -1.2132 -0.1979
13947TIP3    H263257   6.510   0.006  16.551 -0.9732 -0.0871  0.1659
13948TIP3   OH263258   0.846   5.490  11.681 -0.3644  0.1918  0.7221
13948TIP3    H163259   0.753   5.483  11.705 -0.3516 -1.0028  0.4305
13948TIP3    H263260   0.857   5.582  11.658 -2.0718 -0.1322 -1.6730
13949TIP3   OH263261   6.186   0.932   6.665  0.6625  0.0932 -0.2933
13949TIP3    H163262   6.236   0.878   6.604  0.7707  0.5241 -0.5964
13949TIP3    H263263   6.188   0.885   6.748 -0.5305 -1.1031 -0.9373
13950TIP3   OH263264   2.200   6.402   1.980  0.9992  0.1294  0.1298
13950TIP3    H163265   2.160   6.371   1.899  1.0978 -1.1018  0.5435
13950TIP3    H263266   2.233   6.489   1.958 -0.0532  0.3018 -0.8003
13951TIP3   OH263267   2.562   0.569   1.381  0.1171  0.1646 -0.5624
13951TIP3    H163268   2.620   0.576   1.457  0.0061 -2.7447 -0.1522
13951TIP3    H263269   2.607   0.510   1.321 -1.1019  0.1913 -1.5188
13952TIP3   OH263270   3.606   1.602  16.348 -0.1653  0.2330 -0.5855
13952TIP3    H163271   3.596   1.646  16.433  0.5007  0.7420 -0.7627
13952TIP3    H263272   3.685   1.641  16.310  1.0525 -1.8754 -0.2903
13953TIP3   OH263273   3.471   5.097  11.552 -0.2574 -0.4948  0.5247
13953TIP3    H163274   3.449   5.176  11.503 -0.1187 -0.8709 -0.1397
13953TIP3    H263275   3.472   5.126  11.644 -1.5429 -0.0269  0.4071
13954TIP3   OH263276   3.977   4.368   0.367  0.7318  1.0843  0.1735
13954TIP3    H163277   3.967   4.303   0.436  1.0534  0.4033 -0.4110
13954TIP3    H263278   4.057   4.416   0.389  0.7177  1.0056  0.3890
13955TIP3   OH263279   2.635   6.374  17.085 -0.6186 -0.0018  0.7481
13955TIP3    H163280   2.720   6.402  17.052  0.7526  1.0123  4.8817
13955TIP3    H263281   2.653   6.295  17.135 -1.8929  0.8276  2.5792
13956TIP3   OH263282   5.228   2.935  14.549 -0.4995 -0.1329 -0.1730
13956TIP3    H163283   5.295   2.901  14.608 -1.0428  0.6356  0.9038
13956TIP3    H263284   5.229   3.030  14.562 -0.3753  0.0848 -1.6811
13957TIP3   OH263285   5.564   1.149  13.958  0.2382  0.0379  0.0397
13957TIP3    H163286   5.589   1.134  13.867 -0.1070 -0.3928  0.0115
13957TIP3    H263287   5.472   1.178  13.953 -0.1922 -1.2399  0.3334
13958TIP3   OH263288   3.457   1.428  14.338  0.7964  0.3344  0.2619
13958TIP3    H163289   3.414   1.430  14.424  2.9094 -0.9427  1.3928
13958TIP3    H263290   3.513   1.351  14.342  1.1315  0.4347 -2.1914
13959TIP3   OH263291   1.943   5.735   1.704 -1.1084 -0.6433  0.2198
13959TIP3    H163292   2.037   5.744   1.684 -1.7039  1.0434 -2.0492
13959TIP3    H263293   1.941   5.692   1.789  1.7708  0.4814  0.9279
13960TIP3   OH263294   3.683   4.059   4.565  0.3525  0.4037 -0.1954
13960TIP3    H163295   3.649   4.018   4.644 -1.0490  0.9750 -0.4813
13960TIP3    H263296   3.755   4.115   4.595  0.7111 -0.4233  0.4900
13961TIP3   OH263297   4.558   2.514   5.199 -0.1153  0.4098  0.0965
13961TIP3    H163298   4.525   2.479   5.116  1.0207 -0.3874 -0.0409
13961TIP3    H263299   4.561   2.437   5.257  1.2603  0.5013  0.1660
13962TIP3   OH263300   2.810   0.454   3.791  0.6083  0.2165  0.1402
13962TIP3    H163301   2.728   0.442   3.838  0.8441  0.0014  0.4920
13962TIP3    H263302   2.808   0.389   3.721  0.9905 -0.5575  0.8399
13963TIP3   OH263303   1.496   5.214   1.109 -0.2257 -0.0933  0.1525
13963TIP3    H163304   1.437   5.289   1.098 -2.1116 -1.1446  2.7296
13963TIP3    H263305   1.468   5.152   1.042 -0.1473  0.5672 -0.5039
13964TIP3   OH263306   4.138   4.707   3.161  0.6404 -0.3066  0.2444
13964TIP3    H163307   4.182   4.791   3.145  1.0204 -0.9281 -2.1779
13964TIP3    H263308   4.170   4.650   3.092 -0.4778 -2.1450  1.2053
13965TIP3   OH263309   4.322   5.224   2.300 -0.0381 -0.7122 -0.2655
13965TIP3    H163310   4.252   5.173   2.259 -0.6516  0.4463 -0.6547
13965TIP3    H263311   4.282   5.259   2.379  0.0685  0.0740 -0.5636
13966TIP3   OH263312   1.762   3.527   1.594 -0.1278  0.7744  0.3465
13966TIP3    H163313   1.698   3.479   1.540 -0.2709  1.3443  0.0096
13966TIP3    H263314   1.847   3.496   1.564 -0.2241  0.4674  0.3782
13967TIP3   OH263315   0.764   0.825  12.301 -0.1280  0.4559  0.5685
13967TIP3    H163316   0.749   0.916  12.275 -0.1896  0.3770  0.3286
13967TIP3    H263317   0.711   0.774  12.240  1.0023  0.1767 -0.1834
13968TIP3   OH263318   4.697   6.343   5.153 -0.8276 -0.2789 -0.6400
13968TIP3    H163319   4.696   6.349   5.058  1.3250  1.9895 -0.5504
13968TIP3    H263320   4.678   6.432   5.184 -1.1394 -0.9040  1.0499
13969TIP3   OH263321   1.474   1.976  14.546  0.3058 -0.0183 -0.1238
13969TIP3    H163322   1.506   2.011  14.630 -0.1107  0.5895 -0.2091
13969TIP3    H263323   1.408   1.911  14.571  0.3424  0.0021  0.0289
13970TIP3   OH263324   0.664   3.801   1.336 -0.2745  0.7647 -0.1955
13970TIP3    H163325   0.616   3.718   1.333 -0.3537  0.8492 -2.0950
13970TIP3    H263326   0.643   3.838   1.422 -0.9556 -0.7563  0.3079
13971TIP3   OH263327   4.489   6.002  11.508  0.3162  0.0893 -0.2409
13971TIP3    H163328   4.471   6.065  11.438 -0.1500  0.8459  0.5520
13971TIP3    H263329   4.424   6.022  11.575  0.8851 -0.5035  0.4913
13972TIP3   OH263330   1.380   5.467  12.709 -0.4155 -0.3405 -0.5757
13972TIP3    H163331   1.373   5.451  12.615  1.4942 -1.6606 -0.5333
13972TIP3    H263332   1.342   5.554  12.721  1.3505  0.8425 -2.9328
13973TIP3   OH263333   0.538   6.648  10.878  0.9716 -0.0239 -0.0430
13973TIP3    H163334   0.567   6.737  10.859 -0.6580  0.4015 -0.6103
13973TIP3    H263335   0.609   6.593  10.845  1.5294  1.0179 -0.6335
13974TIP3   OH263336   2.290   2.157   1.209  1.0600  0.1444  0.4270
13974TIP3    H163337   2.365   2.197   1.166  0.0662  1.9584  0.3288
13974TIP3    H263338   2.315   2.065   1.222  3.1614  0.6697  0.1666
13975TIP3   OH263339   6.347   1.269   2.123  0.2381 -0.0988  0.3151
13975TIP3    H163340   6.287   1.318   2.179 -1.8281 -0.9176 -1.0878
13975TIP3    H263341   6.302   1.266   2.038  1.5030 -2.1618 -0.3154
13976TIP3   OH263342   2.993   1.904   4.022 -0.6107 -0.3943 -0.2546
13976TIP3    H163343   2.943   1.982   4.048 -2.1931 -1.1603 -0.9283
13976TIP3    H263344   3.056   1.937   3.957  2.3197  1.2487  3.1943
13977TIP3   OH263345   1.582   4.461  11.694 -0.6122 -0.3922 -0.2826
13977TIP3    H163346   1.598   4.379  11.741 -0.8446 -0.6779 -0.7019
13977TIP3    H263347   1.670   4.496  11.676 -0.5275 -0.1506  0.5893
13978TIP3   OH263348   5.464   5.408  11.631 -0.0648  0.4264  0.0370
13978TIP3    H163349   5.546   5.377  11.671 -0.5943 -0.8021  0.1886
13978TIP3    H263350   5.471   5.381  11.540  0.5281  2.0063 -0.3953
13979TIP3   OH263351   5.701   5.143  14.544  0.2498 -0.4921 -0.3599
13979TIP3    H163352   5.742   5.081  14.484 -1.3237 -1.7359 -0.1783
13979TIP3    H263353   5.664   5.089  14.614 -1.3697  0.6092 -0.3313
13980TIP3   OH263354   1.394   0.326   6.156 -0.0201 -0.1077  0.1835
13980TIP3    H163355   1.475   0.375   6.151 -1.4744  2.2932 -0.7661
13980TIP3    H263356   1.354   0.352   6.239 -0.3425 -0.3990  0.1246
13981TIP3   OH263357   4.385   5.981  17.036 -0.7088 -0.1870 -0.3293
13981TIP3    H163358   4.410   5.889  17.033  0.8968  0.2577 -1.4897
13981TIP3    H263359   4.445   6.020  17.100 -0.0531  0.4230 -1.3040
13982TIP3   OH263360   6.259   0.017   2.465  0.4695 -0.8558 -0.1721
13982TIP3    H163361   6.218  -0.039   2.532  0.4490  1.4518  1.8055
13982TIP3    H263362   6.222  -0.015   2.382 -0.2496 -3.1454  0.9782
13983TIP3   OH263363   2.331   3.038   6.324 -0.2980 -0.2542  0.3360
13983TIP3    H163364   2.354   3.121   6.366  0.7095 -0.5334  0.3513
13983TIP3    H263365   2.288   3.063   6.243 -0.0158  0.2921  0.3485
13984TIP3   OH263366   6.612   4.277   0.681 -0.7890  0.9176 -0.2957
13984TIP3    H163367   6.614   4.290   0.776  1.5917  0.3967 -0.2395
13984TIP3    H263368   6.668   4.347   0.646  1.0044 -0.8202 -1.0275
13985TIP3   OH263369   2.501   0.261  14.419  0.1040 -0.0626 -0.1381
13985TIP3    H163370   2.490   0.205  14.342  1.8898 -1.1092  0.3356
13985TIP3    H263371   2.444   0.222  14.486  0.8047 -0.9135 -0.0270
13986TIP3   OH263372   0.170   4.656   6.334 -0.1005 -0.6972  0.0723
13986TIP3    H163373   0.154   4.585   6.396 -0.4818  0.3156  1.1537
13986TIP3    H263374   0.244   4.704   6.372  0.3977 -0.7278 -0.8454
13987TIP3   OH263375   5.736   3.226  13.301  0.2897  0.2302  0.0484
13987TIP3    H163376   5.689   3.177  13.234  0.0350  0.6007 -0.0477
13987TIP3    H263377   5.676   3.230  13.375  0.8933 -0.8954  0.6054
13988TIP3   OH263378   5.698   3.503  15.631 -0.0320  0.4883 -0.4960
13988TIP3    H163379   5.611   3.483  15.666  0.1122  1.1299  0.2334
13988TIP3    H263380   5.745   3.419  15.636 -0.4742  0.2359 -0.5148
13989TIP3   OH263381   3.833   3.492  14.566  0.9113 -0.1425 -0.1902
13989TIP3    H163382   3.847   3.501  14.660  0.2739 -1.9859  0.1088
13989TIP3    H263383   3.902   3.545  14.526  0.8858  1.0424  1.3112
13990TIP3   OH263384   6.423   0.721   0.871  0.6185 -0.4358 -1.0910
13990TIP3    H163385   6.361   0.678   0.812  0.3396 -1.1242 -0.3188
13990TIP3    H263386   6.510   0.694   0.839  0.5112  0.3618 -2.0469
13991TIP3   OH263387   1.736   1.780  14.783 -0.1708 -0.5647 -0.7614
13991TIP3    H163388   1.684   1.783  14.863 -0.2021  0.6756 -0.8121
13991TIP3    H263389   1.671   1.791  14.713 -0.3916 -3.6042 -1.0849
13992TIP3   OH263390   4.494   6.028  15.582  0.4604 -0.0060  0.2375
13992TIP3    H163391   4.442   6.106  15.565  2.0445  0.8983 -0.5953
13992TIP3    H263392   4.541   6.048  15.663 -0.6333 -0.9001  1.1026
13993TIP3   OH263393   0.545   0.695  16.311 -0.0085  0.0162 -0.0951
13993TIP3    H163394   0.508   0.626  16.367 -0.7416 -1.9799 -2.9213
13993TIP3    H263395   0.514   0.674  16.224  2.1231  2.3440 -1.4789
13994TIP3   OH263396   2.272   1.594   5.197 -0.2384 -0.4176 -0.1047
13994TIP3    H163397   2.348   1.588   5.255  0.0796  1.2585 -0.3430
13994TIP3    H263398   2.257   1.503   5.170  0.7977 -0.9658  1.0579
13995TIP3   OH263399   0.538   4.542  15.856 -0.2229 -0.0952 -0.3969
13995TIP3    H163400   0.528   4.479  15.927  0.4399 -0.2665 -0.4497
13995TIP3    H263401   0.491   4.620  15.885 -2.2889 -1.0979 -0.9393
13996TIP3   OH263402   4.742   3.455  13.161 -0.7905  0.4303 -0.1374
13996TIP3    H163403   4.696   3.408  13.231  0.3297 -0.1357  0.2266
13996TIP3    H263404   4.737   3.396  13.085 -0.5772  0.3175 -0.0654
13997TIP3   OH263405   0.301   5.719  14.434 -0.2446 -0.1723 -0.7373
13997TIP3    H163406   0.355   5.794  14.461 -1.8912  1.5379 -2.1081
13997TIP3    H263407   0.217   5.757  14.410 -1.9478 -2.7497  0.8554
13998TIP3   OH263408   5.670   5.025  15.833 -0.1714  0.3210  0.8264
13998TIP3    H163409   5.669   4.977  15.750  1.7457  1.2091  0.2624
13998TIP3    H263410   5.704   4.963  15.897  0.4811  0.3402  0.4940
13999TIP3   OH263411   4.628   3.675   1.656 -0.5267  0.2012 -0.2549
13999TIP3    H163412   4.607   3.758   1.615 -0.5345  0.3741  0.1032
13999TIP3    H263413   4.574   3.611   1.609  0.0648  0.2781 -1.0668
14000TIP3   OH263414   6.172   2.513   1.599  0.3793  0.0560  0.4668
14000TIP3    H163415   6.219   2.444   1.646  0.9855 -0.7421 -1.2457
14000TIP3    H263416   6.235   2.545   1.535 -0.9745 -0.1254 -0.9793
14001TIP3   OH263417   0.328   1.687  13.116  0.2667  0.1161 -0.3161
14001TIP3    H163418   0.396   1.643  13.167  1.3211  1.6366 -0.3643
14001TIP3    H263419   0.376   1.726  13.043 -0.9050 -0.1464 -1.2285
14002TIP3   OH263420   3.129   4.621  13.554 -0.0462 -0.0608 -0.0425
14002TIP3    H163421   3.054   4.613  13.496 -1.5754 -1.9742  2.0972
14002TIP3    H263422   3.095   4.665  13.632  0.8879 -1.4646  1.1902
14003TIP3   OH263423   5.385   5.473   0.298 -0.1444 -0.5899  0.2930
14003TIP3    H163424   5.330   5.546   0.272  0.0176 -0.3422  0.6418
14003TIP3    H263425   5.458   5.513   0.345  0.6358 -0.8662 -0.6603
14004TIP3   OH263426   5.507   6.536  13.340  0.2091  0.2426 -0.6573
14004TIP3    H163427   5.471   6.596  13.275 -0.0961  1.6293  0.7595
14004TIP3    H263428   5.442   6.535  13.410 -0.2144 -2.4493 -1.0314
14005TIP3   OH263429   3.524   1.942   2.687 -0.4604  0.1277 -0.4706
14005TIP3    H163430   3.498   1.967   2.598  1.1336  2.0825 -0.4137
14005TIP3    H263431   3.481   2.005   2.744  2.4792  2.0103 -0.2258
14006TIP3   OH263432   1.782   5.539   1.026 -0.1217  0.3133 -0.0672
14006TIP3    H163433   1.822   5.597   0.961 -0.5702  0.2956 -0.3626
14006TIP3    H263434   1.856   5.490   1.063  0.0719 -0.1887 -1.0834
14007TIP3   OH263435   2.790   6.220   3.712 -0.2123  0.4779 -0.3486
14007TIP3    H163436   2.782   6.301   3.761 -1.4700  1.5458 -2.2523
14007TIP3    H263437   2.880   6.192   3.725 -0.7223  0.2993  3.1701
14008TIP3   OH263438   2.451   4.260  13.362  0.0693  0.1213 -0.6099
14008TIP3    H163439   2.402   4.336  13.393 -1.1299 -1.7083  2.1756
14008TIP3    H263440   2.542   4.279  13.383  0.3168  2.3815 -3.4025
14009TIP3   OH263441   0.679   0.415   3.894  0.1582 -0.3552 -0.0073
14009TIP3    H163442   0.606   0.477   3.896 -1.1891 -1.9010 -0.1518
14009TIP3    H263443   0.684   0.381   3.983 -0.6996 -1.8250 -0.5025
14010TIP3   OH263444   2.144   3.666  16.669 -0.7714 -0.1210 -0.4019
14010TIP3    H163445   2.142   3.663  16.765 -0.6812 -0.3186 -0.4034
14010TIP3    H263446   2.054   3.647  16.642 -1.0541  1.1250 -0.3374
14011TIP3   OH263447   5.293   4.709  12.909 -0.4756 -0.5504  0.0468
14011TIP3    H163448   5.258   4.700  12.998  1.2717 -1.0986  0.7007
14011TIP3    H263449   5.250   4.787  12.874 -0.6229  0.1111  1.6511
14012TIP3   OH263450   5.406   3.186   0.854  0.3642  0.3765 -0.4063
14012TIP3    H163451   5.439   3.257   0.799  1.3827 -0.9280 -1.5133
14012TIP3    H263452   5.345   3.138   0.797  0.7378 -0.4446 -0.1301
14013TIP3   OH263453   0.136   1.180  16.168  0.4278  0.3650 -0.1739
14013TIP3    H163454   0.136   1.228  16.250  0.3794  0.5764 -0.2979
14013TIP3    H263455   0.223   1.141  16.163  0.1656 -0.3226  0.3745
14014TIP3   OH263456   3.802   6.733   2.599  0.4063  0.6087 -0.2423
14014TIP3    H163457   3.889   6.750   2.634  1.7629 -0.3153 -2.9535
14014TIP3    H263458   3.793   6.794   2.526 -1.1295  0.5194 -0.1529
14015TIP3   OH263459   5.655   1.430  16.844  0.1672  0.7468 -0.0571
14015TIP3    H163460   5.615   1.432  16.931 -0.3973 -1.5788 -0.2106
14015TIP3    H263461   5.581   1.443  16.784 -0.0071 -0.9602 -0.2574
14016TIP3   OH263462   2.404   3.990   5.284 -0.0061 -0.2657  0.1686
14016TIP3    H163463   2.478   3.933   5.305 -0.0217 -1.1637 -2.1364
14016TIP3    H263464   2.335   3.931   5.254 -1.0765  0.7225  0.6358
14017TIP3   OH263465   5.646   6.269  12.982  0.1434  0.1491  0.3897
14017TIP3    H163466   5.722   6.286  12.926 -0.3444 -0.2140 -0.3827
14017TIP3    H263467   5.572   6.263  12.922 -0.2755 -0.9584  0.9912
14018TIP3   OH263468   1.903   2.909  16.702  0.0169  0.2625  0.4170
14018TIP3    H163469   1.927   2.936  16.791  0.9119  4.2989 -0.9239
14018TIP3    H263470   1.986   2.904  16.656 -0.6618  1.0355 -0.9070
14019TIP3   OH263471   0.136   2.005   0.361  0.2696 -1.0396 -0.1295
14019TIP3    H163472   0.119   2.064   0.434  0.5772 -2.4780  1.1369
14019TIP3    H263473   0.050   1.986   0.324  0.1074 -0.3867 -0.0846
14020TIP3   OH263474   1.196   2.069   1.644  0.4536  0.1172  0.4526
14020TIP3    H163475   1.218   2.030   1.559  2.8203  0.6717  0.7701
14020TIP3    H263476   1.229   2.159   1.638 -0.7648  0.6376  1.4154
14021TIP3   OH263477   3.465   2.482   4.893 -0.0849  0.3816  0.4294
14021TIP3    H163478   3.486   2.527   4.975 -0.6075 -0.2773  0.9284
14021TIP3    H263479   3.399   2.418   4.917  0.2561 -0.2829 -0.3886
14022TIP3   OH263480   2.883   5.604  11.659  0.5245 -0.3593  0.1288
14022TIP3    H163481   2.925   5.588  11.574  0.7425  2.1501 -0.2766
14022TIP3    H263482   2.930   5.679  11.695 -0.4519 -0.5606  1.8795
14023TIP3   OH263483   3.263   1.066  11.700 -0.9098 -0.0915 -0.0930
14023TIP3    H163484   3.211   0.990  11.674 -1.6762 -0.0959  1.3949
14023TIP3    H263485   3.291   1.047  11.789 -0.0601  0.8215 -0.1548
14024TIP3   OH263486   2.470   6.734  13.896 -0.2364 -0.3013 -0.2083
14024TIP3    H163487   2.528   6.766  13.827  0.7677 -0.6355  0.4703
14024TIP3    H263488   2.529   6.707  13.966 -1.1292 -2.3406 -0.2195
14025TIP3   OH263489   4.120   5.457  17.122  0.8499  0.3913 -0.1059
14025TIP3    H163490   4.170   5.461  17.040  0.3917  0.5864 -0.3752
14025TIP3    H263491   4.098   5.548  17.141  0.3200  0.2760 -0.1574
14026TIP3   OH263492   4.984   3.376  16.614 -0.4063 -0.5497 -0.1439
14026TIP3    H163493   5.020   3.305  16.667 -0.5197 -0.6939 -0.2580
14026TIP3    H263494   5.008   3.456  16.661 -1.6550 -0.7393  0.8338
14027TIP3   OH263495   6.486   6.184   5.543  0.5304  0.4616 -0.2053
14027TIP3    H163496   6.414   6.179   5.606  1.4761 -0.0272  0.8485
14027TIP3    H263497   6.488   6.276   5.516  0.9339  0.9709  1.4691
14028TIP3   OH263498   5.533   4.224   4.404 -0.4110  0.0022  0.1172
14028TIP3    H163499   5.571   4.173   4.475  0.0127 -0.4165 -0.4038
14028TIP3    H263500   5.601   4.287   4.380  0.7072 -1.9326 -2.0294
14029TIP3   OH263501   6.441   1.630  16.761  0.0086  0.0619 -0.3674
14029TIP3    H163502   6.469   1.579  16.684  0.0423 -2.8039  1.4449
14029TIP3    H263503   6.500   1.600  16.830 -0.8740  1.6538  1.0773
14030TIP3   OH263504   5.954   6.717   3.300 -0.5174  0.4557  0.0269
14030TIP3    H163505   5.867   6.730   3.338 -0.3771 -2.2694  1.3207
14030TIP3    H263506   5.995   6.803   3.305 -2.3249  1.2619  1.4421
14031TIP3   OH263507   2.471   2.325   1.070  0.2538 -0.2913 -0.5958
14031TIP3    H163508   2.439   2.368   0.990 -0.3724  0.2692 -0.0509
14031TIP3    H263509   2.547   2.376   1.096  0.9573 -0.9654 -1.2781
14032TIP3   OH263510   0.444   3.368  15.780  0.5297  0.0668  0.4522
14032TIP3    H163511   0.421   3.277  15.797  1.3964 -0.1360  0.5435
14032TIP3    H263512   0.362   3.416  15.791  0.5840 -0.3588  2.8248
14033TIP3   OH263513   5.034   4.743  16.118 -0.6447 -0.0512 -0.3885
14033TIP3    H163514   4.993   4.722  16.035 -0.0040  1.3056 -1.0759
14033TIP3    H263515   4.967   4.792  16.167 -1.5880 -2.2642  0.5774
14034TIP3   OH263516   4.865   2.118   2.129  0.0869 -0.0808  0.2475
14034TIP3    H163517   4.900   2.058   2.063  0.1567 -0.4833  0.6416
14034TIP3    H263518   4.930   2.187   2.137 -0.2901  0.3896 -0.6674
14035TIP3   OH263519   6.488   5.573  12.024 -0.1820 -0.1374 -0.2908
14035TIP3    H163520   6.486   5.619  12.108 -1.4983 -0.5279 -0.0924
14035TIP3    H263521   6.513   5.483  12.045  2.5692  0.4821 -0.6973
14036TIP3   OH263522   6.031   5.600  12.846  0.3199 -0.1016  0.2178
14036TIP3    H163523   5.938   5.624  12.852  0.7499  1.3197  1.4438
14036TIP3    H263524   6.067   5.622  12.931  1.5129 -1.9572  0.2325
14037TIP3   OH263525   1.798   2.280  13.221 -0.3049  0.7702 -0.5445
14037TIP3    H163526   1.766   2.255  13.308 -1.5318  2.7902 -0.3928
14037TIP3    H263527   1.891   2.300  13.235  0.0767 -1.1518 -0.1762
14038TIP3   OH263528   5.759   6.697   0.252 -0.0141  0.3573 -0.9127
14038TIP3    H163529   5.717   6.757   0.191 -1.5782  0.3081  0.1027
14038TIP3    H263530   5.776   6.750   0.330 -0.6205 -0.2964 -0.3304
14039TIP3   OH263531   5.339   1.291   0.683 -0.4371 -0.5064  0.4399
14039TIP3    H163532   5.289   1.235   0.742 -2.3462  2.1954  1.4422
14039TIP3    H263533   5.412   1.323   0.737 -0.4070 -0.5340  0.4155
14040TIP3   OH263534   0.681   4.562  13.160  0.0069  0.1632 -0.8342
14040TIP3    H163535   0.692   4.512  13.079  4.1098 -1.4239  0.5730
14040TIP3    H263536   0.667   4.652  13.132 -0.6933 -0.6739 -3.3004
14041TIP3   OH263537   2.622   6.757  14.315 -0.1675  0.2137  0.2221
14041TIP3    H163538   2.530   6.736  14.325  0.4532 -2.6082  0.4680
14041TIP3    H263539   2.648   6.713  14.234  0.9294  1.1507  0.0457
14042TIP3   OH263540   1.895   5.319  15.416 -0.1912 -0.2755 -0.4522
14042TIP3    H163541   1.883   5.309  15.510  0.0265 -0.9804 -0.5018
14042TIP3    H263542   1.925   5.409  15.405  1.0331 -0.5926  0.2600
14043TIP3   OH263543   4.675   2.816  15.678 -0.5957 -0.0820 -0.1971
14043TIP3    H163544   4.636   2.736  15.715  0.0572 -1.3551 -2.1684
14043TIP3    H263545   4.611   2.846  15.613 -0.1363  0.0992 -0.5726
14044TIP3   OH263546   2.820   5.905  17.057 -0.1476 -0.3279  0.0056
14044TIP3    H163547   2.864   5.939  17.135 -1.8520 -0.2497  0.9771
14044TIP3    H263548   2.739   5.956  17.052  0.0864 -0.1333 -2.0012
14045TIP3   OH263549   6.272   3.142  15.248 -0.1742 -0.1397  0.2018
14045TIP3    H163550   6.318   3.104  15.323  1.6869  2.2470  0.3330
14045TIP3    H263551   6.179   3.137  15.273  0.3562 -0.0925  2.3232
14046TIP3   OH263552   3.853   3.660  11.587  0.0072  0.3856  0.0413
14046TIP3    H163553   3.802   3.591  11.545  0.7653  0.1743 -0.5501
14046TIP3    H263554   3.932   3.668  11.533  0.6496  0.6261  0.9996
14047TIP3   OH263555   3.250   6.144  12.712  0.4159 -0.1549 -0.1260
14047TIP3    H163556   3.176   6.131  12.653  0.9364 -0.1695 -0.7697
14047TIP3    H263557   3.327   6.138  12.657  0.9058 -0.1507  0.5500
14048TIP3   OH263558   4.244   4.376  15.271 -0.7158 -0.3187  0.2451
14048TIP3    H163559   4.190   4.358  15.348  0.2131 -0.2708  0.9163
14048TIP3    H263560   4.312   4.309  15.273  0.4552  0.8506  0.5647
14049TIP3   OH263561   3.409   1.428   0.062 -0.1219  0.4237 -0.1214
14049TIP3    H163562   3.486   1.462   0.108 -0.7312  0.7811  0.6405
14049TIP3    H263563   3.429   1.443  -0.031  1.0204 -0.1134  0.0254
14050TIP3   OH263564   3.257   4.363  11.974 -0.1434 -0.0882  0.0546
14050TIP3    H163565   3.285   4.316  12.052  1.2327  0.1217 -0.3067
14050TIP3    H263566   3.215   4.442  12.008 -1.9151 -1.2644  0.6422
14051TIP3   OH263567   5.287   1.615  16.219 -0.3363  0.4686  0.7531
14051TIP3    H163568   5.366   1.662  16.246  0.1873 -0.1074  0.2368
14051TIP3    H263569   5.238   1.680  16.167 -0.4418  0.9735  1.4664
14052TIP3   OH263570   5.658   4.451  11.098  0.3837  0.3228 -0.3080
14052TIP3    H163571   5.624   4.388  11.162 -0.0722  0.8522 -0.0244
14052TIP3    H263572   5.741   4.413  11.070 -0.3057 -0.8619 -0.8135
14053TIP3   OH263573   3.456   4.851  16.189 -0.0358 -0.2183  0.4159
14053TIP3    H163574   3.369   4.889  16.199 -0.9190 -2.0159 -0.4002
14053TIP3    H263575   3.442   4.757  16.183  1.8592 -0.4508 -0.9559
14054TIP3   OH263576   4.389   0.051   5.516  0.4062  0.0679  0.0119
14054TIP3    H163577   4.382  -0.044   5.513  0.2701  0.0033  1.8586
14054TIP3    H263578   4.334   0.077   5.590  1.3708  1.4809  0.2580
14055TIP3   OH263579   3.620   4.907  17.033 -1.0100  0.4076 -0.4401
14055TIP3    H163580   3.662   4.838  16.982 -1.1100  0.5528 -0.7239
14055TIP3    H263581   3.673   4.985  17.016 -1.4526  0.6141 -0.8818
14056TIP3   OH263582   2.752   2.151  11.872 -0.0853 -0.1070 -0.0257
14056TIP3    H163583   2.689   2.224  11.863 -1.3589 -1.0265  1.2302
14056TIP3    H263584   2.779   2.153  11.964 -1.2274 -2.0802  0.3851
14057TIP3   OH263585   3.463   5.638  13.310  0.4401  0.0045  0.0449
14057TIP3    H163586   3.449   5.671  13.399 -2.2585  0.8767 -0.6488
14057TIP3    H263587   3.375   5.615  13.279  1.3639 -0.4429 -2.3249
14058TIP3   OH263588   6.651   2.727   1.844  0.0993  0.3791 -0.4586
14058TIP3    H163589   6.657   2.822   1.835  1.5783  0.5467  1.7208
14058TIP3    H263590   6.557   2.708   1.849 -0.1915  1.7520 -0.6941
14059TIP3   OH263591   3.137   5.736   0.900  0.0492 -0.2696  0.1595
14059TIP3    H163592   3.185   5.806   0.943 -1.5844  1.1230 -0.2507
14059TIP3    H263593   3.069   5.711   0.962 -0.3436 -0.4276 -0.3329
14060TIP3   OH263594   6.400   2.327   3.864 -0.1161  0.4149  0.3339
14060TIP3    H163595   6.373   2.298   3.951 -0.3890  0.5396  0.2917
14060TIP3    H263596   6.345   2.403   3.846  0.2768  0.6873  0.2558
14061TIP3   OH263597   5.442   5.037  11.617 -0.2351  0.8322  0.0769
14061TIP3    H163598   5.527   5.063  11.652 -0.4261 -0.0008  1.1926
14061TIP3    H263599   5.431   4.947  11.648 -0.2861 -0.0325 -2.3753
14062TIP3   OH263600   5.043   2.732  12.366  0.1276  0.1369 -0.0806
14062TIP3    H163601   5.076   2.644  12.383  1.1174  0.6435  0.6235
14062TIP3    H263602   5.012   2.728  12.275 -1.7543 -1.5126  0.5828
14063TIP3   OH263603   3.349   2.680   1.152 -0.0671  0.0653  0.8270
14063TIP3    H163604   3.300   2.630   1.086  1.0329 -1.7309  1.3478
14063TIP3    H263605   3.369   2.763   1.109 -0.2295 -0.6944 -0.7562
14064TIP3   OH263606   4.430   3.844   4.795 -0.0848  0.0457 -0.0214
14064TIP3    H163607   4.412   3.894   4.874  1.2672 -0.2743  0.5107
14064TIP3    H263608   4.383   3.761   4.808 -0.0868  0.1004  0.3255
14065TIP3   OH263609   5.664   1.436   3.506 -0.2239 -0.3117  0.5369
14065TIP3    H163610   5.696   1.485   3.430  0.3474  1.4683  1.8850
14065TIP3    H263611   5.743   1.407   3.551 -0.5281  0.4878  1.6051
14066TIP3   OH263612   0.722   5.941   6.329 -0.4170 -0.7105  0.2710
14066TIP3    H163613   0.706   6.017   6.385 -1.8974 -0.4378 -0.5125
14066TIP3    H263614   0.801   5.901   6.366 -0.6059  0.2226  1.7340
14067TIP3   OH263615   3.974   2.023   5.161 -0.0414  0.2072 -0.4022
14067TIP3    H163616   3.906   2.028   5.229  0.2864 -0.2845 -0.0438
14067TIP3    H263617   4.044   1.972   5.201  0.2075  0.0360 -1.0648
14068TIP3   OH263618   0.500   2.663   5.817 -0.1458 -0.7413  0.3409
14068TIP3    H163619   0.463   2.621   5.895  0.8643 -0.0987  1.1722
14068TIP3    H263620   0.469   2.753   5.821 -2.7066 -1.4828 -1.6990
14069TIP3   OH263621   3.209   2.551   5.239 -0.4710 -0.6457 -0.4569
14069TIP3    H163622   3.297   2.562   5.202 -0.4944 -0.3103 -0.4143
14069TIP3    H263623   3.150   2.555   5.164 -0.4690 -0.6175 -0.4573
14070TIP3   OH263624   3.835   6.526   4.426  0.0538  0.2999 -0.1411
14070TIP3    H163625   3.773   6.579   4.375 -2.1126 -0.4055  1.6870
14070TIP3    H263626   3.811   6.436   4.407  1.4556  0.0049 -0.5217
14071TIP3   OH263627   0.746   2.234  12.420  1.0208 -0.0608 -0.7009
14071TIP3    H163628   0.745   2.208  12.328  0.3980  2.1850 -1.3426
14071TIP3    H263629   0.655   2.225  12.448  1.4247 -1.9756  0.0762
14072TIP3   OH263630   2.465   3.369   6.270 -0.1127 -0.0969  0.4531
14072TIP3    H163631   2.445   3.331   6.355  0.9445 -1.8775 -0.0601
14072TIP3    H263632   2.512   3.450   6.290 -1.4093  0.3999  1.5611
14073TIP3   OH263633   0.539   2.335  16.931  0.3297 -0.5986  0.5683
14073TIP3    H163634   0.491   2.343  17.013 -0.9986 -0.0038 -0.2645
14073TIP3    H263635   0.562   2.242  16.926 -1.7062 -1.1013  0.4241
14074TIP3   OH263636   4.103   1.940   0.861 -0.2774 -0.8953  1.3109
14074TIP3    H163637   4.091   1.854   0.901 -0.2938 -1.3953  0.2503
14074TIP3    H263638   4.018   1.960   0.822  0.5566 -1.7333 -0.9920
14075TIP3   OH263639   5.970   5.983  13.459 -0.3152 -0.0570 -0.2630
14075TIP3    H163640   6.051   5.966  13.410  0.5687 -0.0530  1.1602
14075TIP3    H263641   5.996   5.972  13.551 -2.1253 -0.8579  0.1687
14076TIP3   OH263642   3.843   0.015   5.063 -0.5613  0.0124 -0.4364
14076TIP3    H163643   3.918  -0.044   5.074  0.0518  0.3573 -2.4794
14076TIP3    H263644   3.780  -0.035   5.012 -1.0622  0.2830 -0.0847
14077TIP3   OH263645   3.230   5.769  11.609 -0.4464 -0.4742  0.3572
14077TIP3    H163646   3.153   5.804  11.655 -0.0919  0.9196 -0.1196
14077TIP3    H263647   3.222   5.801  11.519 -0.4753 -2.1744 -0.2836
14078TIP3   OH263648   3.996   0.905  15.684  0.0317 -0.2743 -0.0134
14078TIP3    H163649   3.997   0.838  15.752 -1.5687  0.6129  0.9372
14078TIP3    H263650   3.918   0.958  15.704  0.0235  0.5273 -2.0313
14079TIP3   OH263651   2.387   2.209  14.781  0.3779 -0.1151  0.1870
14079TIP3    H163652   2.423   2.226  14.868  1.7784  1.4761 -0.6828
14079TIP3    H263653   2.323   2.139  14.795  0.4831  0.2199  2.5159
14080TIP3   OH263654   4.708   4.677  14.013  0.5634 -0.0211 -0.0961
14080TIP3    H163655   4.664   4.761  14.002 -0.4661 -0.3719  1.2092
14080TIP3    H263656   4.771   4.692  14.084  1.0116 -0.1101 -0.4719
14081TIP3   OH263657   4.724   2.523  10.238 -0.0842 -0.2143 -0.4723
14081TIP3    H163658   4.792   2.457  10.222 -0.6770 -0.6085 -1.4527
14081TIP3    H263659   4.648   2.472  10.266  0.3156  0.3065  1.6167
14082TIP3   OH263660   5.142   0.838  12.632 -0.4478  0.1418  0.1921
14082TIP3    H163661   5.069   0.783  12.660  1.1787 -2.6681 -0.8846
14082TIP3    H263662   5.196   0.847  12.711 -0.2637 -0.5766  0.1542
14083TIP3   OH263663   2.166   2.516  11.274  0.0827  0.0653 -0.2278
14083TIP3    H163664   2.099   2.451  11.297 -0.2188 -0.3968 -2.3339
14083TIP3    H263665   2.245   2.486  11.317 -0.2244 -1.3453 -0.6333
14084TIP3   OH263666   5.444   2.484   0.792  0.3107 -0.0987  0.3034
14084TIP3    H163667   5.377   2.416   0.792  1.7354 -1.6042 -2.0348
14084TIP3    H263668   5.492   2.471   0.873 -0.9359 -0.3283  1.0144
14085TIP3   OH263669   4.652   1.986  16.324 -0.2441 -0.0123  0.3278
14085TIP3    H163670   4.623   1.965  16.235  0.4723 -0.3985  0.1829
14085TIP3    H263671   4.586   2.046  16.357 -1.9648 -1.9467  0.4955
14086TIP3   OH263672   4.744   3.986  14.541  0.2493  0.0825 -0.4346
14086TIP3    H163673   4.830   3.965  14.505  0.1425  0.2315 -0.7751
14086TIP3    H263674   4.759   4.061  14.599  0.1816  0.7497 -1.2707
14087TIP3   OH263675   4.195   3.474   3.417  0.4034 -0.1450 -0.2780
14087TIP3    H163676   4.176   3.524   3.338  1.3569 -0.5604 -0.7725
14087TIP3    H263677   4.266   3.414   3.392  0.6016 -0.3948  0.8385
14088TIP3   OH263678   6.212   6.600   1.551 -0.2815 -0.5212  0.0214
14088TIP3    H163679   6.190   6.684   1.510 -0.7241 -0.1272  1.0606
14088TIP3    H263680   6.225   6.540   1.477  0.8400  0.6516 -0.7479
14089TIP3   OH263681   6.260   0.831  16.692 -0.5066 -0.0641  0.0416
14089TIP3    H163682   6.225   0.912  16.729 -2.1218 -1.3119  1.3313
14089TIP3    H263683   6.350   0.826  16.724 -1.5980 -0.7002  3.2713
14090TIP3   OH263684   4.600   3.479   3.611 -0.1476 -0.4681 -0.0974
14090TIP3    H163685   4.660   3.449   3.679  0.0143 -1.5261 -0.7059
14090TIP3    H263686   4.656   3.524   3.548 -0.3583  0.9479  0.6882
14091TIP3   OH263687   6.109   5.883   3.233 -0.0528 -0.1129 -0.6471
14091TIP3    H163688   6.130   5.943   3.161  1.3141  0.5249  0.2522
14091TIP3    H263689   6.121   5.935   3.312 -4.0691 -0.0564  0.0215
14092TIP3   OH263690   3.490   6.312   5.334  0.1912 -0.1182  0.3843
14092TIP3    H163691   3.581   6.337   5.349  0.1779 -2.0158  4.5675
14092TIP3    H263692   3.495   6.239   5.272  1.5838 -0.5959  1.0403
14093TIP3   OH263693   3.457   2.104   2.436  0.8390  0.4227 -0.0601
14093TIP3    H163694   3.501   2.101   2.351 -0.3036 -0.7721 -0.6350
14093TIP3    H263695   3.381   2.160   2.421  0.1202 -0.5515 -0.0869
14094TIP3   OH263696   4.006   0.037   2.802  0.3883 -0.1341  0.7567
14094TIP3    H163697   3.998  -0.030   2.870 -3.5111  1.0500  1.5890
14094TIP3    H263698   3.947   0.107   2.830 -0.0602  1.1150 -3.0080
14095TIP3   OH263699   3.536   6.758   6.200 -0.2600 -0.0559 -0.0267
14095TIP3    H163700   3.569   6.800   6.279 -0.6153  0.3001 -0.0689
14095TIP3    H263701   3.608   6.764   6.137 -0.1768  0.1459  0.0894
14096TIP3   OH263702   5.639   0.040  13.441  1.0042  0.1120  0.2936
14096TIP3    H163703   5.605  -0.028  13.500 -0.4198  0.6414  0.0980
14096TIP3    H263704   5.566   0.102  13.431  1.5993  0.5957 -1.1677
14097TIP3   OH263705   5.453   5.355   1.232  0.2266  0.1063  0.3777
14097TIP3    H163706   5.510   5.283   1.204 -0.5293 -0.0269 -0.8694
14097TIP3    H263707   5.507   5.433   1.222  1.1476 -0.2919  2.0059
14098TIP3   OH263708   4.885   5.471  13.600  0.2979  0.8619  0.0132
14098TIP3    H163709   4.927   5.475  13.686 -1.4252 -0.5711  0.9405
14098TIP3    H263710   4.865   5.562  13.579  0.2297  1.1707  1.3872
14099TIP3   OH263711   1.713   3.767   1.287 -0.0333 -0.5936  0.1244
14099TIP3    H163712   1.650   3.813   1.232 -0.2864 -1.4243 -0.2742
14099TIP3    H263713   1.663   3.697   1.328  0.4820 -0.8527  0.3122
14100TIP3   OH263714   2.148   1.094   4.929  0.2678 -0.7599  0.2659
14100TIP3    H163715   2.231   1.090   4.882 -0.8402 -2.0409 -1.6304
14100TIP3    H263716   2.097   1.161   4.884  0.5070  0.5499  1.8798
14101TIP3   OH263717   0.862   0.390   3.021 -0.1191  0.0073  0.2223
14101TIP3    H163718   0.897   0.335   3.091 -0.8863  0.0550  0.6512
14101TIP3    H263719   0.795   0.444   3.064 -1.2608 -0.6283 -0.7159
14102TIP3   OH263720   3.645   6.711   0.141  0.4783 -0.0650  0.4073
14102TIP3    H163721   3.730   6.691   0.101 -1.0450 -3.0016 -1.5396
14102TIP3    H263722   3.612   6.626   0.171 -2.0460  0.9144  0.5308
14103TIP3   OH263723   2.736   3.657  11.329 -0.0159  0.0329  0.0665
14103TIP3    H163724   2.647   3.643  11.363  0.0586  0.6347  0.5254
14103TIP3    H263725   2.775   3.570  11.329 -0.8723 -0.3611 -0.9019
14104TIP3   OH263726   2.256   6.199   2.206  0.5102  0.6316  0.1124
14104TIP3    H163727   2.236   6.220   2.115  0.3191  1.4015  0.3236
14104TIP3    H263728   2.307   6.274   2.237 -0.3145  0.8676  0.9335
14105TIP3   OH263729   2.873   1.263  15.351  0.1119  0.0249 -0.5390
14105TIP3    H163730   2.916   1.221  15.277  0.2178 -0.5362 -0.1593
14105TIP3    H263731   2.929   1.244  15.426  0.8261  1.8880 -0.5625
14106TIP3   OH263732   3.507   4.275  15.969  0.3207  0.4236 -0.1622
14106TIP3    H163733   3.575   4.334  15.937  0.6634  0.5629  0.8257
14106TIP3    H263734   3.431   4.331  15.983  0.3672  0.4688 -0.0958
14107TIP3   OH263735   5.215   0.489  13.913 -0.1529 -0.1192 -0.5681
14107TIP3    H163736   5.150   0.514  13.847  0.3653 -1.5901 -1.6927
14107TIP3    H263737   5.168   0.489  13.996 -0.3826  3.5394 -0.6290
14108TIP3   OH263738   2.396   5.276  13.298  0.2712  0.5180  0.5020
14108TIP3    H163739   2.428   5.203  13.350 -1.4774 -1.0506 -0.5557
14108TIP3    H263740   2.324   5.239  13.247  0.7616  2.4601 -1.6635
14109TIP3   OH263741   0.195   6.743  15.663  0.0296 -0.7990  0.1579
14109TIP3    H163742   0.288   6.753  15.684  0.4707 -1.5935 -1.3440
14109TIP3    H263743   0.150   6.754  15.746  1.4704 -0.3259  0.8840
14110TIP3   OH263744   2.733   2.707   4.607 -0.3861 -0.1111  0.8723
14110TIP3    H163745   2.653   2.706   4.660 -1.0329 -0.3989 -0.1070
14110TIP3    H263746   2.708   2.752   4.526  0.4212 -0.2618  0.5343
14111TIP3   OH263747   2.205   2.523  13.003 -0.0956  0.3895 -0.7086
14111TIP3    H163748   2.111   2.518  13.017  0.1021  0.5625  0.7225
14111TIP3    H263749   2.226   2.446  12.950 -1.0503  0.4282 -1.1481
14112TIP3   OH263750   0.659   3.745  14.170  0.5219  0.5045  0.7244
14112TIP3    H163751   0.675   3.660  14.128 -2.3518 -0.1239  0.8254
14112TIP3    H263752   0.730   3.754  14.233  0.3264 -2.3010  1.4119
14113TIP3   OH263753   3.300   0.316  12.949  0.4131  1.2298 -0.3109
14113TIP3    H163754   3.306   0.409  12.970 -3.6899  1.2883  1.1084
14113TIP3    H263755   3.275   0.275  13.032 -0.5141 -0.7575 -1.5384
14114TIP3   OH263756   4.546   1.291   1.801 -0.0365  0.7060 -0.4682
14114TIP3    H163757   4.588   1.288   1.887  1.2162 -2.4874 -1.0846
14114TIP3    H263758   4.458   1.258   1.815 -0.9361  3.3056  0.1114
14115TIP3   OH263759   5.597   3.836  13.234 -0.1641  0.4726  0.4693
14115TIP3    H163760   5.691   3.853  13.238 -0.5365  3.1979 -0.8178
14115TIP3    H263761   5.574   3.802  13.320  1.8257  0.7250  1.1159
14116TIP3   OH263762   4.480   6.516  14.513  0.0272 -0.5032  0.1128
14116TIP3    H163763   4.388   6.540  14.518  0.5776  1.5212  0.9380
14116TIP3    H263764   4.516   6.539  14.598  1.8187  1.0471 -1.0043
14117TIP3   OH263765   3.242   3.005   4.315  0.1627  0.1295  0.0339
14117TIP3    H163766   3.208   2.933   4.367 -1.2516  1.2242  0.6431
14117TIP3    H263767   3.198   3.083   4.349  0.9389  1.1621 -1.2660
14118TIP3   OH263768   6.430   3.482  13.968  0.3112  0.5767 -0.1701
14118TIP3    H163769   6.446   3.518  13.881 -1.9930  3.0674  0.3476
14118TIP3    H263770   6.352   3.427  13.957 -0.3432  1.3726  0.4038
14119TIP3   OH263771   0.091   4.314  14.422  0.5135  0.1132  0.2257
14119TIP3    H163772   0.008   4.285  14.384  0.7782  0.2334 -0.4451
14119TIP3    H263773   0.155   4.302  14.352  1.0813 -0.0705  0.7742
14120TIP3   OH263774   3.208   1.873  14.991 -0.2208 -0.3245  0.4958
14120TIP3    H163775   3.218   1.968  14.994 -0.2745 -0.1999 -2.2254
14120TIP3    H263776   3.132   1.859  14.934  1.3691 -2.0559 -1.2617
14121TIP3   OH263777   5.139   6.224   0.128 -0.2980 -0.2077 -0.0747
14121TIP3    H163778   5.174   6.269   0.051 -0.0081 -1.3752 -0.6354
14121TIP3    H263779   5.211   6.224   0.191 -0.3548  0.2515 -0.0054
14122TIP3   OH263780   5.999   6.647   3.903  0.4733 -0.0339  0.1385
14122TIP3    H163781   6.063   6.708   3.867  2.1454 -2.0681 -0.5091
14122TIP3    H263782   6.050   6.593   3.964 -0.4065 -2.2280 -0.9970
14123TIP3   OH263783   2.154   4.728   0.842  0.0248 -0.4970  0.4988
14123TIP3    H163784   2.079   4.669   0.853  0.6958 -1.1695  1.4281
14123TIP3    H263785   2.211   4.710   0.916  2.1119 -1.4621 -1.2727
14124TIP3   OH263786   4.545   3.180  12.536  0.3358  0.3747  0.5721
14124TIP3    H163787   4.490   3.251  12.571  1.3834  1.2873  0.4260
14124TIP3    H263788   4.610   3.165  12.605 -1.1033 -1.8847  1.4776
14125TIP3   OH263789   0.651   2.462   2.411 -0.3252  0.3893  0.7735
14125TIP3    H163790   0.654   2.552   2.441  0.7800  0.1907  1.3001
14125TIP3    H263791   0.735   2.448   2.368 -0.7661 -0.1811  0.0844
14126TIP3   OH263792   4.517   1.319  14.718  0.6826  0.2015  0.6547
14126TIP3    H163793   4.510   1.413  14.698 -1.5083 -0.1306 -0.3108
14126TIP3    H263794   4.460   1.277  14.654  0.6222 -1.6843  1.9131
14127TIP3   OH263795   0.287   1.031  16.629 -0.5035 -0.1271  0.0719
14127TIP3    H163796   0.336   1.005  16.551 -0.3359 -2.7249  0.9693
14127TIP3    H263797   0.342   1.096  16.672 -0.1479  0.6016 -1.4600
14128TIP3   OH263798   1.525   0.887   4.847  0.5650 -0.5776  0.2342
14128TIP3    H163799   1.606   0.874   4.896  1.3125 -0.5258 -0.9551
14128TIP3    H263800   1.457   0.888   4.913  1.3183 -2.6084  1.0791
14129TIP3   OH263801   4.012   5.458   1.741 -0.6189  0.1961  0.2663
14129TIP3    H163802   4.094   5.409   1.742 -0.5912  0.2376  1.9910
14129TIP3    H263803   3.970   5.435   1.824 -2.0232  0.7233 -0.2874
14130TIP3   OH263804   3.364   6.494   4.910  0.0911 -0.0769  0.2254
14130TIP3    H163805   3.369   6.560   4.979 -0.0357 -1.0150  1.1394
14130TIP3    H263806   3.275   6.502   4.875  0.0482  0.1696  0.3854
14131TIP3   OH263807   6.672   3.265   3.443 -0.3086  0.0854 -0.8812
14131TIP3    H163808   6.591   3.316   3.434 -0.7953 -0.4572  0.3348
14131TIP3    H263809   6.716   3.303   3.519 -1.0707 -1.8051  0.5558
14132TIP3   OH263810   2.576   6.295  15.495  0.9898 -0.7518  0.2935
14132TIP3    H163811   2.668   6.295  15.520  0.7142  0.3533  1.3244
14132TIP3    H263812   2.530   6.336  15.569 -0.4135 -1.9095  0.0966
14133TIP3   OH263813   0.767   4.484   5.259 -0.3874 -0.7686 -0.2855
14133TIP3    H163814   0.800   4.475   5.348 -1.0456 -2.4295 -0.1903
14133TIP3    H263815   0.711   4.562   5.262  0.4714 -0.1772  0.4765
14134TIP3   OH263816   5.263   0.639   6.627  0.7202  0.3218  0.5826
14134TIP3    H163817   5.185   0.587   6.605 -0.7840  2.5904  0.2915
14134TIP3    H263818   5.307   0.590   6.696 -1.5655 -0.5084  1.4964
14135TIP3   OH263819   4.536   4.679  16.807 -0.2692 -0.4939  0.1578
14135TIP3    H163820   4.631   4.686  16.801 -0.0026 -3.7210  0.0076
14135TIP3    H263821   4.515   4.719  16.892  1.3565 -0.9355  0.7938
14136TIP3   OH263822   3.346   4.476  13.612 -0.5145  0.3802  0.2061
14136TIP3    H163823   3.287   4.536  13.568  0.3663 -0.0013 -1.5365
14136TIP3    H263824   3.352   4.400  13.554 -0.3927 -0.7132  1.6308
14137TIP3   OH263825   2.435   5.056   4.978 -0.0758  0.1526  0.4492
14137TIP3    H163826   2.348   5.082   4.948 -0.3918 -1.0788  0.3090
14137TIP3    H263827   2.492   5.071   4.902 -0.1923  0.7179  0.4656
14138TIP3   OH263828   4.553   2.995  16.840 -0.1250  0.1597 -0.2675
14138TIP3    H163829   4.472   3.010  16.791  0.3386  0.4741 -0.9480
14138TIP3    H263830   4.568   3.077  16.888  0.0856  0.2991 -0.5737
14139TIP3   OH263831   5.777   3.934   5.750  0.8375  0.1660  0.4167
14139TIP3    H163832   5.808   4.002   5.810 -0.7720  1.8185 -0.5256
14139TIP3    H263833   5.702   3.895   5.794  1.4493 -0.6669  0.7346
14140TIP3   OH263834   0.260   0.345  14.901  0.8086  0.3321  0.4199
14140TIP3    H163835   0.354   0.331  14.914  0.7109 -0.4057  0.3736
14140TIP3    H263836   0.243   0.310  14.814  0.0353 -1.8829  1.4189
14141TIP3   OH263837   0.341   0.247   6.202 -0.1549 -0.2301  0.1426
14141TIP3    H163838   0.281   0.257   6.275  0.2315 -0.9574  0.5737
14141TIP3    H263839   0.285   0.244   6.125 -0.3147  4.8413 -0.0549
14142TIP3   OH263840   4.955   1.355   2.502 -0.1866  0.8090  0.6387
14142TIP3    H163841   5.022   1.309   2.553  0.4727  0.1216 -0.8308
14142TIP3    H263842   4.877   1.352   2.558  0.7686  0.8821  2.0053
14143TIP3   OH263843   3.397   6.037  15.424  0.7351  0.0152  0.5364
14143TIP3    H163844   3.465   5.982  15.386  0.7860 -1.4215  2.6763
14143TIP3    H263845   3.328   5.977  15.449  0.8182  0.8666  2.9621
14144TIP3   OH263846   4.901   6.046   6.492 -0.6695 -0.3194 -0.0422
14144TIP3    H163847   4.816   6.022   6.457  0.5846 -2.3012 -1.8526
14144TIP3    H263848   4.916   5.984   6.563 -2.2917  2.3697  2.7645
14145TIP3   OH263849   3.623   4.176   2.046 -0.0812  0.1094  0.1603
14145TIP3    H163850   3.624   4.174   1.951 -0.6801  0.9467  0.1307
14145TIP3    H263851   3.585   4.262   2.068  0.8486  0.2751  1.1464
14146TIP3   OH263852   4.525   5.848  12.599 -0.2969  0.1774 -0.5897
14146TIP3    H163853   4.528   5.854  12.504  0.8337  1.0553 -0.5119
14146TIP3    H263854   4.517   5.939  12.628 -0.9279 -0.1101  0.1466
14147TIP3   OH263855   2.126   2.214  11.176  0.3965  0.5321  0.7929
14147TIP3    H163856   2.112   2.153  11.248 -0.2894  0.0671  0.2834
14147TIP3    H263857   2.221   2.214  11.162  0.4223 -0.2615  0.9365
14148TIP3   OH263858   1.157   3.905   5.438 -0.3321  0.2046 -0.8708
14148TIP3    H163859   1.247   3.893   5.408 -0.3179 -1.7109 -0.1746
14148TIP3    H263860   1.159   3.877   5.530 -1.8235 -0.8396 -1.1249
14149TIP3   OH263861   3.566   5.650   1.104  0.2591 -0.2482  0.1178
14149TIP3    H163862   3.591   5.656   1.196  0.6408  1.4971 -0.0728
14149TIP3    H263863   3.608   5.725   1.063 -0.2494 -0.7705 -1.4058
14150TIP3   OH263864   3.429   1.480  15.178  0.2176  0.6764 -0.6181
14150TIP3    H163865   3.486   1.509  15.107  0.5595  0.7624 -0.3097
14150TIP3    H263866   3.347   1.527  15.163  0.7892  1.8668 -0.0839
14151TIP3   OH263867   6.294   0.956   0.820  0.0007  0.0245  0.2958
14151TIP3    H163868   6.306   0.865   0.847 -0.6268 -0.9764 -2.5919
14151TIP3    H263869   6.360   0.969   0.751  1.0244  2.2103  1.6604
14152TIP3   OH263870   3.196   3.416  15.293 -0.2260 -0.5616  0.1979
14152TIP3    H163871   3.260   3.345  15.298  0.7498  0.2578 -0.7065
14152TIP3    H263872   3.239   3.485  15.244 -0.5966  1.2915  2.4001
14153TIP3   OH263873   1.331   2.763   5.193 -0.2703 -0.5409  0.1111
14153TIP3    H163874   1.346   2.730   5.104  1.5797 -1.1396  0.6234
14153TIP3    H263875   1.284   2.692   5.237 -1.6542 -0.0311 -0.5389
14154TIP3   OH263876   0.756   1.244  16.780  0.3795 -0.2804 -0.5339
14154TIP3    H163877   0.798   1.158  16.778  1.0419  0.0241  0.0916
14154TIP3    H263878   0.825   1.303  16.809 -0.8459  0.0142  1.9018
14155TIP3   OH263879   2.483   1.161  12.129 -0.2635 -0.4316  0.4752
14155TIP3    H163880   2.539   1.163  12.051 -0.7780  1.6061  0.1275
14155TIP3    H263881   2.517   1.088  12.181  2.8300  0.8476  0.3607
14156TIP3   OH263882   1.386   2.744  13.848 -0.0791  0.2183  0.3251
14156TIP3    H163883   1.344   2.675  13.797  0.5297  0.6094 -0.7321
14156TIP3    H263884   1.478   2.720  13.852  0.4304  1.7200 -1.3879
14157TIP3   OH263885   3.774   1.490   5.824  0.3456  0.1353 -0.0300
14157TIP3    H163886   3.818   1.570   5.794  0.6600  0.1416  0.4484
14157TIP3    H263887   3.766   1.436   5.745 -2.1746  1.7000 -0.9084
14158TIP3   OH263888   3.015   3.997  15.297  0.3763  0.5347 -0.2655
14158TIP3    H163889   3.027   3.903  15.282  0.9125  0.5112  0.2933
14158TIP3    H263890   3.099   4.037  15.272  0.0490  0.8995 -0.7886
14159TIP3   OH263891   2.025   3.698  12.426 -0.8104 -0.1566 -0.0011
14159TIP3    H163892   2.066   3.611  12.429 -1.7582 -0.6756 -1.6703
14159TIP3    H263893   2.089   3.756  12.468  0.4261 -1.4266 -0.1045
14160TIP3   OH263894   3.430   0.200   4.442 -0.2676 -0.0763 -0.1137
14160TIP3    H163895   3.359   0.263   4.428 -0.7757 -1.0433 -2.2916
14160TIP3    H263896   3.401   0.147   4.516 -0.3140  1.5580  1.0639
14161TIP3   OH263897   2.386   6.366   0.305 -0.1361 -0.3649 -0.0659
14161TIP3    H163898   2.476   6.333   0.305  0.6651  1.7014  1.7434
14161TIP3    H263899   2.346   6.327   0.382 -0.5668 -0.6343 -0.4214
14162TIP3   OH263900   5.209   5.110  11.785 -0.5110  0.1256  0.6415
14162TIP3    H163901   5.276   5.076  11.724 -1.0044 -0.3367  0.3488
14162TIP3    H263902   5.259   5.144  11.859  0.0873  0.5017  0.0676
14163TIP3   OH263903   3.300   6.402  16.396 -0.0578  0.2107 -0.3437
14163TIP3    H163904   3.346   6.351  16.463  1.8506  0.5176 -1.3925
14163TIP3    H263905   3.279   6.485  16.439 -0.5230 -0.3176  0.4581
14164TIP3   OH263906   2.559   0.997  15.288 -0.6097 -0.2424 -0.5688
14164TIP3    H163907   2.480   1.030  15.330 -1.4072  0.5302 -2.5921
14164TIP3    H263908   2.623   1.068  15.298 -1.6589  1.1345 -3.0096
14165TIP3   OH263909   3.513   4.477   3.128  0.3014  0.8708  0.0438
14165TIP3    H163910   3.571   4.550   3.104  0.9690  0.8582  1.5684
14165TIP3    H263911   3.430   4.496   3.084  0.9104  1.8177 -0.7036
14166TIP3   OH263912   1.713   6.240   1.281  0.1662 -0.3869  0.1148
14166TIP3    H163913   1.678   6.300   1.346  0.4929  0.6638 -0.6552
14166TIP3    H263914   1.690   6.280   1.197  0.8565 -1.0658 -0.4083
14167TIP3   OH263915   4.304   0.769  16.939 -0.2694 -0.1653 -0.2717
14167TIP3    H163916   4.355   0.797  16.863  0.1209 -0.5284 -0.1465
14167TIP3    H263917   4.345   0.813  17.013 -1.0721  0.7344 -0.3405
14168TIP3   OH263918   0.662   2.449  13.788 -0.5594 -0.0717 -0.1270
14168TIP3    H163919   0.615   2.500  13.722 -1.9441  0.3188  1.1470
14168TIP3    H263920   0.627   2.479  13.872  0.4981 -1.2469  0.7622
14169TIP3   OH263921   5.590   5.242  16.613 -0.0142 -0.7558  0.0373
14169TIP3    H163922   5.658   5.308  16.626 -2.6899  2.3162 -0.8085
14169TIP3    H263923   5.562   5.253  16.522 -3.2354 -0.2499  1.0023
14170TIP3   OH263924   1.080   1.170   2.512 -0.5686  0.0092  0.0045
14170TIP3    H163925   0.991   1.141   2.532 -0.3007  0.4351  1.9559
14170TIP3    H263926   1.080   1.186   2.418 -2.0041 -1.8554 -0.3346
14171TIP3   OH263927   2.547   4.715  17.074  0.3071  0.6523  0.0940
14171TIP3    H163928   2.558   4.680  17.162  2.0220 -0.9899 -0.7381
14171TIP3    H263929   2.570   4.807  17.081  0.7388  0.4601  1.2937
14172TIP3   OH263930   5.307   2.287  12.673 -0.0944 -0.0692 -0.1324
14172TIP3    H163931   5.374   2.343  12.710  1.1205 -2.4493  1.4292
14172TIP3    H263932   5.348   2.251  12.594 -0.5184  0.5008 -0.6142
14173TIP3   OH263933   4.617   1.772   4.429  0.2669  0.5352 -0.2989
14173TIP3    H163934   4.677   1.792   4.357 -0.4764  2.6229 -0.3795
14173TIP3    H263935   4.548   1.719   4.389  1.0331 -0.2369 -0.6209
14174TIP3   OH263936   6.357   5.603  14.851  0.1747  0.6165  0.2624
14174TIP3    H163937   6.306   5.677  14.818  0.0182 -0.4571 -2.0171
14174TIP3    H263938   6.422   5.643  14.910 -2.5240  2.1006  2.3341
14175TIP3   OH263939   6.694   0.941  14.130 -0.8565  0.2365 -0.0256
14175TIP3    H163940   6.694   1.027  14.174  0.1093  0.2074  0.0426
14175TIP3    H263941   6.715   0.961  14.039 -2.1263  0.2195 -0.3336
14176TIP3   OH263942   4.933   1.768   1.448  0.0610  0.2933 -0.5626
14176TIP3    H163943   4.946   1.746   1.356  2.0025  2.6119 -0.8917
14176TIP3    H263944   4.888   1.853   1.447  0.5197  0.5661  0.6135
14177TIP3   OH263945   2.656   2.110  14.436 -0.6146  0.1151  0.2325
14177TIP3    H163946   2.743   2.116  14.398 -0.5319 -2.0090  0.0233
14177TIP3    H263947   2.648   2.189  14.491  0.9107  0.9855 -0.7649
14178TIP3   OH263948   0.256   0.372  16.872 -0.0707  0.1730 -0.5794
14178TIP3    H163949   0.257   0.312  16.798  1.4019 -1.4950  0.7453
14178TIP3    H263950   0.320   0.440  16.851  0.9328 -0.7426 -0.4801
14179TIP3   OH263951   5.241   2.937  10.738 -0.0732  0.3921  0.4979
14179TIP3    H163952   5.168   2.934  10.800 -1.0975  1.4599 -0.6414
14179TIP3    H263953   5.223   3.012  10.682  0.7696 -0.6127 -1.1762
14180TIP3   OH263954   5.413   1.223   0.975  0.5954  0.1710 -0.5218
14180TIP3    H163955   5.506   1.224   0.996  0.5534  0.3727 -0.3403
14180TIP3    H263956   5.376   1.295   1.027  0.5375  0.8552 -1.5083
14181TIP3   OH263957   0.522   1.653   5.104 -0.5378  0.0790 -0.1808
14181TIP3    H163958   0.534   1.745   5.129 -0.9966 -0.1656  0.9617
14181TIP3    H263959   0.611   1.621   5.088 -0.3046  0.4710  0.3326
14182TIP3   OH263960   0.127   1.177   4.541  0.0304  0.1832  0.1341
14182TIP3    H163961   0.114   1.082   4.531  4.1688 -0.7007  2.0437
14182TIP3    H263962   0.171   1.203   4.460 -0.7531  0.4364 -0.2181
14183TIP3   OH263963   2.852   3.456   4.882 -0.5536 -0.0962  0.4649
14183TIP3    H163964   2.859   3.371   4.925 -0.0508  0.6592  1.8917
14183TIP3    H263965   2.939   3.473   4.846 -0.2340  0.4827  1.4815
14184TIP3   OH263966   5.322   4.525   0.823 -0.3698 -0.5515  0.6317
14184TIP3    H163967   5.287   4.598   0.873  0.4882 -0.2228  0.7696
14184TIP3    H263968   5.314   4.554   0.731  1.4704  0.4361  0.7469
14185TIP3   OH263969   6.636   0.523   4.044 -0.1107  0.1847  0.0248
14185TIP3    H163970   6.629   0.608   4.001 -0.0201 -0.1209 -0.6018
14185TIP3    H263971   6.715   0.484   4.006  0.5401  0.3177  1.1993
14186TIP3   OH263972   1.074   0.822   2.881 -0.3406  0.5488 -0.0422
14186TIP3    H163973   0.987   0.836   2.843 -0.2250 -3.1941 -1.9004
14186TIP3    H263974   1.059   0.755   2.948  0.7653  1.6267  1.3110
14187TIP3   OH263975   4.904   4.826  14.189  0.1772  0.3981  0.3591
14187TIP3    H163976   4.982   4.795  14.143  1.6535  0.9410  2.4548
14187TIP3    H263977   4.901   4.920  14.170 -1.3114 -0.0176 -1.6271
14188TIP3   OH263978   6.234   6.695   3.324  0.7055  0.0831  0.4227
14188TIP3    H163979   6.263   6.748   3.250 -1.0262  0.2196 -0.1794
14188TIP3    H263980   6.142   6.675   3.305  1.2146 -2.8517  0.8069
14189TIP3   OH263981   1.495   3.629  12.776  0.3114 -0.6517  0.2965
14189TIP3    H163982   1.403   3.657  12.776  1.0517  1.9463  1.7937
14189TIP3    H263983   1.530   3.660  12.860  2.2791 -2.6470  0.2717
14190TIP3   OH263984   6.212   4.420   2.969  1.3351  0.1359  0.0069
14190TIP3    H163985   6.241   4.510   2.980  0.0324  0.5707 -0.0458
14190TIP3    H263986   6.200   4.387   3.058  1.9110 -0.0316  0.0284
14191TIP3   OH263987   5.941   0.124   3.011  0.3676  0.1377 -0.1211
14191TIP3    H163988   5.917   0.209   3.049  0.6567  1.1126 -2.0629
14191TIP3    H263989   5.859   0.074   3.007  0.0611  0.6057  0.3408
14192TIP3   OH263990   5.304   0.330  13.015 -0.0738  0.3688  0.1908
14192TIP3    H163991   5.287   0.237  13.002  0.1019  0.4093 -0.3486
14192TIP3    H263992   5.323   0.339  13.109  0.0497 -0.1605  0.2157
14193TIP3   OH263993   0.462   3.155   4.598  0.5091  0.1064  0.1259
14193TIP3    H163994   0.424   3.241   4.583  0.0106 -0.1453 -0.0832
14193TIP3    H263995   0.398   3.094   4.561  1.3206 -0.3046 -0.6358
14194TIP3   OH263996   4.766   3.424   2.574 -0.4380  0.2656  0.1064
14194TIP3    H163997   4.809   3.339   2.568 -0.1860  0.2691  1.8182
14194TIP3    H263998   4.836   3.485   2.597 -1.0610  0.5275  1.3277
14195TIP3   OH263999   0.730   3.418   0.580  0.3846  0.4958 -0.2740
14195TIP3    H164000   0.716   3.329   0.548  0.0677 -0.1035  1.4510
14195TIP3    H264001   0.761   3.467   0.504 -0.4432 -0.8371 -1.4932
14196TIP3   OH264002   2.490   2.015   4.966  0.1262  0.0783  0.4200
14196TIP3    H164003   2.493   2.068   5.046 -1.0180 -0.2550  0.6913
14196TIP3    H264004   2.494   1.924   4.998  2.9861 -0.0001 -0.0855
14197TIP3   OH264005   3.926   4.070   2.595  0.3730  0.2777 -0.4641
14197TIP3    H164006   3.936   4.019   2.515  0.0831  0.3848 -0.5680
14197TIP3    H264007   3.831   4.076   2.608  0.4107  0.7266 -0.4065
14198TIP3   OH264008   1.680   4.246   3.027 -0.1377 -0.0675  0.3929
14198TIP3    H164009   1.626   4.196   2.966 -1.4899  0.7609  0.8892
14198TIP3    H264010   1.770   4.219   3.007 -0.7584 -1.7889 -0.1315
14199TIP3   OH264011   0.062   3.778  10.783 -0.9674 -0.0393 -0.1850
14199TIP3    H164012   0.068   3.691  10.744 -0.8142 -0.1806  0.1600
14199TIP3    H264013   0.151   3.812  10.780 -0.4274 -1.1306  2.5631
14200TIP3   OH264014   0.256   2.068   1.627  0.0558  0.3626  0.3056
14200TIP3    H164015   0.179   2.123   1.614  0.7670  1.5531  1.0820
14200TIP3    H264016   0.269   2.024   1.543  0.5995  2.8105 -0.9293
14201TIP3   OH264017   3.199   5.212  17.069  0.2017  0.3239 -0.7760
14201TIP3    H164018   3.262   5.141  17.079  2.2254  2.0301 -1.2559
14201TIP3    H264019   3.215   5.269  17.144 -1.5078  0.2517 -0.3171
14202TIP3   OH264020   1.405   0.724  15.894 -0.0829  0.0613 -0.2220
14202TIP3    H164021   1.469   0.722  15.823  0.3991  0.0793  0.2079
14202TIP3    H264022   1.323   0.696  15.854  0.5214 -1.4447 -0.4463
14203TIP3   OH264023   0.428   1.850  14.425  0.2133 -0.0235 -0.1903
14203TIP3    H164024   0.398   1.901  14.351  0.0126 -0.7567 -0.6200
14203TIP3    H264025   0.406   1.759  14.403 -3.3734  0.0996  2.4581
14204TIP3   OH264026   3.753   1.301   5.625 -0.1157  0.8604  0.7096
14204TIP3    H164027   3.766   1.353   5.546  0.0861  0.1171  0.2439
14204TIP3    H264028   3.663   1.269   5.618 -0.4705  1.6899  1.3312
14205TIP3   OH264029   5.381   3.232   1.846  0.1712  0.2463 -0.3716
14205TIP3    H164030   5.317   3.304   1.844  0.0758  0.3265  2.3560
14205TIP3    H264031   5.458   3.271   1.889  0.2714 -1.1333  0.7328
14206TIP3   OH264032   2.687   0.068   0.853 -0.4102  0.5727  0.2332
14206TIP3    H164033   2.695   0.154   0.812 -2.9758  0.5666 -0.3561
14206TIP3    H264034   2.706   0.006   0.782 -2.2312  0.6076 -0.3002
14207TIP3   OH264035   0.271   1.822  16.684  0.3290  0.5225 -0.0614
14207TIP3    H164036   0.355   1.779  16.696  0.0567  0.2530  0.9797
14207TIP3    H264037   0.254   1.818  16.590  0.7193 -0.8758 -0.0783
14208TIP3   OH264038   0.910   2.846  12.115  0.2056 -0.1611 -0.0526
14208TIP3    H164039   0.912   2.753  12.135  1.2259  0.2598  1.8917
14208TIP3    H264040   0.817   2.869  12.115 -0.1368 -1.4189 -1.8398
14209TIP3   OH264041   6.539   0.748  15.757 -0.2185  0.1958  0.0530
14209TIP3    H164042   6.609   0.736  15.822  0.3274  1.0096 -0.3760
14209TIP3    H264043   6.575   0.812  15.696 -1.5411  0.9800  0.0923
14210TIP3   OH264044   2.680   0.147   1.659  0.3482  0.0055  0.5342
14210TIP3    H164045   2.585   0.155   1.663  0.2341  0.6546 -2.3141
14210TIP3    H264046   2.697   0.053   1.655 -0.0967 -0.1508  2.1607
14211TIP3   OH264047   6.115   5.475  17.059  0.2905 -0.0857 -0.4591
14211TIP3    H164048   6.203   5.438  17.063 -0.4600 -1.7690  0.8141
14211TIP3    H264049   6.059   5.403  17.031 -0.5136  1.3168 -2.5490
14212TIP3   OH264050   0.532   5.613   4.536 -0.1306 -0.6021  0.1903
14212TIP3    H164051   0.542   5.557   4.459 -0.7359 -0.6979  0.1822
14212TIP3    H264052   0.445   5.650   4.528 -0.4995 -1.2069  1.2173
14213TIP3   OH264053   4.305   5.402   1.814  0.0593  0.2347 -0.0585
14213TIP3    H164054   4.276   5.310   1.812 -1.1133  0.5460  1.7317
14213TIP3    H264055   4.400   5.397   1.808  0.0149 -1.1171  0.1938
14214TIP3   OH264056   4.635   6.045  12.295  0.6457  0.3950 -0.5087
14214TIP3    H164057   4.589   6.111  12.243 -1.7296 -0.6920  0.1440
14214TIP3    H264058   4.624   6.075  12.385 -1.7287 -1.5941 -0.0779
14215TIP3   OH264059   1.921   4.176   0.111 -0.8997  0.3471  0.2627
14215TIP3    H164060   1.842   4.144   0.154 -0.3722 -2.1754 -0.5739
14215TIP3    H264061   1.957   4.100   0.067  1.6119  1.6320 -0.0025
14216TIP3   OH264062   6.542   3.929  13.038 -0.1142  0.3082  0.0986
14216TIP3    H164063   6.584   3.849  13.070  0.1473  1.3914  2.6236
14216TIP3    H264064   6.448   3.911  13.046 -0.0888 -0.3992 -1.0879
14217TIP3   OH264065   1.548   6.225  12.444 -0.4162 -0.0811 -0.0432
14217TIP3    H164066   1.469   6.238  12.391  1.2628  0.1048 -2.5723
14217TIP3    H264067   1.581   6.314  12.458 -1.2508 -0.0771  1.9606
14218TIP3   OH264068   0.449   2.219   0.679 -0.5032  0.1716 -0.2037
14218TIP3    H164069   0.457   2.310   0.706  0.2613  0.2810 -0.8279
14218TIP3    H264070   0.462   2.169   0.760 -2.2786  0.6433  0.4124
14219TIP3   OH264071   4.209   6.742  15.067 -0.0798  0.2334 -0.7050
14219TIP3    H164072   4.162   6.665  15.099 -0.8739  1.1182  0.2828
14219TIP3    H264073   4.151   6.815  15.086  0.8753  1.1313 -1.2089
14220TIP3   OH264074   3.582   4.672   1.620  0.5839 -0.3501  0.3991
14220TIP3    H164075   3.550   4.663   1.530  0.3656 -0.8768  0.5301
14220TIP3    H264076   3.578   4.766   1.638  2.1158 -0.0583 -0.6897
14221TIP3   OH264077   5.237   0.330  10.998  0.6997  0.0699 -0.3751
14221TIP3    H164078   5.277   0.381  10.927  3.3483  0.2101  1.1394
14221TIP3    H264079   5.173   0.390  11.037  0.4928  0.6129 -1.5200
14222TIP3   OH264080   3.575   1.810  13.436 -0.2063 -1.1618  0.7457
14222TIP3    H164081   3.540   1.727  13.403 -0.0105 -0.5159 -1.1905
14222TIP3    H264082   3.638   1.785  13.503  1.6123 -2.7406 -1.4849
14223TIP3   OH264083   0.175   3.726  16.102 -0.1201  0.0022  0.0779
14223TIP3    H164084   0.103   3.743  16.162 -1.0798  0.6051 -1.2313
14223TIP3    H264085   0.236   3.671  16.152 -1.4258 -0.4137  1.2277
14224TIP3   OH264086   1.596   6.380   5.565 -0.3084  0.7444 -0.1313
14224TIP3    H164087   1.648   6.399   5.643 -1.7319  1.1868  0.7260
14224TIP3    H264088   1.584   6.465   5.523  0.1643  0.5553 -0.6634
14225TIP3   OH264089   6.194   3.362  15.763  0.1954 -0.1993  0.5235
14225TIP3    H164090   6.189   3.456  15.747  0.4397 -0.0305  1.4431
14225TIP3    H264091   6.152   3.322  15.687  1.0572  0.6141 -0.3880
14226TIP3   OH264092   6.295   2.716  15.077  0.2725 -0.3619  0.0551
14226TIP3    H164093   6.271   2.641  15.024  1.1084 -0.3474 -0.3391
14226TIP3    H264094   6.345   2.773  15.018 -0.4110  0.5341  0.3299
14227TIP3   OH264095   1.475   2.696  15.086  0.6995 -0.3800  0.1240
14227TIP3    H164096   1.568   2.717  15.086  0.4190  0.9640  1.0126
14227TIP3    H264097   1.454   2.679  14.994  1.6532  0.0840 -0.1923
14228TIP3   OH264098   4.009   5.872  10.492 -0.1442  0.5388  0.3704
14228TIP3    H164099   3.945   5.942  10.476  1.2090  1.8325  0.4683
14228TIP3    H264100   4.079   5.916  10.540  1.3779 -0.5781 -0.8157
14229TIP3   OH264101   4.473   6.021  16.491 -0.9460  0.1728  0.0643
14229TIP3    H164102   4.453   6.063  16.575 -0.1893  0.4450  0.1155
14229TIP3    H264103   4.432   6.078  16.426 -0.2347  0.8067  0.1600
14230TIP3   OH264104   4.523   0.422   6.111 -0.0495  0.1087 -0.5003
14230TIP3    H164105   4.435   0.405   6.076 -0.1417  0.0515 -0.2398
14230TIP3    H264106   4.512   0.501   6.164  0.1264  0.2907 -0.7340
14231TIP3   OH264107   0.601   0.578   2.045  0.5589  0.2672 -0.3672
14231TIP3    H164108   0.545   0.647   2.010  0.1429  0.9098  1.5018
14231TIP3    H264109   0.690   0.613   2.035  0.2931  1.5906  1.5875
14232TIP3   OH264110   6.572   5.902   1.267  0.1177 -0.0409 -0.2327
14232TIP3    H164111   6.658   5.903   1.307  0.2421  1.5076 -0.4869
14232TIP3    H264112   6.514   5.939   1.334  0.2678  2.2268 -1.2980
14233TIP3   OH264113   2.524   4.911   1.630  0.7115 -0.4364 -0.5008
14233TIP3    H164114   2.546   4.889   1.720 -1.8933  1.8110  0.7291
14233TIP3    H264115   2.429   4.919   1.629  0.8470  1.5938 -2.9574
14234TIP3   OH264116   0.552   3.774   3.901 -0.9340 -0.4318 -0.7416
14234TIP3    H164117   0.516   3.720   3.830 -1.1404  0.4488 -1.3202
14234TIP3    H264118   0.638   3.801   3.869 -1.6328  1.1915 -1.3182
14235TIP3   OH264119   0.778   0.987  14.765  0.1160 -0.1749  0.1405
14235TIP3    H164120   0.869   0.997  14.792  0.8547  1.4197 -2.6617
14235TIP3    H264121   0.731   1.057  14.809  0.7198  0.4944 -0.2715
14236TIP3   OH264122   5.127   3.965  13.731  0.2918 -0.3838 -0.0973
14236TIP3    H164123   5.084   3.895  13.684  0.4292 -0.5916  0.0860
14236TIP3    H264124   5.124   4.040  13.671 -2.0115  0.1639  0.6387
14237TIP3   OH264125   4.950   4.554   3.978  0.2656 -0.6054  0.3280
14237TIP3    H164126   5.027   4.504   4.006 -0.1594 -0.5865  1.5576
14237TIP3    H264127   4.876   4.502   4.008 -0.1869  0.9031  1.8760
14238TIP3   OH264128   4.743   5.748  16.530  0.6569  0.9457  0.2227
14238TIP3    H164129   4.735   5.834  16.487 -0.1860  0.1538 -1.2200
14238TIP3    H264130   4.657   5.709  16.522  0.5040  0.7297  2.6011
14239TIP3   OH264131   0.812   2.915   4.012  0.1465 -0.1711 -0.0584
14239TIP3    H164132   0.810   2.992   3.955  0.8029  0.6985  1.0728
14239TIP3    H264133   0.754   2.938   4.085  1.4740 -0.1534  1.0156
14240TIP3   OH264134   2.964   2.962  13.695  0.1968 -0.6699 -0.4180
14240TIP3    H164135   2.938   3.041  13.649 -1.1338 -0.6110  0.4013
14240TIP3    H264136   2.883   2.911  13.703  0.7943 -1.5491  0.1366
14241TIP3   OH264137   5.006   5.157   2.653 -1.0987 -0.0372 -0.3473
14241TIP3    H164138   4.962   5.198   2.578 -2.2348 -0.0638  0.3003
14241TIP3    H264139   4.935   5.136   2.714 -0.5652 -2.9700 -0.6527
14242TIP3   OH264140   0.235   4.671   2.906 -0.2031  0.0562  0.0911
14242TIP3    H164141   0.150   4.658   2.863 -0.3192  0.2010  0.2781
14242TIP3    H264142   0.243   4.765   2.916 -0.6170 -0.0287  1.2764
14243TIP3   OH264143   3.499   1.778   4.506 -0.1878 -0.0919 -0.4270
14243TIP3    H164144   3.521   1.867   4.478 -2.8655  0.4880 -0.7978
14243TIP3    H264145   3.485   1.786   4.601 -1.2465  0.0414 -0.5984
14244TIP3   OH264146   3.645   3.247  10.468 -0.2553 -0.3109 -0.0283
14244TIP3    H164147   3.659   3.210  10.381  0.0078  0.2399 -0.2272
14244TIP3    H264148   3.626   3.172  10.524  0.3500 -0.7468 -0.4043
14245TIP3   OH264149   3.258   0.422   5.500 -0.5358  0.3445  0.3242
14245TIP3    H164150   3.303   0.382   5.574 -2.0887 -1.4521  0.3339
14245TIP3    H264151   3.249   0.514   5.524  2.9227  0.7129  0.4000
14246TIP3   OH264152   5.399   3.837   4.450 -0.2207 -0.2064 -0.8809
14246TIP3    H164153   5.330   3.896   4.480 -0.7293 -1.3235  0.2072
14246TIP3    H264154   5.432   3.796   4.531  0.7379 -0.7252 -1.5275
14247TIP3   OH264155   2.178   6.038   0.025 -0.3627  0.3354  0.3377
14247TIP3    H164156   2.131   6.005   0.102  0.7666  1.3159  1.4767
14247TIP3    H264157   2.174   6.133   0.033  0.2008  0.4396 -0.5396
14248TIP3   OH264158   2.803   4.911  16.924  0.5342 -0.7578  0.3055
14248TIP3    H164159   2.793   4.891  17.017  0.6279 -0.2591  0.4243
14248TIP3    H264160   2.889   4.953  16.917  0.3745 -0.4673  0.0506
14249TIP3   OH264161   0.263   0.278  16.601  0.3456 -0.0797 -0.3159
14249TIP3    H164162   0.230   0.191  16.581 -0.1254  0.1790 -0.6775
14249TIP3    H264163   0.195   0.338  16.568 -0.5144  0.3549  2.1928
14250TIP3   OH264164   1.674   2.406   2.294  0.2392  0.0238  0.2591
14250TIP3    H164165   1.655   2.315   2.315  0.4327 -0.2584 -0.7777
14250TIP3    H264166   1.660   2.453   2.377  2.0083 -1.2112  1.2990
14251TIP3   OH264167   1.383   2.512   4.928 -0.2116  0.8779  0.7251
14251TIP3    H164168   1.371   2.605   4.910  1.6452  0.9854 -0.0246
14251TIP3    H264169   1.473   2.493   4.901 -1.0068 -1.4432 -0.4850
14252TIP3   OH264170   1.464   5.058   0.882 -0.0845  0.5183 -0.2375
14252TIP3    H164171   1.371   5.051   0.859  0.2099  0.0177 -1.2899
14252TIP3    H264172   1.497   4.969   0.874  0.9073  0.9983 -1.7067
14253TIP3   OH264173   6.139   0.653  12.545  0.0008  0.3785 -0.1221
14253TIP3    H164174   6.177   0.606  12.620  1.9495  0.9795 -0.7097
14253TIP3    H264175   6.202   0.639  12.474 -0.5094  2.0226 -0.9096
14254TIP3   OH264176   2.507   6.398  14.585  0.4332 -0.1475 -0.2734
14254TIP3    H164177   2.435   6.419  14.644  1.6201  0.6394  0.9202
14254TIP3    H264178   2.564   6.341  14.636  1.9302  1.2680 -0.3300
14255TIP3   OH264179   6.380   0.926   5.469  0.2785  0.2972 -0.2405
14255TIP3    H164180   6.388   0.834   5.442 -1.0790  0.3038 -0.7043
14255TIP3    H264181   6.362   0.973   5.388 -0.5485  0.7746  0.2229
14256TIP3   OH264182   5.227   5.091   2.027  0.4670 -0.5163  0.7288
14256TIP3    H164183   5.163   5.161   2.018 -0.1980 -1.1193  0.7097
14256TIP3    H264184   5.311   5.133   2.011 -0.0820 -0.1353 -1.3453
14257TIP3   OH264185   6.382   1.941   4.474 -0.0091 -0.2124 -0.1489
14257TIP3    H164186   6.451   1.945   4.540  0.2404  0.4679 -0.4499
14257TIP3    H264187   6.424   1.967   4.393 -1.2866  3.1883  0.2066
14258TIP3   OH264188   2.321   1.088   1.683 -0.4196 -0.3882  0.0142
14258TIP3    H164189   2.316   1.154   1.752  0.7742  1.8234 -1.9527
14258TIP3    H264190   2.230   1.076   1.655 -0.5904  0.8517  0.0002
14259TIP3   OH264191   0.069   3.043  13.268 -0.1122  0.2186  0.8937
14259TIP3    H164192  -0.012   3.081  13.236  0.5256  0.4005 -0.5696
14259TIP3    H264193   0.049   2.949  13.278 -0.2902  0.1331 -0.1961
14260TIP3   OH264194   1.174   6.206  16.647  0.1369  0.5231 -0.1789
14260TIP3    H164195   1.268   6.204  16.668  0.4319 -1.0500 -1.5433
14260TIP3    H264196   1.138   6.129  16.692 -0.0380 -0.3000 -1.7183
14261TIP3   OH264197   4.878   4.618  16.673  0.3379  0.0535  0.2138
14261TIP3    H164198   4.965   4.597  16.638 -0.2801  0.8801 -1.8740
14261TIP3    H264199   4.887   4.708  16.706  0.4672 -0.1241  0.6684
14262TIP3   OH264200   3.687   4.784   0.636 -0.4068 -0.9623 -0.2890
14262TIP3    H164201   3.630   4.792   0.559  1.5176  2.4421 -1.5005
14262TIP3    H264202   3.769   4.749   0.602  0.0760 -0.5085  0.3866
14263TIP3   OH264203   1.259   6.613  16.353  0.3156  0.3118  0.0592
14263TIP3    H164204   1.335   6.658  16.389  0.0631 -0.0884  1.0997
14263TIP3    H264205   1.289   6.576  16.270  1.5267 -0.6931  0.9445
14264TIP3   OH264206   2.888   1.886   6.239  0.3076  0.1375  0.3921
14264TIP3    H164207   2.975   1.923   6.222 -0.0587  0.4739 -0.7920
14264TIP3    H264208   2.856   1.933   6.316  0.9056  0.4691  0.4384
14265TIP3   OH264209   3.349   5.858   5.701  0.5963 -0.2381 -0.1806
14265TIP3    H164210   3.418   5.876   5.765  0.5420  0.1029 -0.2173
14265TIP3    H264211   3.275   5.912   5.729  0.4157 -0.4372 -0.2678
14266TIP3   OH264212   4.687   2.119   5.646 -0.5682 -0.0955 -0.0952
14266TIP3    H164213   4.718   2.154   5.729 -0.8635 -0.5943  0.2269
14266TIP3    H264214   4.594   2.102   5.660 -0.7403  0.3319 -0.6993
14267TIP3   OH264215   6.683   1.167  17.202  0.5042 -0.3411 -0.2342
14267TIP3    H164216   6.622   1.157  17.129  0.0249 -0.1736  0.1397
14267TIP3    H264217   6.723   1.253  17.187 -0.8191  0.4394  0.6050
14268TIP3   OH264218   6.778   0.971   4.404 -0.0033 -0.1992  0.5737
14268TIP3    H164219   6.735   1.028   4.341 -0.1614  1.3162  2.0205
14268TIP3    H264220   6.706   0.932   4.454  0.0664 -2.2542 -0.8720
14269TIP3   OH264221   3.193   0.438   4.019 -0.8578 -0.2407  0.0670
14269TIP3    H164222   3.194   0.507   4.086 -0.3172 -0.4016  0.2304
14269TIP3    H264223   3.285   0.421   4.001 -0.9973 -0.5111 -0.4011
14270TIP3   OH264224   6.588   4.583  14.355  0.4225  0.3006 -0.2510
14270TIP3    H164225   6.625   4.611  14.439 -1.9999  0.2291  0.8617
14270TIP3    H264226   6.572   4.489  14.366  0.3340  0.2325 -0.9003
14271TIP3   OH264227   1.114   0.200  15.575 -0.0932  0.4048  0.1830
14271TIP3    H164228   1.157   0.263  15.517  0.9251 -1.4100 -1.0857
14271TIP3    H264229   1.133   0.115  15.536 -1.6227 -0.6887  1.7536
14272TIP3   OH264230   0.277   1.069  10.461 -0.1663 -0.5257 -0.3652
14272TIP3    H164231   0.372   1.079  10.473 -0.3428  2.1397 -0.8486
14272TIP3    H264232   0.269   1.007  10.389  1.2506  0.1313 -1.1167
14273TIP3   OH264233   4.743   4.705   0.384  0.0329  0.0160 -0.1787
14273TIP3    H164234   4.711   4.790   0.413  1.3072  0.1303  0.9322
14273TIP3    H264235   4.695   4.642   0.437 -1.8628 -0.0397 -1.9064
14274TIP3   OH264236   0.583   3.524   3.327 -0.0562 -0.2541  0.1197
14274TIP3    H164237   0.539   3.459   3.382  2.2050 -1.6616  0.3205
14274TIP3    H264238   0.647   3.566   3.385 -1.4145  2.1197 -0.0368
14275TIP3   OH264239   6.108   0.120   2.735  0.1939 -0.0995  0.0828
14275TIP3    H164240   6.100   0.047   2.673  0.5684  0.6278 -0.8452
14275TIP3    H264241   6.036   0.107   2.797  0.6855 -1.6307  0.3394
14276TIP3   OH264242   2.610   0.608   2.399 -0.1533  0.6300  0.1412
14276TIP3    H164243   2.695   0.643   2.425  1.2972 -1.9431 -0.8502
14276TIP3    H264244   2.585   0.550   2.471 -0.2018  0.0586 -0.3273
14277TIP3   OH264245   0.227   0.018   2.563  0.5121 -0.5842  0.5609
14277TIP3    H164246   0.272  -0.058   2.526  0.0472 -0.4802 -0.2396
14277TIP3    H264247   0.296   0.068   2.607  1.0415 -0.8103 -0.0038
14278TIP3   OH264248   5.958   5.010  12.402 -0.5214 -0.0797 -0.5969
14278TIP3    H164249   5.981   4.981  12.314  1.8951  0.2757 -0.1154
14278TIP3    H264250   5.879   5.063  12.390 -1.0096 -1.1807 -2.3586
14279TIP3   OH264251   1.005   4.163  15.233  0.6835  0.1773 -0.6194
14279TIP3    H164252   1.050   4.232  15.185  0.3500 -0.0611 -1.2821
14279TIP3    H264253   0.961   4.208  15.305 -2.8227  1.2667 -3.3073
14280TIP3   OH264254   2.671   3.806  12.701 -0.1205  0.1481  0.1708
14280TIP3    H164255   2.598   3.760  12.659  1.0915  0.1917 -2.0699
14280TIP3    H264256   2.747   3.750  12.686  0.6809  1.0547  0.7473
14281TIP3   OH264257   6.763   0.469  12.493  0.0994  0.3104  0.4318
14281TIP3    H164258   6.810   0.507  12.418 -0.2557 -1.0749 -0.5235
14281TIP3    H264259   6.678   0.512  12.493  0.0111  0.1391 -0.1181
14282TIP3   OH264260   5.073   5.438  12.860  0.1788 -0.2958 -0.0817
14282TIP3    H164261   5.018   5.360  12.847  0.2120 -0.2301 -0.6267
14282TIP3    H264262   5.144   5.427  12.796  0.8416 -0.4206  0.6780
14283TIP3   OH264263   2.560   4.218  15.919  0.1083  0.4300 -0.3455
14283TIP3    H164264   2.514   4.136  15.901  0.7072 -0.5304  2.2195
14283TIP3    H264265   2.507   4.286  15.877 -2.2537 -0.9297  0.3772
14284TIP3   OH264266   0.072   2.628  15.179 -0.0536 -0.4393  0.5196
14284TIP3    H164267   0.124   2.702  15.151  0.8540 -0.7949  1.2497
14284TIP3    H264268   0.093   2.617  15.272  0.7073 -2.3187  0.1524
14285TIP3   OH264269   3.203   0.668  16.247 -0.1924  0.1775  0.1709
14285TIP3    H164270   3.227   0.604  16.179 -0.1968 -1.5023  1.7103
14285TIP3    H264271   3.115   0.696  16.224 -0.4339 -0.8531 -0.1849
14286TIP3   OH264272   4.457   5.174   7.054 -0.4755  0.4960  0.5396
14286TIP3    H164273   4.507   5.102   7.014  0.3339  0.4864  1.5305
14286TIP3    H264274   4.456   5.243   6.988  2.2135  1.0849  1.0389
14287TIP3   OH264275   1.588   1.448   4.495  0.1864 -0.2081  0.7527
14287TIP3    H164276   1.679   1.447   4.463 -0.6157 -1.7826 -1.5812
14287TIP3    H264277   1.561   1.540   4.487  1.4649  0.2157  1.1572
14288TIP3   OH264278   4.671   4.495  15.007  0.0099 -0.4900  0.1338
14288TIP3    H164279   4.612   4.555  15.054  1.9557  0.5452  1.3406
14288TIP3    H264280   4.681   4.535  14.920  1.9063  1.4272  1.1779
14289TIP3   OH264281   3.359   3.791   2.690  0.4268  0.5011 -0.6606
14289TIP3    H164282   3.311   3.722   2.736  0.8576  0.9458  0.4591
14289TIP3    H264283   3.397   3.845   2.759  2.4288  0.2370 -1.5082
14290TIP3   OH264284   0.030   0.368  11.081  0.2841  0.1325  0.0267
14290TIP3    H164285  -0.025   0.444  11.060 -0.0178  0.0749  0.5895
14290TIP3    H264286   0.029   0.315  11.001 -1.6402 -0.5617  0.4675
14291TIP3   OH264287   0.047   6.525  14.500  0.2225 -0.2079  0.1634
14291TIP3    H164288   0.038   6.438  14.539 -0.2277 -0.4622 -0.4882
14291TIP3    H264289  -0.043   6.554  14.486  0.3592 -0.5924 -1.6954
14292TIP3   OH264290   4.564   6.311   6.829  0.4418  0.1048 -0.7539
14292TIP3    H164291   4.507   6.285   6.901 -0.5416  0.1704 -1.4895
14292TIP3    H264292   4.652   6.312   6.866  0.0935 -1.0288  0.1376
14293TIP3   OH264293   5.556   3.007  11.382  0.8323 -0.0666  0.3140
14293TIP3    H164294   5.595   3.039  11.463  1.9026  0.1790 -0.3027
14293TIP3    H264295   5.472   2.970  11.410  1.0124  0.3763  1.4784
14294TIP3   OH264296   3.157   0.381  11.436 -0.1936 -0.4981  0.3739
14294TIP3    H164297   3.115   0.300  11.466  0.0818 -0.4294  0.9427
14294TIP3    H264298   3.240   0.352  11.398  0.6775 -0.3210  2.1054
14295TIP3   OH264299   4.687   1.488   1.697 -0.0210 -0.1904  0.1024
14295TIP3    H164300   4.718   1.444   1.618 -0.8651 -1.7977  0.6461
14295TIP3    H264301   4.634   1.423   1.741  1.7153  0.1496  2.8081
14296TIP3   OH264302   5.147   0.567   5.744  0.5086 -0.9592  0.3221
14296TIP3    H164303   5.187   0.524   5.668  0.6395  0.2033 -0.2685
14296TIP3    H264304   5.148   0.660   5.723  0.2888 -0.6469  1.6343
14297TIP3   OH264305   5.617   3.059   0.369  0.0165 -0.0685 -0.6153
14297TIP3    H164306   5.704   3.095   0.387 -0.2923  0.8818 -0.9706
14297TIP3    H264307   5.633   2.982   0.316  0.6171  0.5278 -1.3118
14298TIP3   OH264308   4.605   5.611  12.690 -0.2534 -0.3207  0.2982
14298TIP3    H164309   4.569   5.699  12.682 -0.1794 -0.2883  0.3255
14298TIP3    H264310   4.626   5.586  12.600  0.7864  0.1333  0.4153
14299TIP3   OH264311   1.347   2.562  13.650  0.1709  0.2413 -0.6750
14299TIP3    H164312   1.372   2.557  13.558 -1.4545  0.7918 -1.1565
14299TIP3    H264313   1.272   2.503  13.658 -0.1673  0.7644  0.1272
14300TIP3   OH264314   0.748   6.364   4.351 -0.1297 -0.4723 -0.2294
14300TIP3    H164315   0.676   6.302   4.338  1.2025 -2.1977  0.3812
14300TIP3    H264316   0.742   6.424   4.276 -1.8590 -0.9010 -0.4615
14301TIP3   OH264317   2.451   2.570   0.086  0.2669 -0.1370  0.2501
14301TIP3    H164318   2.376   2.514   0.107  3.0547 -4.4721 -0.6468
14301TIP3    H264319   2.488   2.593   0.171  0.9040 -2.3483  0.5931
14302TIP3   OH264320   3.188   5.283   2.143  0.2274 -0.3962  0.8800
14302TIP3    H164321   3.225   5.196   2.156  0.3959 -0.3249  0.8811
14302TIP3    H264322   3.202   5.327   2.227  1.1900  0.0177  0.5007
14303TIP3   OH264323   2.430   1.452   3.906  0.0461 -0.0524  1.1125
14303TIP3    H164324   2.336   1.436   3.911 -0.0578 -0.1977 -0.9925
14303TIP3    H264325   2.470   1.372   3.938 -0.5331 -0.0209  1.9323
14304TIP3   OH264326   6.190   4.266  12.136 -0.1453 -0.3463  0.1340
14304TIP3    H164327   6.129   4.194  12.125  0.7463 -0.8761 -1.4758
14304TIP3    H264328   6.268   4.225  12.175  0.5285 -0.3575 -1.1897
14305TIP3   OH264329   1.054   6.561  11.593 -0.0869  0.0350 -0.4460
14305TIP3    H164330   0.984   6.607  11.546  0.2881 -2.1327 -3.2749
14305TIP3    H264331   1.132   6.578  11.541  1.2285  1.1254  1.8262
14306TIP3   OH264332   4.021   4.390  15.679 -0.1205 -0.4298  0.5055
14306TIP3    H164333   4.090   4.373  15.615 -1.5337 -1.6589 -0.7151
14306TIP3    H264334   3.960   4.449  15.634 -0.3270 -0.0431  1.2740
14307TIP3   OH264335   0.504   4.144  16.960  0.3723 -0.4943  0.1867
14307TIP3    H164336   0.418   4.104  16.949 -0.2969  0.6609  1.0423
14307TIP3    H264337   0.507   4.213  16.894  1.5240 -1.9080 -1.2890
14308TIP3   OH264338   0.856   2.810   0.638  0.0271 -0.1022  1.2984
14308TIP3    H164339   0.845   2.875   0.708  0.8204 -0.0263  1.3588
14308TIP3    H264340   0.876   2.728   0.684  0.4580 -0.0725  1.1725
14309TIP3   OH264341   4.153   1.234   1.336 -0.1379  0.7603 -0.5486
14309TIP3    H164342   4.078   1.206   1.283  0.7327  1.8395 -2.4137
14309TIP3    H264343   4.224   1.178   1.306 -0.3707 -0.8971  1.8678
14310TIP3   OH264344   2.699   4.273   0.763 -0.0512  0.5007 -0.1764
14310TIP3    H164345   2.735   4.290   0.850  0.0940  1.4386 -0.4094
14310TIP3    H264346   2.671   4.359   0.732 -0.0178  0.1875 -1.0902
14311TIP3   OH264347   0.656   6.742   4.912 -0.2802 -0.4157  0.0156
14311TIP3    H164348   0.599   6.817   4.927  2.4181  1.4720  1.0908
14311TIP3    H264349   0.663   6.736   4.816  0.5344  1.5384 -0.0629
14312TIP3   OH264350   5.907   5.358   2.931  0.2471  0.0274  0.1171
14312TIP3    H164351   5.940   5.331   3.017  0.9128 -0.2795 -0.2283
14312TIP3    H264352   5.983   5.395   2.887  0.2553 -1.1412 -0.8782
14313TIP3   OH264353   3.346   1.360   3.519 -0.1276  0.2497  0.3812
14313TIP3    H164354   3.313   1.281   3.563  0.3642 -0.4188 -0.4324
14313TIP3    H264355   3.300   1.432   3.562 -0.2977 -0.4526  1.3983
14314TIP3   OH264356   6.477   3.099  11.335 -0.3433 -0.3463 -0.5534
14314TIP3    H164357   6.544   3.056  11.281  0.0467  0.3558 -0.6261
14314TIP3    H264358   6.405   3.116  11.274  0.3061  0.9193 -0.9702
14315TIP3   OH264359   1.680   5.644   3.735 -0.0433  0.1814 -0.3754
14315TIP3    H164360   1.694   5.719   3.793  0.3092 -1.7963  2.2217
14315TIP3    H264361   1.585   5.633   3.732 -0.0779  0.5123 -0.4312
14316TIP3   OH264362   0.707   0.858   1.067  1.2063 -0.3661 -0.1455
14316TIP3    H164363   0.710   0.928   1.133 -1.4197 -0.6319  0.3281
14316TIP3    H264364   0.760   0.891   0.994 -1.6164  3.0817 -0.7806
14317TIP3   OH264365   4.225   6.435   2.756 -0.2373 -0.1729 -0.3616
14317TIP3    H164366   4.146   6.387   2.782  0.5085 -0.9190  0.5269
14317TIP3    H264367   4.271   6.375   2.698  0.1781 -0.1275 -0.0772
14318TIP3   OH264368   3.678   3.269  14.435  0.2147  0.3419 -0.2201
14318TIP3    H164369   3.724   3.350  14.454  0.3218 -0.0333  1.1755
14318TIP3    H264370   3.649   3.237  14.521 -0.3520 -0.7778 -0.8149
14319TIP3   OH264371   2.816   5.492  14.944  0.5737 -0.1796  0.0455
14319TIP3    H164372   2.894   5.540  14.972 -0.1705 -0.1689  2.2122
14319TIP3    H264373   2.840   5.452  14.860  3.0667 -0.5718  0.9260
14320TIP3   OH264374   3.204   4.523  16.456 -0.5497  0.4052  0.1264
14320TIP3    H164375   3.203   4.619  16.445  1.3446  0.2395 -1.9059
14320TIP3    H264376   3.280   4.506  16.511 -0.7755  0.0438  0.3260
14321TIP3   OH264377   2.023   0.375  11.679  0.1033 -0.0295 -0.1610
14321TIP3    H164378   2.069   0.310  11.732  0.2412  0.0120 -0.2316
14321TIP3    H264379   1.951   0.326  11.639 -0.4370  0.0952  0.6489
14322TIP3   OH264380   1.331   3.256   4.779 -0.4663 -0.3613  0.1854
14322TIP3    H164381   1.359   3.291   4.695 -0.4587  1.5257  0.9312
14322TIP3    H264382   1.376   3.172   4.787  1.8927  0.7938 -0.4057
14323TIP3   OH264383   1.489   1.800   1.075  0.0395 -0.0415 -0.2835
14323TIP3    H164384   1.506   1.711   1.042  0.4657 -0.6900  1.5987
14323TIP3    H264385   1.411   1.828   1.028  0.8986 -0.7003 -2.1997
14324TIP3   OH264386   4.745   4.783   1.797  0.3487  0.5488  0.4473
14324TIP3    H164387   4.694   4.783   1.878  1.6373  2.6998  1.3199
14324TIP3    H264388   4.762   4.690   1.780 -3.9410 -0.2488 -0.0176
14325TIP3   OH264389   5.413   1.531   6.175  0.5533  0.3590  0.2523
14325TIP3    H164390   5.450   1.548   6.261 -0.6490 -0.5305  0.9543
14325TIP3    H264391   5.318   1.533   6.189  0.3543 -0.1491 -0.9719
14326TIP3   OH264392   1.714   5.703  16.370  0.4780  0.0357 -0.5888
14326TIP3    H164393   1.804   5.730  16.389  0.2151  1.8384 -1.7855
14326TIP3    H264394   1.681   5.770  16.310 -1.8024 -0.3983  0.1360
14327TIP3   OH264395   3.656   3.616   0.258  0.5179  0.8140 -0.4039
14327TIP3    H164396   3.569   3.655   0.258  0.5029  0.8875 -3.2513
14327TIP3    H264397   3.648   3.539   0.203  2.2358  0.7777 -0.6414
14328TIP3   OH264398   3.906   2.418  12.476 -0.7222  0.2133 -0.4162
14328TIP3    H164399   3.994   2.442  12.447 -0.2467 -0.4863  0.4463
14328TIP3    H264400   3.859   2.400  12.394  0.6036 -1.7101 -0.7910
14329TIP3   OH264401   5.119   4.557   3.504  0.1497 -0.6099  0.5718
14329TIP3    H164402   5.108   4.553   3.598  2.8286 -0.8406  0.9350
14329TIP3    H264403   5.162   4.641   3.487 -0.7404 -0.3543 -0.4823
14330TIP3   OH264404   4.436   0.454  14.528 -0.2233  0.3828 -0.8368
14330TIP3    H164405   4.404   0.435  14.440  1.8528  0.5455 -1.6326
14330TIP3    H264406   4.413   0.547  14.541  0.6624  0.7403 -1.7425
14331TIP3   OH264407   4.101   0.526  14.462 -0.5826  0.1395  0.4529
14331TIP3    H164408   4.096   0.453  14.524  3.0228 -1.0563 -0.5964
14331TIP3    H264409   4.070   0.490  14.379  1.7225 -0.4186 -0.2001
14332TIP3   OH264410   1.678   0.767  13.817 -0.6022  0.0326  0.3668
14332TIP3    H164411   1.686   0.810  13.732  1.0155  1.0424  1.0077
14332TIP3    H264412   1.740   0.694  13.813 -2.8119 -1.8676 -0.4515
14333TIP3   OH264413   2.464   5.937  11.463  0.2588 -0.1885 -0.1968
14333TIP3    H164414   2.434   5.933  11.372 -1.0045 -2.0069  0.2801
14333TIP3    H264415   2.546   5.887  11.462 -1.6085 -3.4050  0.3341
14334TIP3   OH264416   2.993   5.581  14.615 -0.3689 -0.3815  0.4406
14334TIP3    H164417   2.943   5.641  14.559 -2.0234 -3.4125 -1.4483
14334TIP3    H264418   2.933   5.509  14.632  2.3468 -2.6701  0.6527
14335TIP3   OH264419   6.462   1.643  17.231 -0.0824 -0.4168  0.1989
14335TIP3    H164420   6.384   1.599  17.196 -0.4365  0.8532 -0.6612
14335TIP3    H264421   6.501   1.579  17.290 -0.5466 -1.9135 -1.0693
14336TIP3   OH264422   0.633   4.134   2.038  0.2604  0.8460  0.3260
14336TIP3    H164423   0.675   4.048   2.043  2.3174  1.8434  1.0168
14336TIP3    H264424   0.546   4.122   2.076 -1.1614 -1.8950 -3.4969
14337TIP3   OH264425   2.008   0.057  16.827 -0.3836  0.1174 -0.2835
14337TIP3    H164426   1.993  -0.033  16.797 -0.7973  0.7962 -2.1625
14337TIP3    H264427   2.058   0.047  16.909 -2.3611 -1.8669  0.7294
14338TIP3   OH264428   6.149   2.714  11.611 -0.4958  0.3366 -0.0621
14338TIP3    H164429   6.220   2.726  11.674 -0.8524 -0.1368  0.4309
14338TIP3    H264430   6.166   2.629  11.572 -1.0939 -0.0226  0.4479
14339TIP3   OH264431   1.198   3.298  15.617  0.1813 -0.1210 -0.2360
14339TIP3    H164432   1.114   3.264  15.586  0.4390 -0.0205 -1.0397
14339TIP3    H264433   1.210   3.257  15.703 -0.1455 -1.0164 -0.6164
14340TIP3   OH264434   2.629   3.833   5.671  0.5293 -0.0565  0.4861
14340TIP3    H164435   2.691   3.886   5.623  0.9144  1.2707  2.3899
14340TIP3    H264436   2.545   3.878   5.662  0.4829 -0.1283  0.5451
14341TIP3   OH264437   3.420   6.144  17.172  0.2732 -0.0215  0.3839
14341TIP3    H164438   3.361   6.142  17.097  1.3518 -0.6892 -0.4629
14341TIP3    H264439   3.365   6.117  17.246 -0.7249  0.3567 -0.1989
14342TIP3   OH264440   5.082   0.097  12.710 -0.3342  0.2642 -0.0758
14342TIP3    H164441   5.056   0.008  12.734 -1.3603  0.5170 -0.2604
14342TIP3    H264442   5.001   0.146  12.706  0.4147  1.7788  2.3285
14343TIP3   OH264443   3.217   6.589  14.067  0.1524 -0.7117 -0.9554
14343TIP3    H164444   3.279   6.619  14.001 -0.4171  0.2831 -1.0476
14343TIP3    H264445   3.250   6.625  14.149 -0.5793  0.2808 -1.0785
14344TIP3   OH264446   4.290   4.577  10.785  0.1311 -0.0060 -0.1378
14344TIP3    H164447   4.360   4.620  10.736  0.2113 -1.8688 -1.7540
14344TIP3    H264448   4.335   4.517  10.844 -0.0489 -0.2213 -0.2174
14345TIP3   OH264449   3.491   2.567   2.487  0.4633  0.1570 -0.4351
14345TIP3    H164450   3.397   2.573   2.469  0.4413  0.1073 -0.3383
14345TIP3    H264451   3.530   2.548   2.402  0.2927 -0.7552 -0.3218
14346TIP3   OH264452   0.352   4.778  13.033 -0.1106 -0.1618  0.2946
14346TIP3    H164453   0.279   4.735  13.078 -0.5937 -0.2406 -0.5653
14346TIP3    H264454   0.364   4.729  12.953 -0.3980  1.0336 -0.4996
14347TIP3   OH264455   2.048   6.127  16.574 -0.1994 -0.4660 -0.4818
14347TIP3    H164456   2.097   6.069  16.632 -0.6308  0.3407  0.7097
14347TIP3    H264457   2.114   6.185  16.535 -0.1200  0.2144  0.6456
14348TIP3   OH264458   3.725   4.805   2.075 -0.3387  0.2455  0.6781
14348TIP3    H164459   3.778   4.739   2.030 -1.2219 -1.1524  1.6316
14348TIP3    H264460   3.685   4.757   2.148 -2.1166  1.5097  0.5619
14349TIP3   OH264461   1.361   4.258  13.249 -0.0212  0.5747  0.3029
14349TIP3    H164462   1.423   4.196  13.213 -1.7547 -0.6599 -0.6429
14349TIP3    H264463   1.336   4.222  13.334 -0.3477  0.4276  0.1474
14350TIP3   OH264464   2.245   0.251  13.844  0.4106 -0.1218 -0.0026
14350TIP3    H164465   2.180   0.313  13.877  0.2345 -0.5939  0.5219
14350TIP3    H264466   2.281   0.209  13.922  0.9438 -0.2713 -0.3233
14351TIP3   OH264467   0.576   4.890   3.857 -0.5066 -0.1749  0.4566
14351TIP3    H164468   0.562   4.975   3.898 -1.7469 -1.0194  1.8736
14351TIP3    H264469   0.671   4.878   3.857 -0.3899  0.6512  1.4517
14352TIP3   OH264470   1.466   4.813   0.324 -0.5323  1.0186 -0.8270
14352TIP3    H164471   1.389   4.763   0.351  0.3098 -0.5652 -1.3389
14352TIP3    H264472   1.434   4.903   0.317 -1.8177  0.7309  1.0617
14353TIP3   OH264473   1.545   4.043   2.863  0.3562  0.2952 -0.0517
14353TIP3    H164474   1.487   4.030   2.789  0.2510  0.9501 -0.0906
14353TIP3    H264475   1.572   3.955   2.889  0.0618  0.0438 -0.6005
14354TIP3   OH264476   2.222   2.299  12.565 -0.0283 -0.4418 -0.5281
14354TIP3    H164477   2.285   2.227  12.561  1.6489  0.7444  2.6797
14354TIP3    H264478   2.273   2.375  12.536  0.6248  0.8418  3.7354
14355TIP3   OH264479   3.215   0.402   4.771  0.2178  0.3099  0.1403
14355TIP3    H164480   3.309   0.388   4.781  0.7072  1.5016 -2.4098
14355TIP3    H264481   3.179   0.390   4.859  2.4676 -2.2208  0.7910
14356TIP3   OH264482   4.431   6.126   2.111  0.1787 -0.1147 -0.3517
14356TIP3    H164483   4.398   6.193   2.050  0.7763 -0.2970 -0.8874
14356TIP3    H264484   4.354   6.076   2.136 -0.1190  0.1370 -0.7490
14357TIP3   OH264485   1.139   3.357   0.643 -0.2059  0.4888 -0.4226
14357TIP3    H164486   1.222   3.330   0.683 -1.3243 -2.0942  0.2236
14357TIP3    H264487   1.103   3.421   0.705  0.6820  0.6744 -0.0781
14358TIP3   OH264488   5.397   1.756   5.970  0.4720  0.2999  0.0458
14358TIP3    H164489   5.326   1.709   6.013  0.2980 -0.1405 -0.7201
14358TIP3    H264490   5.375   1.848   5.981 -0.6377  0.1512 -0.8828
14359TIP3   OH264491   5.912   0.909  13.486 -0.5792 -0.0919 -0.6953
14359TIP3    H164492   5.961   0.976  13.439  0.2082 -1.5762 -2.0206
14359TIP3    H264493   5.976   0.869  13.545 -0.9640  0.0783 -0.1557
14360TIP3   OH264494   1.695   0.993  15.884 -0.2393  0.4223  0.3339
14360TIP3    H164495   1.754   1.066  15.867 -0.7783  0.8843  0.4409
14360TIP3    H264496   1.664   1.007  15.973 -0.7894  0.3861  0.1546
14361TIP3   OH264497   2.010   3.946   0.475  0.0143 -0.2235 -0.0058
14361TIP3    H164498   2.041   3.902   0.395  0.1198  0.5609 -0.3987
14361TIP3    H264499   2.085   3.996   0.505  0.0290 -0.6665  0.6956
14362TIP3   OH264500   0.572   0.128   6.439  0.6537  0.0687 -0.2150
14362TIP3    H164501   0.557   0.222   6.426  2.8319  0.3205 -1.0866
14362TIP3    H264502   0.586   0.118   6.533  1.5591  0.7937 -0.2674
14363TIP3   OH264503   3.844   0.384  11.731 -0.3895 -0.1942 -0.0102
14363TIP3    H164504   3.782   0.425  11.792  1.4731  0.6455  1.3743
14363TIP3    H264505   3.863   0.298  11.770  1.4956  0.7043  1.1105
14364TIP3   OH264506   5.577   0.047   0.683 -0.1828  0.2402  0.5609
14364TIP3    H164507   5.579   0.142   0.672  0.3912  0.2146  0.4368
14364TIP3    H264508   5.579   0.012   0.594  1.9231  0.0789  0.6358
14365TIP3   OH264509   2.466   3.593  11.392 -0.2244 -0.1723  0.0221
14365TIP3    H164510   2.405   3.547  11.449  0.3198 -0.8808  0.0538
14365TIP3    H264511   2.430   3.681  11.382 -1.7354 -0.8687 -0.7361
14366TIP3   OH264512   0.179   3.730  13.469 -0.5407 -0.9126 -0.3406
14366TIP3    H164513   0.244   3.757  13.534  0.1564 -2.9338 -0.1490
14366TIP3    H264514   0.225   3.665  13.415 -1.6859 -0.6264 -1.6965
14367TIP3   OH264515   6.487   3.610  14.209 -0.4046 -0.4346 -0.0279
14367TIP3    H164516   6.485   3.557  14.130  0.2272 -1.8960  0.9135
14367TIP3    H264517   6.401   3.596  14.250 -0.2996 -0.5953  0.1374
14368TIP3   OH264518   1.257   3.741  11.174 -0.3698  0.1217  0.7725
14368TIP3    H164519   1.184   3.747  11.113  1.3146  1.2174 -1.2192
14368TIP3    H264520   1.256   3.650  11.204 -3.7621  0.6430  2.3811
14369TIP3   OH264521   1.302   6.655   5.107 -0.7514 -0.7443  0.7016
14369TIP3    H164522   1.362   6.730   5.112 -0.6054 -0.7257 -1.0557
14369TIP3    H264523   1.312   6.611   5.192  3.5426 -2.0703 -0.3597
14370TIP3   OH264524   3.538   0.110  14.884 -0.4874 -0.0594 -0.0191
14370TIP3    H164525   3.555   0.076  14.797 -0.6346 -0.5183  0.1309
14370TIP3    H264526   3.460   0.166  14.874  0.4381  1.1638 -0.4906
14371TIP3   OH264527   1.904   0.587   5.289 -0.5248  0.7213  0.1161
14371TIP3    H164528   1.970   0.531   5.251 -0.0987  0.2818  1.4738
14371TIP3    H264529   1.827   0.531   5.300  0.1946  0.1123  2.3400
14372TIP3   OH264530   0.594   6.770  14.288  0.2164 -0.0123 -0.3499
14372TIP3    H164531   0.583   6.861  14.315 -0.2035 -0.0723 -0.3058
14372TIP3    H264532   0.508   6.730  14.304  1.4613 -1.4184  3.5164
14373TIP3   OH264533   4.432   3.890   1.934 -0.0417  0.2946  0.9736
14373TIP3    H164534   4.511   3.911   1.984  1.0306 -0.0034 -0.5344
14373TIP3    H264535   4.411   3.972   1.888  0.9232 -0.3244 -0.6259
14374TIP3   OH264536   3.104   5.129   4.972  0.4132 -0.5691 -0.0832
14374TIP3    H164537   3.092   5.130   4.877  0.0691 -2.0272 -0.0614
14374TIP3    H264538   3.024   5.168   5.007  0.8583  0.6706 -0.4078
14375TIP3   OH264539   5.819   6.009  16.400 -0.3564 -0.0148  0.1608
14375TIP3    H164540   5.803   5.952  16.476  0.6261 -0.3211  0.1464
14375TIP3    H264541   5.820   5.949  16.325 -0.4407  0.1702  0.0092
14376TIP3   OH264542   1.579   1.154  14.520  0.1165  0.2359 -0.2959
14376TIP3    H164543   1.499   1.198  14.548 -0.1537 -1.4659  1.7072
14376TIP3    H264544   1.616   1.118  14.601  3.7890  2.3615 -0.9074
14377TIP3   OH264545   0.270   5.391   4.633 -0.5715  0.4181 -0.2365
14377TIP3    H164546   0.348   5.353   4.674 -0.6778 -1.0597 -1.3601
14377TIP3    H264547   0.200   5.377   4.697 -0.4264 -0.5467 -0.2728
14378TIP3   OH264548   2.485   1.678   2.162  0.2142  0.1521 -0.2218
14378TIP3    H164549   2.533   1.638   2.234 -0.2775 -1.3848 -0.7443
14378TIP3    H264550   2.546   1.741   2.124  1.4262 -0.9989 -0.1838
14379TIP3   OH264551   4.798   4.361  13.595  0.7025  0.1051  0.3585
14379TIP3    H164552   4.772   4.276  13.630  1.2747 -0.5537 -0.7955
14379TIP3    H264553   4.762   4.425  13.657 -0.6169 -0.9312  0.6701
14380TIP3   OH264554   3.397   3.025   4.666  0.6757 -0.1908  0.2980
14380TIP3    H164555   3.378   2.999   4.756 -0.7756 -2.5862 -0.6447
14380TIP3    H264556   3.382   3.119   4.664 -0.6278 -0.3278  2.2261
14381TIP3   OH264557   0.089   4.888   2.822  0.0129  0.3840 -0.3938
14381TIP3    H164558   0.127   4.968   2.856  0.3643  0.4612 -0.9567
14381TIP3    H264559   0.026   4.861   2.889  1.0411  0.2616  0.5456
14382TIP3   OH264560   2.464   5.035  13.667  0.6238 -0.3411 -0.0104
14382TIP3    H164561   2.532   5.095  13.635 -0.2787 -0.2502 -1.8198
14382TIP3    H264562   2.431   4.993  13.588  0.6756 -2.6378  1.1534
14383TIP3   OH264563   0.745   4.245   6.556 -0.1278  0.4465  0.3618
14383TIP3    H164564   0.683   4.218   6.488  0.5013 -1.0098  0.3514
14383TIP3    H264565   0.696   4.309   6.608 -1.7985 -0.9536  0.5777
14384TIP3   OH264566   1.220   3.432   3.215  0.0100 -0.4848  0.1876
14384TIP3    H164567   1.296   3.460   3.267  1.1032  0.9434 -2.0703
14384TIP3    H264568   1.144   3.467   3.262  0.8947 -0.2040  1.4229
14385TIP3   OH264569   3.289   6.033   2.783  0.3056 -0.0811  0.7724
14385TIP3    H164570   3.263   5.979   2.858 -1.3390  2.0650  1.8147
14385TIP3    H264571   3.360   6.087   2.817 -0.0960  0.5316  0.6407
14386TIP3   OH264572   6.403   2.620  11.615  0.1322 -0.2217  0.6713
14386TIP3    H164573   6.424   2.668  11.535  1.0099 -0.1996  0.9072
14386TIP3    H264574   6.487   2.607  11.658 -0.3883  0.2287  1.8571
14387TIP3   OH264575   0.324   2.322   1.499 -0.1816  0.1554 -0.2527
14387TIP3    H164576   0.249   2.300   1.555 -0.1962  0.4390 -0.1580
14387TIP3    H264577   0.291   2.392   1.442  0.3202  0.9984  0.4869
14388TIP3   OH264578   6.384   3.261   0.186  0.2131  0.1702 -0.1863
14388TIP3    H164579   6.338   3.207   0.250  0.8712 -0.0278  0.1332
14388TIP3    H264580   6.446   3.201   0.144 -0.4465  0.2236 -1.2463
14389TIP3   OH264581   1.480   5.425  15.588 -0.3749  0.1136  0.6203
14389TIP3    H164582   1.534   5.462  15.657  1.0358 -1.6049  0.4778
14389TIP3    H264583   1.518   5.459  15.507 -0.8061  0.5536  0.5977
14390TIP3   OH264584   4.168   2.320  13.289 -0.0101 -0.0307  0.2386
14390TIP3    H164585   4.263   2.331  13.288  0.1352 -1.2023 -0.9806
14390TIP3    H264586   4.154   2.233  13.253 -1.5034 -0.3087  1.4198
14391TIP3   OH264587   0.576   6.123   1.433  0.3902 -0.3180 -0.4047
14391TIP3    H164588   0.489   6.091   1.455 -0.2028  0.9175 -0.8910
14391TIP3    H264589   0.634   6.080   1.495 -0.6298 -0.7469  0.2586
14392TIP3   OH264590   6.774   6.534  15.582  0.0266 -0.0701  0.5759
14392TIP3    H164591   6.709   6.603  15.574  0.9426  0.7071 -0.3497
14392TIP3    H264592   6.857   6.576  15.559  0.4817 -1.6962 -0.9270
14393TIP3   OH264593   4.382   6.675   0.364  0.1866  0.5187 -0.1208
14393TIP3    H164594   4.346   6.701   0.279  1.1360  0.0808 -0.6731
14393TIP3    H264595   4.422   6.590   0.347 -0.6186 -0.0993  1.0470
14394TIP3   OH264596   4.068   6.664   4.401  0.2771  0.4147  0.1619
14394TIP3    H164597   4.045   6.737   4.344  0.3362 -0.1110 -0.5570
14394TIP3    H264598   3.986   6.615   4.411  0.9924 -1.4831 -2.4322
14395TIP3   OH264599   3.925   6.013   3.598  0.2016  0.2483 -0.0766
14395TIP3    H164600   3.958   5.959   3.526 -0.4839 -0.6298  0.2638
14395TIP3    H264601   3.994   6.009   3.664  0.8225  1.0360 -0.6728
14396TIP3   OH264602   2.141   3.463   2.329  0.2546 -0.4584  0.1792
14396TIP3    H164603   2.113   3.416   2.407  1.1974  1.8841  1.9804
14396TIP3    H264604   2.061   3.505   2.297  0.1423 -0.2923  0.6800
14397TIP3   OH264605   1.332   2.033  14.317  0.0899  0.1422  0.5125
14397TIP3    H164606   1.378   2.005  14.396  0.6138 -1.1918 -0.2457
14397TIP3    H264607   1.241   2.043  14.344 -0.1181 -2.3367  0.8132
14398TIP3   OH264608   3.054   0.604  16.765  0.2326 -0.2501  0.8246
14398TIP3    H164609   2.988   0.672  16.750  0.1600  0.1676  2.8859
14398TIP3    H264610   3.112   0.610  16.688 -0.3944  1.4072  0.4543
14399TIP3   OH264611   2.844   1.186   6.177  0.0688 -0.6483 -0.0818
14399TIP3    H164612   2.758   1.149   6.155  0.1997 -1.3427  0.5333
14399TIP3    H264613   2.889   1.115   6.222  0.7495 -0.0898  0.1212
14400TIP3   OH264614   5.993   3.871   4.752 -0.5886 -0.2761  0.0167
14400TIP3    H164615   5.919   3.828   4.710 -0.9545  0.7823 -0.4228
14400TIP3    H264616   5.954   3.939   4.807  0.1476  1.5190 -1.6421
14401TIP3   OH264617   0.547   5.593   3.346 -0.9143  0.0510  0.2379
14401TIP3    H164618   0.510   5.506   3.332 -2.1307  0.4277  1.0373
14401TIP3    H264619   0.640   5.577   3.364 -1.1519 -1.0860  0.4818
14402TIP3   OH264620   2.698   0.813  11.855  0.0948 -0.0272 -0.1629
14402TIP3    H164621   2.702   0.745  11.923 -3.8445  0.7585  1.0359
14402TIP3    H264622   2.655   0.770  11.781  0.5345  0.2712 -0.5935
14403TIP3   OH264623   5.842   3.310   3.022  0.0254 -0.0336  0.0692
14403TIP3    H164624   5.849   3.334   2.930 -0.4859  1.1108  0.3230
14403TIP3    H264625   5.928   3.273   3.044  0.3331  0.2110 -0.7154
14404TIP3   OH264626   3.912   3.401   5.133 -0.2393  0.1239 -0.1346
14404TIP3    H164627   3.906   3.325   5.075  1.1590  1.3659 -2.0117
14404TIP3    H264628   4.007   3.417   5.141 -0.4850  1.0860  0.9834
14405TIP3   OH264629   1.303   1.360   4.815  0.2121  0.2536  0.3810
14405TIP3    H164630   1.337   1.271   4.807  3.4572  1.6053 -1.8417
14405TIP3    H264631   1.349   1.397   4.891 -0.8665  0.1904  1.0854
14406TIP3   OH264632   4.878   4.272  12.233  0.4621  0.0308 -0.5329
14406TIP3    H164633   4.829   4.217  12.293  0.7153 -0.4302 -0.7482
14406TIP3    H264634   4.968   4.241  12.239  0.4745 -0.0863 -1.2202
14407TIP3   OH264635   2.771   4.558  13.188  0.2000  0.4358  0.0815
14407TIP3    H164636   2.854   4.598  13.161 -0.5264  2.1032  0.2307
14407TIP3    H264637   2.736   4.519  13.108  0.6462  0.6084 -0.2017
14408TIP3   OH264638   4.439   2.983   2.970  0.2577 -0.4652 -0.1815
14408TIP3    H164639   4.469   2.893   2.976 -1.3458 -0.9200  1.0672
14408TIP3    H264640   4.344   2.977   2.962  0.0473  1.1300  0.8794
14409TIP3   OH264641   5.840   3.534   2.285 -0.2133 -0.1471 -0.3198
14409TIP3    H164642   5.815   3.452   2.327  2.1639 -0.7202  0.0617
14409TIP3    H264643   5.816   3.602   2.348  2.5293 -0.9423  1.7107
14410TIP3   OH264644   6.603   6.192  11.475 -0.5105  0.0602 -0.0975
14410TIP3    H164645   6.671   6.255  11.449 -0.3591  0.3592  0.9730
14410TIP3    H264646   6.642   6.106  11.457 -0.0993  0.2416 -0.0947
14411TIP3   OH264647   0.438   6.450  15.847  0.4140  0.2743  0.3510
14411TIP3    H164648   0.362   6.471  15.792 -0.2081 -0.9051  0.7407
14411TIP3    H264649   0.482   6.378  15.802  2.2454  2.0139 -0.7148
14412TIP3   OH264650   3.842   3.442  11.002 -0.7550  0.1833 -0.2871
14412TIP3    H164651   3.842   3.361  11.052 -0.6276  1.1169  1.2422
14412TIP3    H264652   3.841   3.414  10.910  0.7728 -1.5345  0.2126
14413TIP3   OH264653   4.814   1.042   6.109 -0.3699 -0.1675  0.5195
14413TIP3    H164654   4.830   1.110   6.175 -1.4704  0.8400 -0.2396
14413TIP3    H264655   4.757   0.980   6.153 -0.8181  0.3217  0.6331
14414TIP3   OH264656   1.878   5.459  11.733  0.0578  0.0470  0.1475
14414TIP3    H164657   1.946   5.392  11.745  0.7602  1.1260  2.4832
14414TIP3    H264658   1.920   5.541  11.759 -1.2612  1.1804 -1.2345
14415TIP3   OH264659   2.629   2.140  13.367 -0.2961 -0.0990  0.1275
14415TIP3    H164660   2.651   2.231  13.350 -2.1953  0.2637 -0.5769
14415TIP3    H264661   2.625   2.133  13.463  1.2361  0.1951  0.2179
14416TIP3   OH264662   3.238   3.145  14.002 -0.1708  0.3611  0.0280
14416TIP3    H164663   3.152   3.108  13.981 -0.6566  0.9442  0.9280
14416TIP3    H264664   3.259   3.111  14.089 -0.0018  1.0888  0.2794
14417TIP3   OH264665   5.038   4.867   3.175  0.1764 -0.6974  0.0815
14417TIP3    H164666   5.064   4.849   3.265 -0.4528 -1.3991  0.1201
14417TIP3    H264667   5.121   4.882   3.129  0.5084 -0.5574  0.7201
14418TIP3   OH264668   6.117   3.762   1.837 -0.0470 -0.3907  0.5318
14418TIP3    H164669   6.090   3.815   1.763  0.3229 -0.6828  0.1841
14418TIP3    H264670   6.155   3.825   1.899 -1.5275  0.0199  1.0382
14419TIP3   OH264671   5.020   0.409   5.336  0.1023 -0.8848 -0.2959
14419TIP3    H164672   4.929   0.398   5.365  0.4388  1.8139  1.9768
14419TIP3    H264673   5.027   0.503   5.316  2.2029 -1.2135 -1.1994
14420TIP3   OH264674   4.308   2.320  14.240  0.4896  0.4182  0.4792
14420TIP3    H164675   4.261   2.244  14.273  1.2712 -0.3683 -0.1850
14420TIP3    H264676   4.347   2.360  14.318 -0.8527  0.7973  0.9737
14421TIP3   OH264677   0.391   3.926  11.542 -0.7513 -0.5364  0.0940
14421TIP3    H164678   0.318   3.972  11.584 -0.5737  0.5817 -0.7998
14421TIP3    H264679   0.440   3.889  11.615 -0.4086  1.4422  0.9061
14422TIP3   OH264680   5.113   1.973   4.806 -0.3527 -0.9234  0.8003
14422TIP3    H164681   5.104   2.067   4.820  0.1076 -0.8343  0.5162
14422TIP3    H264682   5.198   1.963   4.763 -0.4540 -1.4574  0.7164
14423TIP3   OH264683   5.659   4.037   5.106  0.7877 -0.5294 -0.1695
14423TIP3    H164684   5.698   4.039   5.193 -0.1885  0.0751  0.2670
14423TIP3    H264685   5.636   3.945   5.093  0.7710 -0.5952  0.2969
14424TIP3   OH264686   0.307   6.695   6.555  0.3357  0.2430 -0.0288
14424TIP3    H164687   0.329   6.725   6.467  1.2362  0.3058  0.2170
14424TIP3    H264688   0.298   6.600   6.546 -0.6587  0.3656 -0.4111
14425TIP3   OH264689   1.463   3.305   5.052 -0.1845  0.0328 -0.3188
14425TIP3    H164690   1.396   3.261   5.104  1.3151 -1.8565  0.0601
14425TIP3    H264691   1.427   3.307   4.963 -1.6109  0.8763  0.2596
14426TIP3   OH264692   2.427   0.344   4.575  0.2236  0.0031  0.3077
14426TIP3    H164693   2.519   0.320   4.592  0.5437  2.5648  2.5622
14426TIP3    H264694   2.428   0.385   4.489  1.2842  0.4401  0.5208
14427TIP3   OH264695   1.197   2.868  13.990 -0.2422 -0.2821 -0.1874
14427TIP3    H164696   1.288   2.855  13.965 -0.1576 -1.9627  0.8756
14427TIP3    H264697   1.160   2.779  13.994 -1.6824  0.3156  0.2151
14428TIP3   OH264698   4.331   6.750   6.222  0.0363 -0.2142  0.1688
14428TIP3    H164699   4.295   6.837   6.209 -0.9625 -0.9609 -2.3246
14428TIP3    H264700   4.425   6.764   6.232 -0.1930  1.1861  0.4434
14429TIP3   OH264701   6.318   1.772  12.635  0.0994  0.1798  0.0107
14429TIP3    H164702   6.349   1.843  12.580 -0.6574  0.2527 -0.3217
14429TIP3    H264703   6.295   1.702  12.574  0.3475 -0.1602  0.3046
14430TIP3   OH264704   2.463   6.667   0.566 -0.4621  0.1356  0.5410
14430TIP3    H164705   2.426   6.711   0.642 -2.1092 -0.1438 -0.0746
14430TIP3    H264706   2.413   6.701   0.492 -0.9177 -1.8179 -0.0776
14431TIP3   OH264707   3.094   4.542   1.725  0.1684  0.0625  0.0591
14431TIP3    H164708   3.055   4.627   1.702 -0.6188 -0.3261 -0.0449
14431TIP3    H264709   3.078   4.534   1.819  0.6778  0.2537  0.1615
14432TIP3   OH264710   6.736   4.593   0.938  0.0210  0.1794  0.1867
14432TIP3    H164711   6.669   4.659   0.922  1.7500  1.7555 -0.7474
14432TIP3    H264712   6.710   4.552   1.021 -1.1016  2.0030  0.7643
14433TIP3   OH264713   4.864   0.172  15.535  0.2131  0.3292 -0.5666
14433TIP3    H164714   4.903   0.099  15.487 -0.3298 -1.8622  2.1618
14433TIP3    H264715   4.938   0.211  15.583  0.1164  0.1708 -0.2919
14434TIP3   OH264716   5.610   5.321   3.086 -0.9768 -0.2605 -0.1303
14434TIP3    H164717   5.705   5.334   3.081 -0.8565 -0.6457  1.0987
14434TIP3    H264718   5.575   5.410   3.091 -0.6182 -0.1439  0.4063
14435TIP3   OH264719   2.059   0.389   3.125  0.3838  0.5855  0.2224
14435TIP3    H164720   2.092   0.302   3.148  0.9334  1.3544  2.4430
14435TIP3    H264721   2.137   0.437   3.099  0.0956  0.4697 -0.8783
14436TIP3   OH264722   2.224   0.169  15.708 -0.7573  0.4800  0.0430
14436TIP3    H164723   2.185   0.155  15.621  0.5826 -1.1593 -0.3284
14436TIP3    H264724   2.150   0.176  15.767 -1.7186  2.4315 -1.3348
14437TIP3   OH264725   1.397   4.446  15.589 -0.7576  0.0363  0.4268
14437TIP3    H164726   1.323   4.385  15.587 -0.3572 -0.4773  1.4725
14437TIP3    H264727   1.473   4.393  15.568 -0.2654 -0.0288  2.3583
14438TIP3   OH264728   0.029   3.562   0.453  0.3244 -0.0261  0.2188
14438TIP3    H164729   0.122   3.545   0.439  0.8924  0.2287  3.3297
14438TIP3    H264730   0.024   3.657   0.469 -0.5862  0.0919 -0.7000
14439TIP3   OH264731   4.889   0.470  17.233  0.0228 -0.4239 -0.3947
14439TIP3    H164732   4.962   0.419  17.269 -0.2757 -0.7460 -0.2371
14439TIP3    H264733   4.929   0.522  17.164  0.9262  1.4408  1.4684
14440TIP3   OH264734   3.649   1.429   3.524  0.1747  0.4910 -0.0188
14440TIP3    H164735   3.640   1.361   3.457  2.5086 -1.0318  1.1270
14440TIP3    H264736   3.562   1.437   3.563 -0.4502 -0.8448 -1.1300
14441TIP3   OH264737   1.445   5.338  11.478 -0.4208  0.4551  0.2629
14441TIP3    H164738   1.540   5.328  11.483 -0.3206  1.8617  1.3426
14441TIP3    H264739   1.427   5.347  11.384  0.4744 -0.1642  0.0298
14442TIP3   OH264740   2.064   3.052   1.935  0.0811 -0.1102 -0.1836
14442TIP3    H164741   2.158   3.068   1.924 -0.0173  0.6651  0.0892
14442TIP3    H264742   2.040   2.998   1.860  0.3280  1.3819 -1.3601
14443TIP3   OH264743   1.129   3.959   2.390 -0.4721  0.1309  0.2830
14443TIP3    H164744   1.132   4.054   2.383 -3.4079  0.2690  0.5199
14443TIP3    H264745   1.097   3.943   2.479 -0.9751 -1.0635 -0.1068
14444TIP3   OH264746   4.211   3.798  13.193  0.3675 -0.1769  1.2677
14444TIP3    H164747   4.150   3.737  13.150  1.6751 -1.2578  0.9121
14444TIP3    H264748   4.292   3.748  13.201  1.6242  1.7263  0.4836
14445TIP3   OH264749   6.059   6.254   1.648  0.0677  1.0949 -0.1173
14445TIP3    H164750   6.133   6.193   1.644  0.0255  0.8511  2.0825
14445TIP3    H264751   6.095   6.333   1.688 -0.5103  1.5557 -0.4896
14446TIP3   OH264752   6.562   3.145   4.871  0.4832 -0.0498 -0.3387
14446TIP3    H164753   6.519   3.062   4.891  1.6968 -0.5673  0.1270
14446TIP3    H264754   6.606   3.170   4.952  1.1350  0.4313 -0.8361
14447TIP3   OH264755   4.679   3.680   5.213  0.1821 -0.5685 -0.3033
14447TIP3    H164756   4.638   3.744   5.271 -0.9914  0.0616 -1.7727
14447TIP3    H264757   4.679   3.599   5.263  1.2458  0.4586  1.4043
14448TIP3   OH264758   5.232   5.146   2.821  0.0983 -0.0174 -0.1041
14448TIP3    H164759   5.162   5.163   2.758  0.0325 -2.3818 -0.7120
14448TIP3    H264760   5.310   5.184   2.782 -0.2486 -0.1255 -0.9043
14449TIP3   OH264761   3.562   1.265   0.515  0.1332  0.0428 -0.2249
14449TIP3    H164762   3.517   1.202   0.459  0.2570 -0.2531  0.0102
14449TIP3    H264763   3.594   1.332   0.455  0.7960 -0.5858 -0.5817
14450TIP3   OH264764   4.062   2.745  15.256 -0.1427 -0.3170 -0.7124
14450TIP3    H164765   4.100   2.661  15.283  0.7521 -1.0136 -3.9024
14450TIP3    H264766   3.971   2.724  15.237 -0.1932 -0.3196 -0.4765
14451TIP3   OH264767   3.586   5.591   4.040  0.2252 -0.0947  0.0553
14451TIP3    H164768   3.507   5.577   4.092  0.3934 -0.2261  0.2762
14451TIP3    H264769   3.655   5.546   4.088  0.4117 -0.0874 -0.2029
14452TIP3   OH264770   1.545   6.209  17.057  0.1327 -0.1200  0.0005
14452TIP3    H164771   1.594   6.289  17.079 -2.3591  1.5965 -0.5255
14452TIP3    H264772   1.609   6.139  17.069  1.9319  1.7647  2.1338
14453TIP3   OH264773   0.341   5.843   2.700 -0.1964  0.0437  0.2593
14453TIP3    H164774   0.424   5.796   2.701 -1.4254 -2.1975  1.2800
14453TIP3    H264775   0.307   5.835   2.789 -0.1514  3.5057  0.6549
14454TIP3   OH264776   2.856   6.394   1.116  0.8287 -0.2449 -0.4536
14454TIP3    H164777   2.884   6.303   1.129 -0.7540 -0.6713  0.0402
14454TIP3    H264778   2.816   6.419   1.199 -1.0701  0.0559 -1.4310
14455TIP3   OH264779   0.945   6.639   2.201  0.2488 -0.0979 -0.1040
14455TIP3    H164780   1.020   6.634   2.141  1.1282  0.7678  0.8824
14455TIP3    H264781   0.872   6.668   2.146  0.4646 -1.6385 -1.2182
14456TIP3   OH264782   0.700   6.617   3.872 -0.2843  0.6347  0.1081
14456TIP3    H164783   0.675   6.573   3.791 -1.3983  0.6094  0.4651
14456TIP3    H264784   0.705   6.710   3.850  0.1738  0.5498 -0.1680
14457TIP3   OH264785   2.601   0.125  12.346  0.0236 -0.3993  0.1454
14457TIP3    H164786   2.604   0.129  12.250  2.7444 -2.9060  0.0543
14457TIP3    H264787   2.543   0.052  12.366  0.8111 -0.9738  0.3561
14458TIP3   OH264788   1.195   3.563   0.474 -0.2448  0.0199  0.0619
14458TIP3    H164789   1.254   3.553   0.400 -1.2493 -0.2102 -0.7196
14458TIP3    H264790   1.196   3.477   0.517  0.9749  0.4009  0.8023
14459TIP3   OH264791   5.560   4.683  10.588  0.3737  0.0794  0.0832
14459TIP3    H164792   5.652   4.678  10.563  0.9305  0.9087  1.8530
14459TIP3    H264793   5.530   4.591  10.588  1.0467 -0.1499 -0.9690
14460TIP3   OH264794   6.286   1.662   4.537  0.2461 -0.0465 -0.2568
14460TIP3    H164795   6.321   1.740   4.494  0.2639 -0.3848 -0.8593
14460TIP3    H264796   6.361   1.603   4.544 -0.1031 -0.6239 -1.2104
14461TIP3   OH264797   6.138   5.198  13.220 -0.0307  0.4890 -0.4365
14461TIP3    H164798   6.226   5.198  13.258  0.7585 -0.7263 -2.2128
14461TIP3    H264799   6.104   5.111  13.241 -0.5003  0.6729 -0.4530
14462TIP3   OH264800   3.955   4.949  13.496 -0.0410 -0.6713  0.4664
14462TIP3    H164801   3.998   4.864  13.502  2.1524  0.3092 -0.6956
14462TIP3    H264802   3.978   4.993  13.578  0.6405 -0.4046  0.1388
14463TIP3   OH264803   0.334   6.113   3.445  0.2335  0.5627  0.0865
14463TIP3    H164804   0.271   6.113   3.517  1.5387  0.4222  1.2525
14463TIP3    H264805   0.419   6.123   3.487  1.3809 -3.2089 -1.0907
14464TIP3   OH264806   5.804   4.846   5.855  0.7374 -0.2728 -0.0259
14464TIP3    H164807   5.856   4.815   5.929  0.5365 -2.8664 -0.9328
14464TIP3    H264808   5.713   4.831   5.881  0.5448  1.1418  0.1862
14465TIP3   OH264809   5.125   1.509  10.787 -0.4603 -0.0543 -0.4293
14465TIP3    H164810   5.038   1.545  10.768 -0.9455 -0.7541  0.4525
14465TIP3    H264811   5.163   1.494  10.700 -0.5476  1.8435 -0.8148
14466TIP3   OH264812   6.497   6.556   4.936 -0.3221 -0.2784 -0.2825
14466TIP3    H164813   6.510   6.629   4.876 -0.7383 -0.4471 -0.5833
14466TIP3    H264814   6.566   6.494   4.913 -1.3206 -0.9459 -1.5199
14467TIP3   OH264815   6.708   1.503  11.044 -0.5391 -0.2791 -0.0479
14467TIP3    H164816   6.753   1.443  11.103 -1.5094 -2.7729 -1.7264
14467TIP3    H264817   6.633   1.535  11.094 -0.6345 -1.3390  0.4888
14468TIP3   OH264818   2.516   4.137   5.499 -0.1535  0.0615 -0.8625
14468TIP3    H164819   2.580   4.205   5.482 -0.5640  0.3452 -1.3000
14468TIP3    H264820   2.499   4.098   5.413  0.7903 -1.2310 -0.4696
14469TIP3   OH264821   4.956   2.282  12.911  0.5566  0.3136 -0.3587
14469TIP3    H164822   4.953   2.315  12.821  0.4483 -1.1355 -0.9081
14469TIP3    H264823   4.868   2.297  12.945 -0.5523 -2.6338 -1.8137
14470TIP3   OH264824   4.255   4.075  14.441 -0.1750 -0.0979 -0.3579
14470TIP3    H164825   4.289   4.142  14.500 -0.7498 -0.5761  0.5246
14470TIP3    H264826   4.329   4.015  14.429 -0.5961 -1.0241  1.4025
14471TIP3   OH264827   6.170   0.757  10.458 -0.5618  0.4798 -0.3438
14471TIP3    H164828   6.160   0.663  10.471 -2.1870  0.5503 -0.9549
14471TIP3    H264829   6.093   0.796  10.500  0.9113  1.6667  1.3026
14472TIP3   OH264830   5.893   1.999  17.217  0.0524  0.1892  0.2847
14472TIP3    H164831   5.979   2.039  17.229  0.3513 -0.7858  1.4185
14472TIP3    H264832   5.890   1.927  17.280 -1.6896  0.3610  0.4336
14473TIP3   OH264833   1.824   5.379  12.432  0.5152  0.2879  0.3018
14473TIP3    H164834   1.913   5.415  12.439  0.0304  1.2970  1.5223
14473TIP3    H264835   1.805   5.346  12.520 -0.3459  0.1369  0.0610
14474TIP3   OH264836   5.826   4.306  17.002 -0.1226 -0.5023 -0.4171
14474TIP3    H164837   5.849   4.314  17.095 -1.8415  0.9261 -0.0802
14474TIP3    H264838   5.812   4.396  16.973  0.2409 -0.9520 -2.0396
14475TIP3   OH264839   3.036   0.903  16.480 -0.1897 -0.1038 -0.1570
14475TIP3    H164840   2.983   0.839  16.433  0.8090 -0.3720 -0.9086
14475TIP3    H264841   3.126   0.874  16.469  0.2002  0.9000  0.2987
14476TIP3   OH264842   4.240   4.970  16.046 -0.2428 -0.2210  0.1078
14476TIP3    H164843   4.244   4.895  16.106  1.9597  1.4110  2.0945
14476TIP3    H264844   4.272   4.935  15.962 -1.7595 -2.1174  0.2976
14477TIP3   OH264845   5.871   1.550   2.870 -0.0118  0.1060 -0.3650
14477TIP3    H164846   5.804   1.595   2.922 -0.1562 -0.2051 -0.2756
14477TIP3    H264847   5.895   1.612   2.802  0.7262  0.8113  0.5282
14478TIP3   OH264848   1.135   3.918   2.095  0.0848  0.0254  0.1657
14478TIP3    H164849   1.171   4.006   2.108  0.1388 -0.1150  0.9655
14478TIP3    H264850   1.090   3.898   2.177  1.3119 -1.2940  0.5323
14479TIP3   OH264851   3.180   3.660   2.841 -0.4733  0.1982  0.3706
14479TIP3    H164852   3.171   3.699   2.929 -2.6293 -0.1399  0.3429
14479TIP3    H264853   3.093   3.622   2.823  0.4353 -1.2052 -1.2203
14480TIP3   OH264854   4.886   4.561  14.241 -0.2160  0.5833  0.4282
14480TIP3    H164855   4.905   4.648  14.275  0.7995  0.0098  1.3894
14480TIP3    H264856   4.799   4.540  14.275 -1.2541  1.9338 -1.3162
14481TIP3   OH264857   6.199   5.794  16.005  0.6392 -0.3131 -0.5514
14481TIP3    H164858   6.198   5.765  16.096  0.2727 -0.9350 -0.7501
14481TIP3    H264859   6.289   5.821  15.989 -0.0081  3.0685  1.0116
14482TIP3   OH264860   0.361   0.997   3.000  0.0074 -0.2387  0.1219
14482TIP3    H164861   0.271   0.997   3.034  0.0688 -1.5449  0.2862
14482TIP3    H264862   0.394   1.085   3.022 -1.7779  0.8803 -1.4772
14483TIP3   OH264863   1.752   1.652   3.447  0.6108  0.1839  0.2873
14483TIP3    H164864   1.800   1.612   3.375  1.5146 -1.3769  1.7385
14483TIP3    H264865   1.819   1.688   3.504  0.0024 -0.6614  1.5527
14484TIP3   OH264866   1.698   4.188   5.846  0.3370  0.0382 -0.1682
14484TIP3    H164867   1.687   4.114   5.787 -2.9004  0.0453  0.3345
14484TIP3    H264868   1.712   4.149   5.932  1.3814  0.0202 -0.3455
14485TIP3   OH264869   4.973   4.550  13.835  0.4316 -0.7272  0.0498
14485TIP3    H164870   4.877   4.557  13.841  0.4737 -0.5440  0.5796
14485TIP3    H264871   4.997   4.618  13.772  0.1932 -0.9110 -0.2390
14486TIP3   OH264872   5.715   5.214   1.239 -0.0738  0.5493  0.5636
14486TIP3    H164873   5.805   5.238   1.216 -0.3806  1.2212  0.0343
14486TIP3    H264874   5.707   5.237   1.332 -0.0300  1.5374  0.3349
14487TIP3   OH264875   3.846   3.787   4.437  0.3377  0.2922 -0.6293
14487TIP3    H164876   3.787   3.862   4.442 -1.7675 -1.1798 -2.4912
14487TIP3    H264877   3.889   3.784   4.522 -0.3394  2.9610 -0.1680
14488TIP3   OH264878   2.301   0.494  15.796 -0.0040 -0.3316 -0.1356
14488TIP3    H164879   2.364   0.422  15.799  1.5460  0.9213 -1.1872
14488TIP3    H264880   2.293   0.523  15.887  1.6904  0.0800 -0.0897
14489TIP3   OH264881   6.494   3.119  12.211 -0.4186 -0.7586 -0.0419
14489TIP3    H164882   6.486   3.089  12.302  0.0097 -1.7997 -0.3298
14489TIP3    H264883   6.495   3.214  12.217 -2.3203 -0.7713  0.8677
14490TIP3   OH264884   4.281   2.331   6.222  0.3055 -0.2999 -0.1526
14490TIP3    H164885   4.359   2.275   6.223  0.9683  0.6165  0.0400
14490TIP3    H264886   4.308   2.408   6.174 -0.8954 -0.5386 -1.2166
14491TIP3   OH264887   3.640   4.942  11.906  0.7391 -0.5683  0.1415
14491TIP3    H164888   3.711   4.973  11.963  1.9903 -1.2631 -1.0116
14491TIP3    H264889   3.581   5.017  11.899  2.3029  0.6396 -0.3629
14492TIP3   OH264890   6.379   5.185  13.317 -0.0041  0.4339  0.0796
14492TIP3    H164891   6.372   5.178  13.412 -0.9239 -0.5257 -0.0493
14492TIP3    H264892   6.434   5.111  13.291 -1.0470 -0.2389 -0.2725
14493TIP3   OH264893   4.119   2.718  17.099 -0.2583  0.2989 -0.1097
14493TIP3    H164894   4.203   2.730  17.142  1.2944 -0.5407 -2.7556
14493TIP3    H264895   4.097   2.804  17.065 -0.2810  0.4408  0.2653
14494TIP3   OH264896   1.740   0.045   3.953  0.1436  0.9335  0.0504
14494TIP3    H164897   1.660  -0.005   3.939 -0.5578  1.3822  2.3880
14494TIP3    H264898   1.769   0.068   3.864 -1.7600 -0.0556 -0.8608
14495TIP3   OH264899   5.613   5.612  13.843 -0.2259 -0.1511  0.1972
14495TIP3    H164900   5.690   5.668  13.849  0.1066 -0.4926 -0.8249
14495TIP3    H264901   5.647   5.523  13.846 -0.6386 -0.3038  0.4145
14496TIP3   OH264902   4.671   3.151  14.046  0.5074 -0.3137 -0.5189
14496TIP3    H164903   4.647   3.060  14.029 -0.3546  0.0536 -1.2837
14496TIP3    H264904   4.651   3.164  14.139  0.2262 -0.7719 -0.5146
14497TIP3   OH264905   2.484   3.928  14.948  0.0533  0.3593 -0.0947
14497TIP3    H164906   2.460   3.836  14.942  1.2681 -0.0972  1.6307
14497TIP3    H264907   2.579   3.930  14.931 -0.2575  1.5157 -1.8764
14498TIP3   OH264908   4.445   0.814  16.706 -0.0555  1.1834 -0.9651
14498TIP3    H164909   4.371   0.813  16.645  0.4513  1.8608 -1.5996
14498TIP3    H264910   4.498   0.738  16.681 -1.9578 -0.9714  1.2918
14499TIP3   OH264911   5.796   1.790  13.797  0.3709  0.3229 -0.0773
14499TIP3    H164912   5.780   1.876  13.834  1.3575 -0.1049  1.3841
14499TIP3    H264913   5.891   1.786  13.786  0.4070 -0.8755  0.6211
14500TIP3   OH264914   2.016   2.653   5.933  0.2220 -0.4370 -0.6118
14500TIP3    H164915   1.996   2.634   5.842  1.1031 -1.3724 -0.6215
14500TIP3    H264916   2.077   2.727   5.929  0.2724 -0.4882 -0.7764
14501TIP3   OH264917   3.294   4.833  14.100  0.1419 -0.7315  0.2212
14501TIP3    H164918   3.378   4.791  14.120  1.0164 -0.0418 -1.8751
14501TIP3    H264919   3.264   4.867  14.184  2.0118 -0.9064  0.9879
14502TIP3   OH264920   1.535   5.107  11.894 -0.3880 -0.2846  0.2287
14502TIP3    H164921   1.556   5.017  11.869 -0.4061  0.3422 -2.1293
14502TIP3    H264922   1.489   5.098  11.978  0.0540 -2.4305  0.2689
14503TIP3   OH264923   3.351   3.943   2.923  0.4240 -0.9135  0.0210
14503TIP3    H164924   3.274   3.928   2.977 -0.7596  0.7369 -1.1838
14503TIP3    H264925   3.424   3.945   2.986 -0.6730 -1.0194  1.3144
14504TIP3   OH264926   2.606   1.222   1.302  0.5671 -0.1939 -0.2538
14504TIP3    H164927   2.590   1.194   1.392  1.4818  2.1690  0.6943
14504TIP3    H264928   2.699   1.204   1.288  0.2414 -1.3406 -1.0474
14505TIP3   OH264929   2.397   6.487   6.225 -0.1454 -0.3185  0.0798
14505TIP3    H164930   2.314   6.442   6.209 -0.1621 -1.0868  2.1087
14505TIP3    H264931   2.375   6.556   6.288  0.7726 -0.6960  0.8347
14506TIP3   OH264932   0.165   4.063  11.670 -0.0828 -0.7742  0.7473
14506TIP3    H164933   0.138   4.128  11.735  0.5934 -0.9687  1.2293
14506TIP3    H264934   0.085   4.013  11.652 -0.6824  0.4113  0.1100
14507TIP3   OH264935   1.161   5.060  11.685 -0.2867 -0.0614  0.2270
14507TIP3    H164936   1.246   5.052  11.643 -0.7722  1.3085 -1.0477
14507TIP3    H264937   1.175   5.124  11.755 -0.0797 -0.4231  0.5142
14508TIP3   OH264938   4.083   2.431  14.812  0.3191  0.8066 -0.1215
14508TIP3    H164939   4.144   2.358  14.821 -0.0565  0.5985  0.7142
14508TIP3    H264940   4.065   2.436  14.718 -0.2929 -0.6838 -0.0792
14509TIP3   OH264941   6.144   1.985   4.000  0.2186 -0.7101  0.4636
14509TIP3    H164942   6.168   1.988   3.907  0.5560  0.2595  0.5727
14509TIP3    H264943   6.113   1.896   4.014 -1.0002 -0.5044 -0.8642
14510TIP3   OH264944   1.912   5.982  14.180  0.5306  0.1680  0.3278
14510TIP3    H164945   1.903   6.071  14.212  0.4133  0.6477 -0.9963
14510TIP3    H264946   1.960   5.991  14.098  1.1271 -1.0518  0.5379
14511TIP3   OH264947   6.194   3.384  13.463  0.2408 -0.3479  0.1104
14511TIP3    H164948   6.194   3.439  13.541 -0.4159 -0.3250  0.1006
14511TIP3    H264949   6.109   3.339  13.465 -0.8236  1.5022 -1.8866
14512TIP3   OH264950   5.610   0.201  11.928 -0.1847 -0.0218 -0.1256
14512TIP3    H164951   5.662   0.170  12.002 -0.6343  0.3567  0.3608
14512TIP3    H264952   5.617   0.297  11.933  1.3688 -0.0300 -1.7360
14513TIP3   OH264953   4.683   2.310  13.025 -0.7760 -0.3010 -0.3559
14513TIP3    H164954   4.595   2.273  13.011 -2.1269  1.9994  1.6526
14513TIP3    H264955   4.667   2.402  13.046  2.1057  0.0312  0.5614
14514TIP3   OH264956   3.237   0.803  13.384  0.0410  0.4093 -0.4718
14514TIP3    H164957   3.158   0.849  13.356  0.2638  1.0807  0.0070
14514TIP3    H264958   3.308   0.843  13.333  0.2267  0.5461 -0.1016
14515TIP3   OH264959   4.862   2.033  14.600 -0.5499  0.3047  0.3002
14515TIP3    H164960   4.813   2.068  14.526  1.1670  2.6544  0.2146
14515TIP3    H264961   4.937   2.091  14.609  1.0262 -1.8734  1.8486
14516TIP3   OH264962   5.460   4.320   3.991 -0.3890  0.6326 -0.4350
14516TIP3    H164963   5.457   4.333   3.896  2.1525  0.5316 -0.5600
14516TIP3    H264964   5.483   4.406   4.026  0.3282  0.2844 -0.0441
14517TIP3   OH264965   4.608   4.805   6.328  0.8574  0.1714 -0.6338
14517TIP3    H164966   4.582   4.846   6.245  1.3056  0.6649 -0.5332
14517TIP3    H264967   4.646   4.721   6.302 -2.5126 -1.4251 -0.6681
14518TIP3   OH264968   4.008   5.972   3.883  0.1866  0.2723 -0.2198
14518TIP3    H164969   4.022   5.991   3.975  1.7247  1.4154 -0.6703
14518TIP3    H264970   4.053   5.889   3.868 -0.7202 -0.3101  0.2096
14519TIP3   OH264971   4.608   3.699  13.944  0.1885 -0.2557  0.1601
14519TIP3    H164972   4.658   3.686  13.864 -0.2274 -0.2784 -0.0957
14519TIP3    H264973   4.638   3.783  13.978 -0.5014  0.3303 -0.6530
14520TIP3   OH264974   0.215   0.039  16.445 -0.4569  0.1093 -0.4110
14520TIP3    H164975   0.258  -0.020  16.383  0.0515 -0.9750  0.9668
14520TIP3    H264976   0.141  -0.011  16.479  0.9024 -0.3563  1.9467
14521TIP3   OH264977   2.025   1.311   1.515 -0.2257 -0.0575  0.0296
14521TIP3    H164978   1.988   1.242   1.460  0.7155 -0.4331 -0.1372
14521TIP3    H264979   2.009   1.281   1.605  0.6135 -0.7330 -0.0417
14522TIP3   OH264980   5.740   5.500  14.294 -0.3858  0.4027 -0.1537
14522TIP3    H164981   5.673   5.544  14.347  0.5564  0.3911  1.0753
14522TIP3    H264982   5.693   5.428  14.252 -1.0666  0.1585  0.9952
14523TIP3   OH264983   6.187   4.006   4.380  0.0811  0.7115 -0.1136
14523TIP3    H164984   6.182   3.977   4.289  0.7687 -1.0823  0.3961
14523TIP3    H264985   6.140   4.089   4.381 -2.1722 -0.4762 -1.6114
14524TIP3   OH264986   3.410   1.447   1.623  0.1163  0.3687 -0.6260
14524TIP3    H164987   3.334   1.505   1.624  0.5554  0.9413  0.0702
14524TIP3    H264988   3.387   1.375   1.681  0.1156  0.5543 -0.3982
14525TIP3   OH264989   0.082   3.433  14.329 -0.1385  0.2223 -0.0557
14525TIP3    H164990   0.005   3.435  14.385 -0.4722  0.5302 -0.5324
14525TIP3    H264991   0.147   3.385  14.381 -0.8864 -0.7109  0.0361
14526TIP3   OH264992   2.247   1.420  16.162 -0.0711  0.0026  0.0715
14526TIP3    H164993   2.191   1.411  16.239  0.3508  0.1273  0.3955
14526TIP3    H264994   2.303   1.342  16.164  2.0458  1.5149  1.6252
14527TIP3   OH264995   1.277   3.671   2.048 -0.8745 -0.1448  0.2519
14527TIP3    H164996   1.328   3.682   2.128  1.5085  0.6998 -1.3236
14527TIP3    H264997   1.199   3.724   2.062 -0.1909  0.4927  1.7582
14528TIP3   OH264998   2.787   2.861   3.135 -0.3122  0.0038 -0.1618
14528TIP3    H164999   2.772   2.903   3.220 -2.0149  0.4380 -0.6570
14528TIP3    H265000   2.738   2.779   3.140 -0.2330 -0.0709 -0.6538
14529TIP3   OH265001   2.467   4.860   3.036  0.2703  0.8453  0.0413
14529TIP3    H165002   2.421   4.937   3.071  1.4017  0.8459  1.5487
14529TIP3    H265003   2.536   4.896   2.980  0.1588  0.9020 -0.0602
14530TIP3   OH265004   1.465   0.915  16.298  0.1398  0.1961  0.1236
14530TIP3    H165005   1.542   0.860  16.313  0.2427  0.4393  0.4774
14530TIP3    H265006   1.498   0.992  16.253 -0.1859 -0.5925 -1.5198
14531TIP3   OH265007   5.401   0.806   5.194 -0.0861 -0.2566 -0.0570
14531TIP3    H165008   5.449   0.840   5.119  2.2430 -1.1619  0.9766
14531TIP3    H265009   5.384   0.714   5.172  2.2605 -1.0426  1.2803
14532TIP3   OH265010   2.959   5.930  13.962  0.2518 -0.0724 -0.3905
14532TIP3    H165011   2.899   5.964  13.895 -0.1494 -1.3308 -0.6903
14532TIP3    H265012   2.967   6.001  14.025 -2.1420 -0.1076  0.0290
14533TIP3   OH265013   5.841   2.302   0.100  0.0635  0.3665 -0.4311
14533TIP3    H165014   5.935   2.307   0.116  0.1232  0.5849 -0.8658
14533TIP3    H265015   5.822   2.208   0.103  0.5033  0.2376 -1.5480
14534TIP3   OH265016   5.826   3.066  13.927 -0.3986 -0.3865  0.1978
14534TIP3    H165017   5.734   3.078  13.949 -0.5997  0.5297 -1.0588
14534TIP3    H265018   5.844   2.974  13.946 -1.7685 -0.7546 -0.2349
14535TIP3   OH265019   5.397   4.606  10.976 -0.1563 -0.5434 -0.0818
14535TIP3    H165020   5.358   4.563  10.900  0.8129 -1.4047 -0.1029
14535TIP3    H265021   5.464   4.664  10.940 -1.7302  1.3390 -0.0827
14536TIP3   OH265022   2.095   3.506   3.445 -0.0133  0.5349 -0.5099
14536TIP3    H165023   2.051   3.422   3.442  1.9294 -0.5139 -0.1713
14536TIP3    H265024   2.145   3.504   3.527  0.3515  1.8584 -0.6902
14537TIP3   OH265025   4.598   0.136   3.239  0.2328  0.9642  0.3527
14537TIP3    H165026   4.518   0.170   3.199  1.3278  0.3015 -2.5526
14537TIP3    H265027   4.576   0.046   3.264 -0.4501  1.3658  1.2218
14538TIP3   OH265028   2.483   4.257  15.273  0.3489  0.2112 -0.0578
14538TIP3    H165029   2.487   4.317  15.199  1.2964 -0.8991 -0.9277
14538TIP3    H265030   2.575   4.247  15.300  0.0026  0.7341  1.3812
14539TIP3   OH265031   6.446   1.865   3.515 -0.1965 -0.2826 -0.0087
14539TIP3    H165032   6.427   1.774   3.539  2.4291 -0.6411  0.8785
14539TIP3    H265033   6.537   1.864   3.488  0.6113  2.5213  2.3884
14540TIP3   OH265034   2.519   6.287   3.120  0.0341 -0.1608 -0.3761
14540TIP3    H165035   2.466   6.354   3.076  0.9696  2.6831  2.6480
14540TIP3    H265036   2.456   6.238   3.173  0.0240  1.6246  1.3072
14541TIP3   OH265037   2.903   1.495  12.623 -0.1238 -0.1775 -0.2173
14541TIP3    H165038   2.972   1.514  12.559 -0.5554 -0.0189 -0.6366
14541TIP3    H265039   2.854   1.422  12.584 -0.0239 -0.4734  0.2100
14542TIP3   OH265040   4.991   5.407  11.978 -0.3154 -0.0394 -0.3849
14542TIP3    H165041   4.948   5.367  11.902 -1.9620  2.2557 -0.7094
14542TIP3    H265042   4.922   5.456  12.022  1.1232  0.4627  1.3605
14543TIP3   OH265043   2.636   2.001   3.683 -0.3516 -0.0785  0.4450
14543TIP3    H165044   2.586   1.920   3.685 -2.0943  0.9784  0.8566
14543TIP3    H265045   2.722   1.976   3.648 -1.2252 -1.8829 -0.4491
14544TIP3   OH265046   4.942   4.831   2.001 -0.2612 -0.4777  0.2028
14544TIP3    H165047   4.894   4.793   2.074 -0.4228  0.2619  0.4877
14544TIP3    H265048   4.876   4.878   1.951  0.1406  0.5010  0.5688
14545TIP3   OH265049   6.190   5.444   3.562 -0.4410 -0.1122 -0.0049
14545TIP3    H165050   6.274   5.402   3.542 -1.3591 -1.1722 -1.7582
14545TIP3    H265051   6.212   5.535   3.581  1.0352 -0.2320 -1.0803
14546TIP3   OH265052   0.753   4.721  14.516 -0.1763 -0.1287  0.0363
14546TIP3    H165053   0.776   4.787  14.450  0.1132 -0.9689 -0.7188
14546TIP3    H265054   0.763   4.767  14.599  0.8840  0.5362 -0.4370
14547TIP3   OH265055   1.716   2.307   4.502 -0.1407  0.1200 -0.0497
14547TIP3    H165056   1.696   2.301   4.595 -2.2136 -0.0564 -0.4716
14547TIP3    H265057   1.725   2.401   4.486  1.2166  0.0888  0.5177
14548TIP3   OH265058   2.444   4.713   1.996  0.2588  0.1020  0.2186
14548TIP3    H165059   2.353   4.736   2.016  0.4009  0.6309  0.2591
14548TIP3    H265060   2.438   4.652   1.923 -0.1474 -0.0983  0.4207
14549TIP3   OH265061   0.223   6.410   3.609  0.1935 -0.5974 -0.1836
14549TIP3    H165062   0.305   6.359   3.613  0.1154 -0.8351 -1.1991
14549TIP3    H265063   0.172   6.380   3.684  0.2046 -1.9475 -0.6983
14550TIP3   OH265064   4.133   3.835  15.886 -0.1979 -0.2606 -0.5134
14550TIP3    H165065   4.087   3.868  15.963 -0.1954  2.6033 -1.6639
14550TIP3    H265066   4.070   3.779  15.842 -0.7949 -0.5052  0.6390
14551TIP3   OH265067   6.567   6.320   3.458 -0.1451  0.3996  0.1359
14551TIP3    H165068   6.474   6.303   3.444  0.4163 -0.8511 -2.2241
14551TIP3    H265069   6.606   6.233   3.463  0.9295  0.9276  0.9797
14552TIP3   OH265070   2.027   1.662   5.255  0.2758 -0.8594 -0.3637
14552TIP3    H165071   2.031   1.757   5.267 -2.0198 -0.5065 -2.1028
14552TIP3    H265072   2.118   1.636   5.242  0.9773  1.0323  0.4780
14553TIP3   OH265073   1.580   3.340   1.499 -0.1484 -0.0997  0.3240
14553TIP3    H165074   1.533   3.291   1.566 -2.3716  0.1699 -0.9951
14553TIP3    H265075   1.608   3.273   1.437 -3.3292  0.2143 -1.5649
14554TIP3   OH265076   5.492   0.332  12.824 -0.0238  0.1422  0.0632
14554TIP3    H165077   5.510   0.402  12.763 -0.9530 -0.8705 -1.4093
14554TIP3    H265078   5.422   0.367  12.880 -2.5697 -0.5758 -2.5137
14555TIP3   OH265079   3.426   3.564  11.839  0.5110 -0.2940  0.0988
14555TIP3    H165080   3.478   3.642  11.862 -0.2204  0.3714 -0.5112
14555TIP3    H265081   3.343   3.599  11.808 -0.7045 -1.3776  2.0064
14556TIP3   OH265082   6.193   2.997  11.525 -0.4643 -0.0465  0.2508
14556TIP3    H165083   6.188   2.920  11.469 -0.0778 -0.3951  0.7030
14556TIP3    H265084   6.134   2.979  11.598  0.2986 -0.2893  0.8132
14557TIP3   OH265085   6.643   2.401   2.472 -0.1873  0.6589  0.6602
14557TIP3    H165086   6.579   2.465   2.503 -1.5405 -0.4133  0.1427
14557TIP3    H265087   6.619   2.320   2.517  1.0637  0.3363  0.7565
14558TIP3   OH265088   1.970   4.080   3.190  0.2188  0.3225  0.3011
14558TIP3    H165089   1.967   4.068   3.285 -0.5031  1.2714  0.4007
14558TIP3    H265090   2.018   4.003   3.158 -0.2418 -0.4186  1.3541
14559TIP3   OH265091   1.737   2.297   4.761 -0.3335  0.0130 -0.0777
14559TIP3    H165092   1.788   2.240   4.818 -0.3798 -1.4445 -1.4863
14559TIP3    H265093   1.699   2.362   4.821  1.6696  0.0369  1.2181
14560TIP3   OH265094   4.515   6.085  13.408  0.3600  0.1363  0.1730
14560TIP3    H165095   4.558   6.143  13.472 -0.6235  0.8602  0.1921
14560TIP3    H265096   4.423   6.083  13.435  0.1623 -0.4965 -0.5279
14561TIP3   OH265097   4.216   1.970   5.627 -0.4213  0.4005  0.0695
14561TIP3    H165098   4.220   1.931   5.715  0.0955  0.2093 -0.0380
14561TIP3    H265099   4.123   1.986   5.613 -0.3438  2.3697  1.4938
14562TIP3   OH265100   6.665   4.052   3.714  0.6539  0.4447 -0.0497
14562TIP3    H165101   6.665   3.971   3.663 -0.5197 -0.2960  1.0981
14562TIP3    H265102   6.752   4.055   3.754  0.4021 -0.7327  0.6222
14563TIP3   OH265103   5.246   1.474   5.004  0.0546 -0.6689 -0.1081
14563TIP3    H165104   5.202   1.559   4.993  0.5560 -0.5789 -1.4940
14563TIP3    H265105   5.315   1.491   5.068 -0.7828 -0.3868  0.7308
14564TIP3   OH265106   2.963   3.228  13.625 -0.0520  0.1117  0.2427
14564TIP3    H165107   3.054   3.199  13.626 -0.1705 -0.3060 -0.3964
14564TIP3    H265108   2.944   3.244  13.533 -0.3915  0.9531  0.4560
14565TIP3   OH265109   1.076   2.467   4.999 -0.5411 -0.0648 -0.4510
14565TIP3    H165110   1.033   2.553   5.002 -0.8125 -0.1957 -0.5404
14565TIP3    H265111   1.161   2.484   4.958 -0.1230  0.3544  0.5757
14566TIP3   OH265112   4.772   2.144   1.183  0.0243 -0.6534 -0.3696
14566TIP3    H165113   4.736   2.063   1.218 -0.8660 -0.9998 -2.0262
14566TIP3    H265114   4.842   2.116   1.124  2.3119 -0.0270  1.9772
14567TIP3   OH265115   3.390   6.443   0.408 -0.4790  0.1119 -0.1070
14567TIP3    H165116   3.300   6.452   0.438 -0.0097  0.2237  1.3146
14567TIP3    H265117   3.383   6.433   0.313 -2.0265 -0.4954  0.0538
14568TIP3   OH265118   0.538   3.742  14.825 -0.0674  0.0249  0.0969
14568TIP3    H165119   0.533   3.773  14.915  1.3198  3.5244 -0.9451
14568TIP3    H265120   0.466   3.787  14.780  1.1903  0.8230 -1.1722
14569TIP3   OH265121   2.261   3.580  10.833  0.5525  0.0789 -0.0966
14569TIP3    H165122   2.256   3.672  10.857 -1.1787 -0.0103 -0.0110
14569TIP3    H265123   2.261   3.533  10.916 -2.0178 -0.0968 -0.1387
14570TIP3   OH265124   2.568   2.737  11.897 -0.2441 -0.1936 -0.2095
14570TIP3    H165125   2.547   2.819  11.852 -3.6372 -0.9188 -0.0909
14570TIP3    H265126   2.618   2.687  11.832 -2.4665  0.0106 -2.1716
14571TIP3   OH265127   5.588   3.819  12.037  0.8304 -0.6965 -0.2478
14571TIP3    H165128   5.657   3.884  12.055 -2.2631  1.8965  3.2366
14571TIP3    H265129   5.546   3.850  11.957  0.9168  0.2796  0.0715
14572TIP3   OH265130   1.830   6.457  11.899 -0.0520 -0.0053 -0.2318
14572TIP3    H165131   1.775   6.464  11.976 -0.3694  0.5894 -0.5119
14572TIP3    H265132   1.827   6.364  11.876 -0.8288  0.0009 -0.1685
14573TIP3   OH265133   6.760   5.422  17.094  0.3346 -0.0957  0.0511
14573TIP3    H165134   6.823   5.373  17.042  2.6696  1.4204  1.3336
14573TIP3    H265135   6.723   5.486  17.034  0.4405 -0.6227 -0.5772
14574TIP3   OH265136   3.917   2.900   4.867  0.0969 -0.4763  1.1201
14574TIP3    H165137   3.963   2.942   4.794 -0.3509  0.3772  1.3314
14574TIP3    H265138   3.947   2.809   4.864 -0.4703 -0.6319 -0.5763
14575TIP3   OH265139   5.153   3.911   1.138 -0.1406 -0.1391  0.1705
14575TIP3    H165140   5.168   3.949   1.225  2.7852  0.1993 -0.4099
14575TIP3    H265141   5.228   3.940   1.086 -0.8670 -1.8850 -1.9427
14576TIP3   OH265142   4.690   5.866  16.841 -0.3252 -0.8262  0.0031
14576TIP3    H165143   4.729   5.932  16.898 -0.5195 -0.0670 -0.7358
14576TIP3    H265144   4.672   5.912  16.759 -1.0244 -1.6386 -0.3090
14577TIP3   OH265145   3.517   0.791  16.061  0.1602 -0.0910 -0.5741
14577TIP3    H165146   3.540   0.834  16.143 -1.2178  0.1003 -0.2914
14577TIP3    H265147   3.551   0.702  16.071  0.7661  0.1785 -0.1582
14578TIP3   OH265148   1.157   1.614   0.215 -0.4075 -0.1209 -0.0197
14578TIP3    H165149   1.252   1.626   0.212 -0.5388  1.1151  0.2538
14578TIP3    H265150   1.145   1.520   0.220  0.8530 -0.2338  1.4138
14579TIP3   OH265151   1.328   4.795  14.946 -0.6560 -0.2535  0.1515
14579TIP3    H165152   1.355   4.703  14.939 -2.4569 -0.5720 -3.2908
14579TIP3    H265153   1.241   4.791  14.988 -0.4352 -0.0556  0.6337
14580TIP3   OH265154   6.317   3.928  14.266  0.4874  0.3778 -0.0426
14580TIP3    H165155   6.388   3.949  14.326  0.3847 -0.5392  0.4085
14580TIP3    H265156   6.260   3.870  14.316 -0.7925  1.4154 -0.2606
14581TIP3   OH265157   3.532   1.529   2.912  0.0084  0.2454  0.0527
14581TIP3    H165158   3.492   1.588   2.849 -0.1022 -0.5499 -0.6153
14581TIP3    H265159   3.622   1.517   2.881  0.1700  0.4218  0.4409
14582TIP3   OH265160   5.756   0.312   4.327 -0.1705  0.2470  0.3796
14582TIP3    H165161   5.804   0.395   4.330 -1.3074  0.9224  0.3412
14582TIP3    H265162   5.824   0.245   4.329  0.8326  1.1849 -0.9819
14583TIP3   OH265163   1.471   3.476  15.592  0.2298  0.0102  0.1176
14583TIP3    H165164   1.426   3.482  15.508 -0.3851 -1.2211  0.3422
14583TIP3    H265165   1.454   3.386  15.621  0.7696  0.3091  1.3635
14584TIP3   OH265166   2.512   1.456   3.538  0.0781  0.2535  0.0389
14584TIP3    H165167   2.434   1.430   3.588  0.3368  0.9841  0.8277
14584TIP3    H265168   2.481   1.465   3.448 -0.7868  0.7036  0.3775
14585TIP3   OH265169   0.426   6.447  13.875  0.3302  0.1453  0.0100
14585TIP3    H165170   0.436   6.380  13.807  0.6114  1.3617 -1.1548
14585TIP3    H265171   0.380   6.401  13.946 -0.0896 -1.1070 -1.0370
14586TIP3   OH265172   6.415   6.729   5.501 -0.2103  0.1122  0.1968
14586TIP3    H165173   6.338   6.709   5.555  0.9693 -0.9401  1.5113
14586TIP3    H265174   6.380   6.783   5.430 -2.3637 -1.2455  0.1687
14587TIP3   OH265175   4.333   5.363   2.536  0.3933 -0.2221  0.3220
14587TIP3    H165176   4.343   5.371   2.631 -0.3204  2.4450  0.2115
14587TIP3    H265177   4.270   5.432   2.513  1.7558  0.1913 -2.2845
14588TIP3   OH265178   4.342   3.054  12.346 -0.1732  0.3579 -0.2499
14588TIP3    H165179   4.407   3.124  12.357 -0.4430  0.2406  2.3099
14588TIP3    H265180   4.392   2.974  12.361 -0.6601  0.2084  0.5702
14589TIP3   OH265181   6.724   2.831  11.604  0.7315  0.2829  0.1429
14589TIP3    H165182   6.641   2.877  11.612 -0.6800 -2.0322 -0.6425
14589TIP3    H265183   6.717   2.758  11.665  2.1037 -0.0477 -0.0736
14590TIP3   OH265184   4.324   6.006   4.857  0.0046  0.3691 -0.1063
14590TIP3    H165185   4.255   6.053   4.905 -1.2889  1.4287 -2.8810
14590TIP3    H265186   4.405   6.047   4.886 -0.7452  1.0412  1.1072
14591TIP3   OH265187   1.628   4.214  15.517  0.2405  0.8738 -0.4112
14591TIP3    H165188   1.656   4.149  15.452  0.4857  0.4455  0.1192
14591TIP3    H265189   1.696   4.282  15.514  0.7289  0.4102  0.0419
14592TIP3   OH265190   5.308   0.900   4.918 -0.3595 -0.1188  0.6816
14592TIP3    H165191   5.278   0.938   5.001  0.8717  1.9777  0.2048
14592TIP3    H265192   5.344   0.974   4.869 -0.1845 -1.4887 -1.3484
14593TIP3   OH265193   6.630   1.090  15.704  0.1582  0.3765  0.3142
14593TIP3    H165194   6.725   1.082  15.695  0.3045  0.8818  1.3235
14593TIP3    H265195   6.603   1.143  15.630  0.8599  1.4554  0.8187
14594TIP3   OH265196   5.210   6.325   4.586  0.1171  0.4553  0.4940
14594TIP3    H165197   5.138   6.383   4.611  0.4255  1.0307  0.0715
14594TIP3    H265198   5.177   6.276   4.511  0.6711  1.8029 -0.6652
14595TIP3   OH265199   6.593   6.414   1.553 -0.1525 -0.0812  0.2279
14595TIP3    H165200   6.519   6.355   1.567 -0.9888  0.3417 -2.2317
14595TIP3    H265201   6.594   6.469   1.632 -1.6732 -0.9035  0.8559
14596TIP3   OH265202   4.559   4.748   2.573  0.0818  0.3282 -0.5058
14596TIP3    H165203   4.463   4.744   2.570  0.0318  1.0137  0.2150
14596TIP3    H265204   4.580   4.770   2.663  1.0840 -4.5069  0.5808
14597TIP3   OH265205   1.211   2.480   0.537 -0.1286  0.6411 -0.1340
14597TIP3    H165206   1.171   2.479   0.624  1.2893  0.1695  0.5223
14597TIP3    H265207   1.264   2.560   0.537  1.2727 -0.2718  0.0920
14598TIP3   OH265208   6.431   2.933   1.630  0.4212 -0.4071  0.3476
14598TIP3    H165209   6.419   2.886   1.548  1.4731  1.5401 -0.9601
14598TIP3    H265210   6.382   3.014   1.619  0.9910  0.1025  1.4444
14599TIP3   OH265211   0.847   5.613   3.129 -0.8475 -0.5789 -0.1448
14599TIP3    H165212   0.820   5.568   3.209 -0.1040 -0.0177  0.4310
14599TIP3    H265213   0.838   5.706   3.149  0.3777 -0.4042 -0.3257
14600TIP3   OH265214   3.977   1.193   4.238  0.7489  0.0983 -0.1201
14600TIP3    H165215   4.043   1.241   4.188 -1.6167  1.6383 -1.9123
14600TIP3    H265216   3.902   1.188   4.179 -0.2102 -2.9803  1.2810
14601TIP3   OH265217   1.272   6.193  16.925 -0.2729  0.1684  0.8679
14601TIP3    H165218   1.232   6.272  16.889 -0.9226  1.2360  3.8194
14601TIP3    H265219   1.328   6.224  16.996  1.1312 -1.8600  0.6935
14602TIP3   OH265220   2.408   3.745   6.546  0.2991 -0.3621  0.1478
14602TIP3    H165221   2.439   3.835   6.557  3.1271 -1.3848  1.0461
14602TIP3    H265222   2.317   3.755   6.518  0.9974  2.7922 -1.2926
14603TIP3   OH265223   3.455   4.022   3.662 -0.0430 -0.2933 -0.2433
14603TIP3    H165224   3.377   4.019   3.606  0.0410  0.6173 -0.4201
14603TIP3    H265225   3.528   4.019   3.600  0.0755 -1.3000 -0.0704
14604TIP3   OH265226   6.221   2.047   2.105  0.0585  0.1872 -0.0591
14604TIP3    H165227   6.261   2.000   2.032 -1.7230 -1.9299  0.2916
14604TIP3    H265228   6.272   2.128   2.112  2.5299 -1.2040 -1.3459
14605TIP3   OH265229   1.244   4.562   3.115  0.0043 -0.2115  0.4048
14605TIP3    H165230   1.315   4.604   3.067 -0.6353  0.4569  0.0445
14605TIP3    H265231   1.247   4.471   3.087  0.5365 -0.1259  0.1715
14606TIP3   OH265232   4.707   1.231   5.772  0.1305 -0.1533 -0.1050
14606TIP3    H165233   4.795   1.195   5.787  0.5282  0.4033 -1.0952
14606TIP3    H265234   4.722   1.319   5.737 -0.8041 -0.5044 -1.4334
14607TIP3   OH265235   0.502   2.135  10.314 -0.0241 -0.4179  0.3994
14607TIP3    H165236   0.449   2.201  10.358 -0.7021  0.1512 -1.2350
14607TIP3    H265237   0.571   2.185  10.270 -1.1386 -0.6684 -1.6963
14608TIP3   OH265238   1.747   0.933  12.370  0.0799  0.9249  0.3894
14608TIP3    H165239   1.767   0.855  12.422 -2.0826  0.3946  0.4841
14608TIP3    H265240   1.773   1.007  12.425  0.1185  0.3200  1.1857
14609TIP3   OH265241   3.821   2.331   5.065  0.0679 -0.6943  0.3396
14609TIP3    H165242   3.738   2.296   5.096 -0.4003  0.8352  0.8289
14609TIP3    H265243   3.806   2.425   5.054  1.4233 -0.5596 -0.5752
14610TIP3   OH265244   3.647   0.595   4.226  0.3539 -0.0054  0.5123
14610TIP3    H165245   3.577   0.656   4.201  1.4729  0.8245 -0.7102
14610TIP3    H265246   3.722   0.652   4.246  0.7960 -0.8977  1.3938
14611TIP3   OH265247   6.677   4.482  13.584 -0.0257  0.1069 -0.2081
14611TIP3    H165248   6.619   4.442  13.519 -1.2842  3.0644 -0.9949
14611TIP3    H265249   6.626   4.554  13.621  2.4493  1.5665  0.5079
14612TIP3   OH265250   6.115   6.228   3.600  0.5033  0.5799 -0.1692
14612TIP3    H165251   6.098   6.257   3.690  2.8702  1.2500  0.0983
14612TIP3    H265252   6.091   6.303   3.546 -1.7216 -0.1183 -0.1934
14613TIP3   OH265253   5.715   2.013   5.404  0.0340 -0.2544 -0.1628
14613TIP3    H165254   5.789   1.958   5.378 -0.1741 -1.0375  0.8791
14613TIP3    H265255   5.742   2.051   5.488  0.1591  1.2234 -0.8458
14614TIP3   OH265256   0.920   6.688   5.832 -0.6851 -0.2102  0.4406
14614TIP3    H165257   0.936   6.603   5.791 -0.0726 -0.4190  1.0827
14614TIP3    H265258   0.845   6.725   5.785  0.2305 -0.2716 -1.0940
14615TIP3   OH265259   2.351   0.084   5.402  0.1601 -0.6617 -1.0876
14615TIP3    H165260   2.318   0.042   5.482  0.2235 -0.9486 -1.2104
14615TIP3    H265261   2.338   0.178   5.417  1.3938 -0.6326 -0.2049
14616TIP3   OH265262   0.502   5.704   1.951 -0.3826 -0.1944 -0.2138
14616TIP3    H165263   0.540   5.628   1.995  0.2177  0.4014  0.2966
14616TIP3    H265264   0.452   5.749   2.019  0.1028  0.4331 -0.2738
14617TIP3   OH265265   1.145   3.417   5.955 -0.0792  0.1774  0.6818
14617TIP3    H165266   1.150   3.493   6.013 -2.3928  1.0513 -0.2014
14617TIP3    H265267   1.213   3.434   5.889  0.1110  0.9620  1.0665
14618TIP3   OH265268   3.620   1.488   0.346  0.0586  0.0647 -0.4059
14618TIP3    H165269   3.579   1.558   0.296 -1.3008  0.3212  1.0277
14618TIP3    H265270   3.653   1.531   0.425  1.1842 -0.5235 -0.5397
14619TIP3   OH265271   4.484   3.969  13.427  0.5153 -0.0433 -0.3481
14619TIP3    H165272   4.504   3.957  13.520  1.9177  0.6104 -0.5587
14619TIP3    H265273   4.453   3.883  13.398  0.9908 -0.5060  0.4885
14620TIP3   OH265274   2.652   3.894   5.363 -0.0902  0.2955 -0.1754
14620TIP3    H165275   2.695   3.821   5.318 -0.3292  1.2835 -2.0313
14620TIP3    H265276   2.723   3.939   5.409  0.1938 -0.5382  0.2290
14621TIP3   OH265277   0.980   1.466   4.603 -0.2876  0.2537  0.1323
14621TIP3    H165278   0.944   1.548   4.570 -1.3214 -0.8222 -1.4850
14621TIP3    H265279   0.981   1.477   4.698  3.3388  3.6972 -0.1513
14622TIP3   OH265280   6.476   0.788   4.189 -0.2418  0.3410  0.2201
14622TIP3    H165281   6.533   0.753   4.120  1.4170 -0.1848  1.8098
14622TIP3    H265282   6.482   0.723   4.259 -2.5528  0.4584  0.5444
14623TIP3   OH265283   0.897   5.461   3.787  0.0927 -0.1240  0.2877
14623TIP3    H165284   0.887   5.521   3.862  1.8765  0.4764  0.0774
14623TIP3    H265285   0.868   5.376   3.821  1.4861 -0.0013  1.8780
14624TIP3   OH265286   2.897   4.787   2.086 -0.0439  0.3287 -0.2694
14624TIP3    H165287   2.984   4.825   2.080 -0.1725  0.4146 -1.8160
14624TIP3    H265288   2.838   4.863   2.090  0.0561  0.2963  3.1452
14625TIP3   OH265289   1.579   0.774  11.976 -0.6337  0.0937 -0.1993
14625TIP3    H165290   1.508   0.812  12.028  0.0486  0.6643  0.3353
14625TIP3    H265291   1.603   0.694  12.022 -0.7772  0.0206 -0.2514
14626TIP3   OH265292   1.782   6.584   1.318  0.1420  0.6564 -0.1040
14626TIP3    H165293   1.699   6.537   1.325  0.0458  1.0832  1.9956
14626TIP3    H265294   1.840   6.524   1.271 -1.0584 -0.0282 -0.7424
14627TIP3   OH265295   5.175   5.475   1.060  0.0771  0.5990  0.2761
14627TIP3    H165296   5.159   5.434   1.146  0.9931  0.2166  0.2653
14627TIP3    H265297   5.115   5.430   1.001 -1.4963  1.7334  0.9376
14628TIP3   OH265298   2.192   5.685  14.835 -0.5439  0.0954 -1.0128
14628TIP3    H165299   2.113   5.630  14.830 -0.5322 -0.0938  0.5890
14628TIP3    H265300   2.238   5.667  14.753 -1.5055 -0.8075 -1.3783
14629TIP3   OH265301   2.858   5.219   3.905  0.0885 -0.3997 -0.6647
14629TIP3    H165302   2.938   5.268   3.888 -0.0183 -0.5742 -1.7110
14629TIP3    H265303   2.818   5.264   3.979 -0.2671  1.4566 -1.9218
14630TIP3   OH265304   2.942   1.903  14.772 -0.5637  0.1883 -1.2229
14630TIP3    H165305   2.875   1.851  14.727 -1.8732  0.7904 -0.0323
14630TIP3    H265306   2.892   1.955  14.835  0.9851  1.1010 -0.7371
14631TIP3   OH265307   2.546   6.151  10.613  0.4938 -0.2850  0.5510
14631TIP3    H165308   2.546   6.232  10.562 -2.2368 -0.0986  0.7517
14631TIP3    H265309   2.532   6.180  10.704  0.9130 -0.8932  0.8077
14632TIP3   OH265310   5.116   5.364   2.067 -0.4198 -0.1005 -0.7724
14632TIP3    H165311   5.038   5.335   2.022 -0.2337 -0.8000 -0.6439
14632TIP3    H265312   5.114   5.460   2.060 -1.1819 -0.1322 -0.9275
14633TIP3   OH265313   4.066   4.467   5.407  0.3909  0.3574  0.1794
14633TIP3    H165314   4.034   4.552   5.438  1.0638  0.6581  0.0560
14633TIP3    H265315   4.110   4.428   5.482  0.2458  0.1964  0.1819
14634TIP3   OH265316   3.676   1.998   0.961  0.3796 -0.0703  0.0682
14634TIP3    H165317   3.749   1.956   1.007 -0.3172 -0.7597  0.5590
14634TIP3    H265318   3.653   1.937   0.891 -0.1000 -0.1210  0.2687
14635TIP3   OH265319   5.424   0.468  14.260  0.2748  0.1231  0.3330
14635TIP3    H165320   5.452   0.446  14.171  1.7206  0.0994  0.7790
14635TIP3    H265321   5.476   0.411  14.316  1.7618  2.3784  1.3393
14636TIP3   OH265322   2.548   4.812   5.357  0.1698 -0.3112 -0.0826
14636TIP3    H165323   2.614   4.743   5.362  0.3184 -0.2964 -1.7221
14636TIP3    H265324   2.468   4.771   5.391  0.6650 -0.7777  0.5154
14637TIP3   OH265325   2.253   3.757  15.390  0.3404 -0.1846  0.2128
14637TIP3    H165326   2.312   3.831  15.399  2.0964 -1.3796 -1.1387
14637TIP3    H265327   2.256   3.734  15.296 -4.3491  1.4013 -0.4755
14638TIP3   OH265328   3.993   4.386   4.875 -0.7518  0.0318  0.2242
14638TIP3    H165329   3.957   4.375   4.963  1.9098  0.9432  1.4702
14638TIP3    H265330   4.025   4.477   4.874  0.6918 -0.4778 -1.1281
14639TIP3   OH265331   2.546   2.860   0.866  0.3203 -0.3621 -0.1004
14639TIP3    H165332   2.460   2.852   0.825  0.1948  0.7730 -0.0747
14639TIP3    H265333   2.608   2.836   0.798  0.0786  0.8385 -0.7582
14640TIP3   OH265334   5.955   1.635  13.363 -0.2142 -0.4985  0.2655
14640TIP3    H165335   6.028   1.579  13.336  1.2158  1.4664 -0.0332
14640TIP3    H265336   5.955   1.707  13.300 -1.8242  0.0064  0.8159
14641TIP3   OH265337   2.749   2.114  15.455 -0.2968 -0.0961 -0.5640
14641TIP3    H165338   2.809   2.066  15.512 -0.1018  0.5274 -0.2400
14641TIP3    H265339   2.721   2.049  15.390  1.0747 -0.2630 -0.9845
14642TIP3   OH265340   2.296   2.366  12.245  0.4375  0.4998  0.2129
14642TIP3    H165341   2.201   2.380  12.238  0.4387  0.9737  1.1010
14642TIP3    H265342   2.328   2.376  12.155 -0.2667  0.9583  0.0074
14643TIP3   OH265343   3.751   5.670  12.211 -0.0358  0.1653 -0.4056
14643TIP3    H165344   3.681   5.735  12.203  0.5606  0.4561 -3.9532
14643TIP3    H265345   3.829   5.721  12.233 -0.2514  0.2485  0.1641
14644TIP3   OH265346   1.764   4.224  14.812  0.9467  0.6341  0.4813
14644TIP3    H165347   1.755   4.149  14.871 -1.1064  2.4500  2.5657
14644TIP3    H265348   1.748   4.188  14.725 -0.0576 -1.3479  1.4542
14645TIP3   OH265349   1.456   3.526  14.699  0.3131  0.0750  0.5886
14645TIP3    H165350   1.453   3.494  14.609  1.0373 -0.0844  0.6188
14645TIP3    H265351   1.379   3.582  14.707 -0.2071 -0.5696  0.1200
14646TIP3   OH265352   3.913   1.214  13.063 -0.0314 -0.3564 -0.0243
14646TIP3    H165353   3.847   1.196  13.130 -0.3820  1.0414  0.0314
14646TIP3    H265354   3.961   1.132  13.053 -0.0168 -0.5887  1.8874
14647TIP3   OH265355   4.901   4.432  14.781 -0.1655 -0.2945 -0.1811
14647TIP3    H165356   4.867   4.469  14.700 -1.2258 -0.7075  0.0616
14647TIP3    H265357   4.869   4.490  14.850 -0.1092 -0.5009  0.0224
14648TIP3   OH265358   6.124   4.738  16.898  0.4286 -0.0027  0.2111
14648TIP3    H165359   6.149   4.827  16.926  0.1281 -0.0756  0.7288
14648TIP3    H265360   6.044   4.751  16.846  0.9205  0.1211 -0.5206
14649TIP3   OH265361   1.637   1.796   2.015  0.2090 -0.1281 -0.5719
14649TIP3    H165362   1.681   1.832   1.938  0.3114  0.4851 -0.2252
14649TIP3    H265363   1.682   1.713   2.030 -0.3629 -0.6592 -1.6701
14650TIP3   OH265364   6.408   0.054   3.649  0.2014 -0.2148  0.4929
14650TIP3    H165365   6.425  -0.039   3.638 -3.4356 -0.7276 -1.4094
14650TIP3    H265366   6.338   0.059   3.714  0.8015  1.2585  1.0667
14651TIP3   OH265367   0.644   5.792   1.723  0.3050  0.0975 -0.0352
14651TIP3    H165368   0.631   5.717   1.665 -0.0440  0.2804 -0.1949
14651TIP3    H265369   0.580   5.779   1.793 -2.2493  2.0514 -1.8707
14652TIP3   OH265370   5.236   3.582   2.774 -0.4477  0.6580 -0.2570
14652TIP3    H165371   5.314   3.529   2.758 -0.8656 -0.7620  2.1379
14652TIP3    H265372   5.266   3.648   2.838 -0.7900  1.1660 -0.6208
14653TIP3   OH265373   2.505   6.030   4.937  0.4719  0.2129  0.0525
14653TIP3    H165374   2.583   6.064   4.980  0.5057  1.5371 -1.0173
14653TIP3    H265375   2.532   6.013   4.847 -0.6615  1.4184 -0.5323
14654TIP3   OH265376   1.727   1.918  14.190 -0.0707 -0.3460  0.2899
14654TIP3    H165377   1.638   1.910  14.156  0.0751  0.3533 -0.2696
14654TIP3    H265378   1.784   1.894  14.117  0.2049 -0.6783  0.6107
14655TIP3   OH265379   0.300   2.995   1.520  0.1167  0.1736  0.4245
14655TIP3    H165380   0.355   2.999   1.599  2.4923 -2.3343 -1.0104
14655TIP3    H265381   0.321   3.076   1.473  2.8624 -0.8544 -0.2180
14656TIP3   OH265382   1.676   1.260   3.881  0.1620 -0.7591  0.1677
14656TIP3    H165383   1.708   1.302   3.961  0.2860 -1.7983  0.6715
14656TIP3    H265384   1.618   1.325   3.842 -0.5081 -0.5252  1.4998
14657TIP3   OH265385   5.958   0.655   2.748  0.0670  0.0436 -0.2261
14657TIP3    H165386   5.988   0.568   2.721  2.2134  1.0730 -1.3058
14657TIP3    H265387   5.892   0.678   2.683 -0.7327 -0.8761  0.2375
14658TIP3   OH265388   0.610   0.680   2.324  0.3529  0.3279 -0.1539
14658TIP3    H165389   0.622   0.622   2.249  0.4120 -0.4201  0.4199
14658TIP3    H265390   0.669   0.644   2.391 -1.6001 -0.5850  1.1220
14659TIP3   OH265391   0.212   6.470   2.901 -0.1190  0.0073  0.6206
14659TIP3    H165392   0.155   6.425   2.838  1.0148  0.9063 -1.0870
14659TIP3    H265393   0.287   6.499   2.849  0.9426  0.6062  2.4420
14660TIP3   OH265394   3.703   0.148   6.316  0.5599  0.2261 -0.2161
14660TIP3    H165395   3.716   0.231   6.269 -0.9811  0.3130 -0.5203
14660TIP3    H265396   3.740   0.164   6.402 -0.2321  1.4487 -0.0806
14661TIP3   OH265397   0.672   5.514  16.285 -0.1800 -0.4211  0.2038
14661TIP3    H165398   0.578   5.508  16.269 -0.3648 -0.2432  1.1687
14661TIP3    H265399   0.692   5.607  16.277 -0.5183 -0.1467  2.2205
14662TIP3   OH265400   1.660   5.594  15.432 -0.2410 -0.3717  0.7395
14662TIP3    H165401   1.749   5.560  15.436 -0.1994 -0.3798 -0.1071
14662TIP3    H265402   1.670   5.689  15.426 -0.2741 -0.3920  0.3214
14663TIP3   OH265403   2.561   6.477  11.861  0.1712  0.3189  0.0958
14663TIP3    H165404   2.626   6.511  11.800 -0.1280 -1.8266 -1.4787
14663TIP3    H265405   2.479   6.515  11.832  0.5118  2.0741  1.3472
14664TIP3   OH265406   0.360   3.555   0.008 -0.2036  0.0180  0.2252
14664TIP3    H165407   0.316   3.525   0.087 -0.1869  0.2995  0.3428
14664TIP3    H265408   0.407   3.634   0.035 -1.7604  1.2099 -0.4984
14665TIP3   OH265409   5.523   1.430   4.524 -0.4935  0.1353  0.1226
14665TIP3    H165410   5.492   1.390   4.443 -1.5530  1.8287 -0.3140
14665TIP3    H265411   5.616   1.405   4.529 -0.5817 -0.4984 -1.2752
14666TIP3   OH265412   4.123   1.992  15.113 -0.3009 -0.5059  0.4170
14666TIP3    H165413   4.090   1.962  15.198 -0.7916  1.9594  1.1455
14666TIP3    H265414   4.044   2.011  15.062 -0.0101 -0.0047  0.1492
14667TIP3   OH265415   6.555   5.287   5.776  0.0901 -0.2574 -0.3762
14667TIP3    H165416   6.487   5.343   5.740  0.0989 -1.3723 -2.1895
14667TIP3    H265417   6.538   5.287   5.870 -2.5214 -0.6210 -0.8043
14668TIP3   OH265418   3.310   3.925   1.931  0.3955  0.4935 -0.2239
14668TIP3    H165419   3.322   3.986   2.004 -0.3401  0.1943  0.1555
14668TIP3    H265420   3.292   3.841   1.973 -0.2896  0.3719 -0.7409
14669TIP3   OH265421   1.297   0.684  11.787  0.0622  0.5101 -0.3690
14669TIP3    H165422   1.302   0.591  11.805 -0.5350  0.4050 -0.7286
14669TIP3    H265423   1.378   0.703  11.738  0.0657  0.1297 -0.5138
14670TIP3   OH265424   1.966   1.070   1.351  0.4208 -0.3011  0.6207
14670TIP3    H165425   1.885   1.109   1.319  0.3583 -2.3069 -1.8027
14670TIP3    H265426   2.004   1.026   1.275  1.3070 -3.5008  2.7841
14671TIP3   OH265427   2.507   4.076   4.110  0.8248  0.8694  0.4224
14671TIP3    H165428   2.546   4.035   4.187  0.3346 -0.9105 -0.2642
14671TIP3    H265429   2.443   4.013   4.078 -0.3593  2.4085 -0.3394
14672TIP3   OH265430   2.357   0.840   5.829  0.0059  0.8849 -0.0837
14672TIP3    H165431   2.305   0.845   5.909 -2.1986  0.2313 -1.4345
14672TIP3    H265432   2.366   0.746   5.812 -2.9776  1.0268 -2.7421
14673TIP3   OH265433   5.468   0.114   2.828 -0.3561 -0.1424 -0.0996
14673TIP3    H165434   5.514   0.170   2.890 -0.0048 -0.6131  0.0750
14673TIP3    H265435   5.495   0.146   2.742  1.2338 -1.1429 -0.0004
14674TIP3   OH265436   1.423   1.341  12.672 -0.1846 -0.4291  0.4421
14674TIP3    H165437   1.415   1.418  12.616  0.3692 -0.7177 -0.0375
14674TIP3    H265438   1.479   1.369  12.745  1.3012 -0.8105 -0.5322
14675TIP3   OH265439   4.246   0.675   1.957  0.0661 -0.2274  0.2147
14675TIP3    H165440   4.209   0.622   1.886 -2.0363  1.8426 -0.2712
14675TIP3    H265441   4.235   0.620   2.035 -1.0086 -0.9890 -0.4524
14676TIP3   OH265442   0.443   5.147   2.591 -0.5281  0.2487  0.0632
14676TIP3    H165443   0.440   5.058   2.625 -0.2935  0.2157 -0.0019
14676TIP3    H265444   0.490   5.196   2.659 -1.1598  0.4438  0.3686
14677TIP3   OH265445   6.648   5.113   1.465  0.5927 -0.2029 -0.0602
14677TIP3    H165446   6.620   5.109   1.556 -2.2994  0.8438 -0.8626
14677TIP3    H265447   6.604   5.190   1.429 -2.2465 -3.2872 -3.6008
14678TIP3   OH265448   3.247   4.352  11.149  0.4013 -0.5717  0.3147
14678TIP3    H165449   3.277   4.274  11.102 -0.1115 -1.4993  1.5127
14678TIP3    H265450   3.303   4.357  11.226  0.4771  0.3027  0.2136
14679TIP3   OH265451   5.499   1.951  12.742  0.1853  0.2318  0.2558
14679TIP3    H165452   5.517   1.916  12.830 -1.3446  1.0681  0.9065
14679TIP3    H265453   5.416   1.911  12.716 -0.1899  1.2493 -0.1363
14680TIP3   OH265454   1.727   2.865  15.348  0.0950 -0.1563 -0.3434
14680TIP3    H165455   1.704   2.786  15.397 -1.2370  0.2001 -0.3678
14680TIP3    H265456   1.655   2.876  15.285  1.2278  0.0181 -1.6236
14681TIP3   OH265457   2.757   4.622   5.346 -0.1367  0.0990  0.0406
14681TIP3    H165458   2.739   4.563   5.273 -0.1886 -1.0104  0.9403
14681TIP3    H265459   2.829   4.677   5.315 -1.7188  1.2293 -1.7167
14682TIP3   OH265460   5.120   0.588   0.254  0.5840  0.1227 -0.3077
14682TIP3    H165461   5.124   0.660   0.191 -0.6728  0.7548  0.3178
14682TIP3    H265462   5.152   0.626   0.336 -1.2300  0.3350  0.3275
14683TIP3   OH265463   6.784   3.839   5.237 -0.2972 -0.4156 -0.4987
14683TIP3    H165464   6.697   3.804   5.218 -1.0160 -0.2977  2.2808
14683TIP3    H265465   6.841   3.799   5.172 -2.2550 -1.3167 -1.7146
14684TIP3   OH265466   5.430   4.079   2.990  0.4469  0.5653 -0.0179
14684TIP3    H165467   5.409   4.156   3.043 -3.4246  0.7944 -1.6676
14684TIP3    H265468   5.461   4.116   2.907 -1.0585  0.3801 -0.6775
14685TIP3   OH265469   2.527   0.817  14.705  0.0302  0.0571  0.5147
14685TIP3    H165470   2.568   0.847  14.787  0.9220  1.0907 -0.2980
14685TIP3    H265471   2.587   0.845  14.636 -1.2331  0.1234 -0.5844
14686TIP3   OH265472   0.409   0.540  10.387  0.0658 -0.6061 -0.1127
14686TIP3    H165473   0.327   0.495  10.363  0.3368 -1.4849  0.6001
14686TIP3    H265474   0.474   0.470  10.389  0.4383 -0.2214  1.2620
14687TIP3   OH265475   5.810   4.886   4.158  0.0822  0.2242 -0.1183
14687TIP3    H165476   5.785   4.797   4.182  0.8075  0.3538  1.2058
14687TIP3    H265477   5.767   4.941   4.224  0.5605  0.7626 -0.2551
14688TIP3   OH265478   3.810   2.597   6.482  0.7306  0.1411  0.3103
14688TIP3    H165479   3.841   2.685   6.504  1.7975 -0.2873  0.5595
14688TIP3    H265480   3.882   2.558   6.433  0.3139 -0.6433  0.3157
14689TIP3   OH265481   3.288   3.242   0.939 -0.0474 -0.4367 -0.0106
14689TIP3    H165482   3.317   3.256   0.849 -3.1632  0.4946 -0.9261
14689TIP3    H265483   3.295   3.148   0.953  2.4643 -0.3508 -0.4736
14690TIP3   OH265484   3.732   1.446   5.137  0.5996 -0.3388 -0.0680
14690TIP3    H165485   3.768   1.410   5.057 -1.1900 -0.6417 -0.7651
14690TIP3    H265486   3.794   1.513   5.164  1.3424 -0.4126 -1.5624
14691TIP3   OH265487   4.420   4.615   3.829 -0.4557 -0.2811 -0.2204
14691TIP3    H165488   4.403   4.706   3.854 -1.1438 -0.1341 -1.1986
14691TIP3    H265489   4.390   4.609   3.738  0.1057 -1.3402 -0.3430
14692TIP3   OH265490   1.406   1.843  16.681  0.3523 -0.4069 -0.2685
14692TIP3    H165491   1.432   1.918  16.733  1.1755  0.9618 -2.5619
14692TIP3    H265492   1.488   1.805  16.650 -0.0179 -2.7531  1.5127
14693TIP3   OH265493   4.161   6.140  16.469 -0.4874 -0.6180 -0.0105
14693TIP3    H165494   4.133   6.203  16.403  1.7469 -0.1681 -0.5938
14693TIP3    H265495   4.141   6.055  16.430  0.1104 -0.3368 -0.9805
14694TIP3   OH265496   1.896   3.289  13.077 -0.1766 -0.2100  0.0257
14694TIP3    H165497   1.819   3.282  13.021 -0.0482 -1.0610 -0.0509
14694TIP3    H265498   1.970   3.287  13.016 -0.0499 -0.7494  0.1998
14695TIP3   OH265499   4.049   4.071   4.897  0.0903 -0.0563  0.0688
14695TIP3    H165500   4.125   4.030   4.856 -0.4105 -1.2248  0.2834
14695TIP3    H265501   4.086   4.123   4.969  0.6034 -1.5987  0.9462
14696TIP3   OH265502   2.549   0.506  12.718 -0.1736 -0.3271  0.3398
14696TIP3    H165503   2.502   0.438  12.766 -0.8137 -0.5727 -0.6316
14696TIP3    H265504   2.627   0.523  12.771 -0.7751 -0.7320  1.3680
14697TIP3   OH265505   1.212   6.174   5.183 -0.5409  0.0378 -0.6595
14697TIP3    H165506   1.198   6.080   5.199  0.8442 -0.2030 -0.7737
14697TIP3    H265507   1.127   6.206   5.154 -1.0164 -1.2018 -0.6870
14698TIP3   OH265508   3.751   1.109   3.115  0.1050  0.1408  0.0266
14698TIP3    H165509   3.664   1.098   3.154  0.4898 -0.0450  0.8458
14698TIP3    H265510   3.770   1.023   3.077  0.3226 -0.0970  0.6645
14699TIP3   OH265511   5.183   4.008   4.473  0.1373 -0.0291 -0.2081
14699TIP3    H165512   5.088   4.001   4.480  0.0461 -1.7917 -2.5757
14699TIP3    H265513   5.199   4.059   4.394  1.1637 -1.0322 -0.6668
14700TIP3   OH265514   4.912   6.196   0.880 -0.3380 -0.2198  0.2406
14700TIP3    H165515   4.950   6.139   0.947 -1.5827 -2.4413 -0.8997
14700TIP3    H265516   4.976   6.266   0.869  0.8370 -0.9354  2.2723
14701TIP3   OH265517   5.657   3.024   1.796 -0.1499 -0.0790 -0.4375
14701TIP3    H165518   5.563   3.014   1.778  0.1018 -0.3119 -1.7145
14701TIP3    H265519   5.698   2.952   1.747  0.8725  1.3376 -1.7085
14702TIP3   OH265520   0.305   6.186   0.202  0.0171  0.5165  0.0814
14702TIP3    H165521   0.315   6.182   0.297 -0.1827  1.7184  0.1565
14702TIP3    H265522   0.342   6.271   0.178  3.4030 -1.2577 -1.3367
14703TIP3   OH265523   1.279   0.356   6.401 -0.4798  0.6881  0.1589
14703TIP3    H165524   1.206   0.394   6.450 -0.0510  0.0546  1.2972
14703TIP3    H265525   1.298   0.274   6.445 -0.0926  0.1008 -1.0853
14704TIP3   OH265526   3.927   2.868   3.629  0.3221  0.7193 -0.1743
14704TIP3    H165527   4.020   2.847   3.643  0.5526  1.6322 -0.2991
14704TIP3    H265528   3.882   2.824   3.702  1.1769  2.7619  1.6546
14705TIP3   OH265529   4.650   5.691   1.659  0.0572 -0.2852  0.4991
14705TIP3    H165530   4.667   5.692   1.564  1.6346  0.6955  0.7700
14705TIP3    H265531   4.568   5.738   1.670 -1.7767 -3.1094 -0.6671
14706TIP3   OH265532   6.528   6.305  13.546  0.2424  0.2637 -0.0820
14706TIP3    H165533   6.476   6.239  13.501  1.0531  0.6322 -1.6065
14706TIP3    H265534   6.531   6.379  13.485 -0.9428  1.8443  1.7499
14707TIP3   OH265535   3.424   3.770   3.394  0.0348 -0.7104 -0.6951
14707TIP3    H165536   3.372   3.711   3.448  0.2346 -2.3487 -2.2510
14707TIP3    H265537   3.385   3.856   3.409 -0.7989 -1.3552  0.9478
14708TIP3   OH265538   1.453   0.747   2.569  0.0025 -0.9427  0.1853
14708TIP3    H165539   1.445   0.652   2.574 -0.7239 -0.9331 -0.5727
14708TIP3    H265540   1.399   0.779   2.641 -1.6068 -1.0638 -0.9230
14709TIP3   OH265541   4.290   4.307   3.031  0.3200  0.3777 -0.4891
14709TIP3    H165542   4.330   4.345   3.109  2.1417 -0.4909 -0.9591
14709TIP3    H265543   4.225   4.246   3.065  1.0922  0.0123  0.3773
14710TIP3   OH265544   5.477   5.170  15.941 -0.2456 -0.6976  0.6520
14710TIP3    H165545   5.550   5.129  15.895 -0.2370 -0.3438  0.3511
14710TIP3    H265546   5.452   5.106  16.008 -0.9661 -1.6926 -0.5531
14711TIP3   OH265547   6.726   3.668  13.586 -0.5988  0.0533 -0.5824
14711TIP3    H165548   6.797   3.689  13.526 -1.4003  0.4371 -1.4200
14711TIP3    H265549   6.758   3.594  13.637  0.0266 -0.4041 -1.6279
14712TIP3   OH265550   3.826   2.932  15.547 -0.0298  0.1016 -0.2162
14712TIP3    H165551   3.880   2.905  15.621  0.1453  2.9878  0.7634
14712TIP3    H265552   3.886   2.978  15.488 -0.7976  0.6665 -0.5724
14713TIP3   OH265553   4.660   0.763  10.833 -0.1946  0.0131 -0.2542
14713TIP3    H165554   4.657   0.857  10.850 -0.8986 -0.2493  1.1610
14713TIP3    H265555   4.608   0.724  10.904 -1.7960 -1.2682 -2.0916
14714TIP3   OH265556   1.606   0.876   2.178  0.2809 -0.0707 -0.5044
14714TIP3    H165557   1.655   0.872   2.096 -0.2591  0.5230 -0.8578
14714TIP3    H265558   1.591   0.970   2.192 -1.8615 -0.3260 -1.0463
14715TIP3   OH265559   5.186   5.897  10.946 -0.3158 -0.2112  0.5611
14715TIP3    H165560   5.196   5.882  11.040 -0.6067  0.0462  0.6349
14715TIP3    H265561   5.133   5.977  10.940 -0.6922 -0.4891  0.1789
14716TIP3   OH265562   3.527   5.645  11.968  0.1363  0.1552  0.6073
14716TIP3    H165563   3.549   5.729  11.929 -0.0541 -0.4816 -0.9330
14716TIP3    H265564   3.435   5.653  11.995 -0.5451 -0.2190 -1.4707
14717TIP3   OH265565   5.860   1.302  11.225  0.1447 -0.2831  0.2849
14717TIP3    H165566   5.790   1.281  11.287  0.8083  0.9247  1.4810
14717TIP3    H265567   5.872   1.396  11.233  1.1877 -0.3173 -0.6765
14718TIP3   OH265568   1.176   1.556  16.144 -0.1583 -0.0828  0.1442
14718TIP3    H165569   1.174   1.633  16.087 -1.9185 -1.0403 -1.1471
14718TIP3    H265570   1.257   1.511  16.121  0.3704  0.8383  0.1827
14719TIP3   OH265571   2.957   4.805  15.462 -0.0361  0.3572  0.2707
14719TIP3    H165572   2.882   4.745  15.466 -2.6190  3.5530  1.4443
14719TIP3    H265573   2.927   4.879  15.409  2.9560  0.8686 -0.8044
14720TIP3   OH265574   0.873   1.838   2.231 -0.3407  0.1588  0.0501
14720TIP3    H165575   0.787   1.800   2.214 -0.6573  0.8857 -0.0153
14720TIP3    H265576   0.920   1.772   2.281 -1.6713  0.6113  1.9104
14721TIP3   OH265577   2.498   5.153   2.802  0.1368  0.6066  0.2240
14721TIP3    H165578   2.570   5.146   2.864  0.8712 -1.8609 -0.8575
14721TIP3    H265579   2.537   5.193   2.724 -0.0412  0.6865  0.1756
14722TIP3   OH265580   6.534   1.687  13.063  0.1320  0.6690  0.0498
14722TIP3    H165581   6.565   1.597  13.068 -1.0563  0.3112  1.1754
14722TIP3    H265582   6.545   1.712  12.971  1.1569 -0.3647 -0.1124
14723TIP3   OH265583   4.524   4.828  11.309  0.4291 -0.3222  0.1037
14723TIP3    H165584   4.567   4.896  11.257 -0.2832  0.4398  0.4970
14723TIP3    H265585   4.456   4.792  11.252 -0.5667  0.7373  0.6038
14724TIP3   OH265586   4.901   5.936   4.377  0.2345  0.2696 -0.4378
14724TIP3    H165587   4.859   5.874   4.438  0.7490 -0.1473 -0.4963
14724TIP3    H265588   4.850   5.929   4.297  0.5851 -0.4488 -0.6035
14725TIP3   OH265589   3.696   5.471   4.270  0.1227 -0.4787 -0.0551
14725TIP3    H165590   3.644   5.461   4.350  0.7273  0.2616  0.4389
14725TIP3    H265591   3.777   5.514   4.299  0.0634  0.4087 -1.1728
14726TIP3   OH265592   0.744   0.883   5.653 -0.6322 -0.9217 -0.6181
14726TIP3    H165593   0.798   0.953   5.688  0.3679  0.1424 -4.1363
14726TIP3    H265594   0.791   0.802   5.676  1.2388 -0.1258 -1.5660
14727TIP3   OH265595   5.897   4.109   3.721  0.1573 -0.1207  0.3319
14727TIP3    H165596   5.923   4.130   3.631  0.4130 -1.1999  0.1422
14727TIP3    H265597   5.844   4.183   3.748 -0.3646 -0.0202 -0.9034
14728TIP3   OH265598   4.062   2.696   4.704  0.1116  0.4075 -0.9242
14728TIP3    H165599   4.123   2.767   4.688 -0.4969  0.2719 -4.1145
14728TIP3    H265600   4.114   2.628   4.746  1.7142  1.0108 -1.9267
14729TIP3   OH265601   3.040   5.296   0.752  0.1314 -0.2819 -0.2073
14729TIP3    H165602   3.085   5.352   0.816 -0.5196 -0.1459  0.1349
14729TIP3    H265603   2.992   5.233   0.806  0.0244 -0.5139 -0.5762
14730TIP3   OH265604   0.551   2.362   4.772 -0.3711  0.4905 -0.1738
14730TIP3    H165605   0.503   2.391   4.850 -1.5418  0.7766 -0.9887
14730TIP3    H265606   0.643   2.378   4.793 -0.7988  2.2339  0.4603
14731TIP3   OH265607   1.550   4.103  12.166  0.7834 -0.1538 -0.7334
14731TIP3    H165608   1.635   4.060  12.170  1.3820  1.1778  2.5213
14731TIP3    H265609   1.487   4.030  12.167  1.8448 -1.0821 -0.1039
14732TIP3   OH265610   1.317   6.638  14.243  0.4488 -0.1566 -0.1318
14732TIP3    H165611   1.245   6.655  14.183  0.1075  0.1154  0.3507
14732TIP3    H265612   1.386   6.601  14.188 -0.3410 -1.1681 -0.4567
14733TIP3   OH265613   4.654   4.448   5.332 -0.1130  0.1542  0.2725
14733TIP3    H165614   4.622   4.370   5.377 -1.2290 -0.5651 -1.6834
14733TIP3    H265615   4.648   4.518   5.397 -0.1223 -1.1771  1.7199
14734TIP3   OH265616   6.437   0.372  11.972 -0.3921  0.1057  0.4031
14734TIP3    H165617   6.349   0.357  11.936  0.0922  0.1234 -0.8220
14734TIP3    H265618   6.493   0.376  11.895  0.6158  0.5793  1.1610
14735TIP3   OH265619   6.345   0.795   2.261  0.1797  0.4058 -0.2599
14735TIP3    H165620   6.293   0.762   2.334  0.4310 -2.4702 -1.3121
14735TIP3    H265621   6.436   0.779   2.287  0.2531 -1.1722 -1.3782
14736TIP3   OH265622   4.264   2.359   5.330  1.2024 -0.1151 -0.0131
14736TIP3    H165623   4.359   2.356   5.319  1.0495 -2.2860 -0.9185
14736TIP3    H265624   4.249   2.328   5.419  1.2070 -2.1411 -0.7030
14737TIP3   OH265625   4.377   5.557  13.567  0.3270  0.2252  0.0529
14737TIP3    H165626   4.438   5.620  13.528  0.4252  0.3589  0.4182
14737TIP3    H265627   4.291   5.582  13.533  0.4339  0.2341 -0.2137
14738TIP3   OH265628   1.034   4.865  10.864 -0.7586  0.0545 -0.2602
14738TIP3    H165629   1.089   4.800  10.819 -0.1763  0.5042 -0.2047
14738TIP3    H265630   1.085   4.946  10.860 -1.4783  0.5095 -0.3239
14739TIP3   OH265631   5.149   3.334   2.103  0.2025 -1.1237  0.4561
14739TIP3    H165632   5.229   3.332   2.154 -0.2356  0.3529  1.2507
14739TIP3    H265633   5.163   3.404   2.039 -1.2308  0.6339  1.9911
14740TIP3   OH265634   4.505   4.746   3.146  0.4402  0.1995  0.1543
14740TIP3    H165635   4.512   4.834   3.185  1.0332  0.3798 -0.3666
14740TIP3    H265636   4.594   4.713   3.144  0.3406 -0.0262 -0.5689
14741TIP3   OH265637   0.750   3.303   5.613  0.2058  0.2740  0.0053
14741TIP3    H165638   0.688   3.239   5.646 -0.4761  1.4171  0.9979
14741TIP3    H265639   0.802   3.328   5.690  2.1182 -0.8942 -0.8595
14742TIP3   OH265640   3.628   6.416   5.921 -1.1061 -0.4070 -0.7649
14742TIP3    H165641   3.611   6.489   5.861 -0.9771  0.7704  0.5978
14742TIP3    H265642   3.573   6.434   5.997 -0.8685 -1.6035 -0.2924
14743TIP3   OH265643   6.618   1.525  17.006 -0.0162  0.2374 -0.0390
14743TIP3    H165644   6.690   1.501  17.064  0.7257  0.2159 -0.9577
14743TIP3    H265645   6.545   1.543  17.065  1.3098  2.3049  1.0564
14744TIP3   OH265646   4.724   4.120   2.831 -0.1552  0.1080 -0.0599
14744TIP3    H165647   4.642   4.162   2.804 -0.1041  0.3616  0.1761
14744TIP3    H265648   4.775   4.112   2.751 -1.2567 -1.9549 -0.6014
14745TIP3   OH265649   5.169   5.930   4.311  0.8075  0.1453 -0.3370
14745TIP3    H165650   5.160   6.025   4.316  0.2751  0.1538 -1.3397
14745TIP3    H265651   5.082   5.896   4.331  1.4043 -0.2161  1.8080
14746TIP3   OH265652   3.428   6.560   3.933 -0.2645 -0.7623 -0.2013
14746TIP3    H165653   3.365   6.604   3.991  1.6124  0.5211  0.8927
14746TIP3    H265654   3.414   6.466   3.950 -0.2694 -0.4177  1.7972
14747TIP3   OH265655   6.465   0.276   3.481  0.3456  0.2643 -0.1950
14747TIP3    H165656   6.559   0.275   3.502  0.6767  0.6791 -1.6718
14747TIP3    H265657   6.429   0.205   3.535  1.2905  0.8932  1.3101
14748TIP3   OH265658   5.654   3.060  15.186 -0.9809 -0.0813  0.4382
14748TIP3    H165659   5.679   2.968  15.194 -2.4328 -0.6084 -0.8302
14748TIP3    H265660   5.710   3.094  15.116  0.3593  0.3182  1.6830
14749TIP3   OH265661   6.152   6.236  14.633  0.5329 -0.1639 -0.3518
14749TIP3    H165662   6.218   6.302  14.656  1.1109 -1.0497  0.5460
14749TIP3    H265663   6.076   6.258  14.688  1.4003 -1.3964  1.3598
14750TIP3   OH265664   5.872   6.101  17.142  0.3937  0.0762 -0.0608
14750TIP3    H165665   5.822   6.026  17.175 -0.3195  0.7640  0.4570
14750TIP3    H265666   5.867   6.093  17.047 -0.5260  0.0168 -0.0111
14751TIP3   OH265667   0.966   1.579  14.834  0.0931  0.0313  0.0790
14751TIP3    H165668   0.920   1.580  14.919 -0.2174  2.6247 -0.0737
14751TIP3    H265669   1.045   1.632  14.849  0.9446 -0.9791 -0.7796
14752TIP3   OH265670   5.473   2.218  12.007 -0.0156 -0.5302 -0.7776
14752TIP3    H165671   5.437   2.173  12.083  2.3591  1.1769  1.4400
14752TIP3    H265672   5.397   2.237  11.952 -1.8732 -1.2395  1.4552
14753TIP3   OH265673   2.297   1.092   4.354  0.0059 -0.5026 -0.4975
14753TIP3    H165674   2.323   1.038   4.279 -0.5640 -1.2225 -0.1819
14753TIP3    H265675   2.241   1.035   4.406 -0.1836  0.2343  0.1094
14754TIP3   OH265676   2.894   2.615  16.080  0.1828 -0.3782 -0.2795
14754TIP3    H165677   2.805   2.650  16.082  0.0733 -0.6978  0.4764
14754TIP3    H265678   2.939   2.659  16.153  0.5019 -0.6074 -0.3352
14755TIP3   OH265679   3.353   0.228   2.110  0.8088 -0.3819  0.6278
14755TIP3    H165680   3.402   0.284   2.171  0.4045  0.6609  0.0058
14755TIP3    H265681   3.261   0.243   2.133  0.7196 -1.2441  0.8465
14756TIP3   OH265682   3.646   0.718   4.836  0.1220 -0.1367  0.6143
14756TIP3    H165683   3.647   0.634   4.790  1.7502  0.3799 -0.3197
14756TIP3    H265684   3.580   0.769   4.789  3.6742  1.3567 -3.0398
14757TIP3   OH265685   1.056   4.110  15.707  0.3976 -0.2422 -0.1034
14757TIP3    H165686   0.996   4.108  15.782  0.8329  1.8681  0.3231
14757TIP3    H265687   1.012   4.057  15.640  0.1810 -2.4612  1.7389
14758TIP3   OH265688   3.996   2.656   0.118  0.0511 -0.3520 -0.5943
14758TIP3    H165689   4.043   2.682   0.039 -0.8194  1.5155 -0.5367
14758TIP3    H265690   4.021   2.565   0.132 -1.2882 -1.3790 -4.1447
14759TIP3   OH265691   5.020   3.381   1.059  0.5259 -0.5188 -0.3961
14759TIP3    H165692   5.056   3.300   1.097 -0.0568 -0.4246  0.3487
14759TIP3    H265693   5.069   3.451   1.102 -0.1662 -0.4107  0.2178
14760TIP3   OH265694   5.724   6.444  13.906 -0.1299 -0.2982 -0.4199
14760TIP3    H165695   5.698   6.397  13.826 -1.2355 -1.2266  0.4713
14760TIP3    H265696   5.642   6.476  13.943  0.5227  1.5147 -0.4802
14761TIP3   OH265697   1.387   3.024  13.756  0.3194  0.0876 -0.0437
14761TIP3    H165698   1.391   2.931  13.781  1.1383  0.4576  1.2046
14761TIP3    H265699   1.415   3.025  13.664  0.2063 -0.9155 -0.0954
14762TIP3   OH265700   4.222   2.547  16.913 -0.0889  0.1309  0.1633
14762TIP3    H165701   4.151   2.531  16.850  0.2583  1.2068 -0.5140
14762TIP3    H265702   4.186   2.614  16.972 -0.4414 -0.9262  1.1645
14763TIP3   OH265703   3.858   0.033  13.946  0.5863  0.0520 -0.4726
14763TIP3    H165704   3.930   0.096  13.953  0.1598  0.8728 -2.7930
14763TIP3    H265705   3.787   0.072  13.997  1.1741  0.2008  0.2217
14764TIP3   OH265706   1.739   6.314  15.880  0.0744  0.0817 -0.3598
14764TIP3    H165707   1.833   6.329  15.870 -0.1075  0.6490 -1.3076
14764TIP3    H265708   1.700   6.401  15.879 -0.3021 -0.0394  1.9555
14765TIP3   OH265709   4.321   2.295   2.638  0.4875 -0.4266 -0.1070
14765TIP3    H165710   4.383   2.333   2.576  2.8865 -2.1147  1.1741
14765TIP3    H265711   4.265   2.239   2.583 -0.9010  2.2278 -1.4806
14766TIP3   OH265712   1.722   5.205  12.670 -0.1243 -0.2256 -0.8714
14766TIP3    H165713   1.710   5.192  12.764 -2.0315  1.2010 -0.9049
14766TIP3    H265714   1.638   5.178  12.631  0.4686 -0.3034 -2.1281
14767TIP3   OH265715   3.533   2.981   3.787 -0.7470 -0.0116 -0.1237
14767TIP3    H165716   3.479   2.937   3.721  3.7637 -1.2795 -3.2025
14767TIP3    H265717   3.569   3.057   3.741 -0.7795  1.4573  2.2019
14768TIP3   OH265718   0.581   6.337  12.360  0.6686 -0.1174  0.3345
14768TIP3    H165719   0.521   6.304  12.292 -1.4702  3.7893  0.1731
14768TIP3    H265720   0.558   6.288  12.438 -1.3940 -0.1114 -0.2429
14769TIP3   OH265721   5.046   2.121   3.612  0.2935  0.1059  0.6433
14769TIP3    H165722   5.086   2.189   3.557  0.0484 -0.6258 -0.4470
14769TIP3    H265723   5.006   2.060   3.550  0.7181 -1.1726  1.5953
14770TIP3   OH265724   6.706   1.561   0.277  0.0271 -0.0530  0.2433
14770TIP3    H165725   6.661   1.531   0.198 -1.1252 -0.6488  1.1012
14770TIP3    H265726   6.702   1.486   0.336 -1.4579  1.2268  1.8333
14771TIP3   OH265727   0.490   2.081   1.462 -0.5440  0.1191 -0.1993
14771TIP3    H165728   0.450   2.153   1.512  0.0690  1.7973 -2.0891
14771TIP3    H265729   0.583   2.086   1.484 -0.2715  0.8629 -1.4578
14772TIP3   OH265730   4.422   5.383   0.022  0.1557  0.0856  0.4890
14772TIP3    H165731   4.342   5.423   0.054 -1.2545 -2.6652  0.5652
14772TIP3    H265732   4.405   5.366  -0.071 -0.7593 -3.6322  1.2539
14773TIP3   OH265733   2.594   6.327   1.576 -0.3013  0.0521  0.1485
14773TIP3    H165734   2.512   6.278   1.583 -0.4378  0.4385  1.5716
14773TIP3    H265735   2.632   6.322   1.664  2.3544 -2.0775 -1.0527
14774TIP3   OH265736   3.187   1.511   4.281  0.0867 -0.0769 -0.0237
14774TIP3    H165737   3.121   1.571   4.247  0.2782  0.6537  0.8899
14774TIP3    H265738   3.136   1.443   4.326 -0.0531  0.4567  0.6341
14775TIP3   OH265739   0.553   4.294   4.293  0.0370 -0.1851  0.1445
14775TIP3    H165740   0.504   4.232   4.347 -1.2554 -0.8668 -1.7478
14775TIP3    H265741   0.624   4.242   4.255  0.1699 -0.0152  0.1594
14776TIP3   OH265742   2.902   3.105   6.909  0.3362 -0.5571  0.1473
14776TIP3    H165743   2.872   3.022   6.870 -0.3125  0.4722 -1.5641
14776TIP3    H265744   2.959   3.144   6.843  0.5069  0.4479  0.8856
14777TIP3   OH265745   3.756   5.775   0.679 -0.1440 -0.0782  0.1750
14777TIP3    H165746   3.717   5.704   0.629 -0.4372 -0.5096  0.9935
14777TIP3    H265747   3.683   5.813   0.729  0.6328 -1.5990  2.5495
14778TIP3   OH265748   2.252   4.654  12.201 -0.5023 -0.2430 -0.0945
14778TIP3    H165749   2.234   4.655  12.107  0.1945  0.8718 -0.2294
14778TIP3    H265750   2.310   4.579  12.214  0.7721  0.5845 -0.8357
14779TIP3   OH265751   0.122   2.316   4.376  0.0996 -0.2000 -0.3592
14779TIP3    H165752   0.155   2.298   4.464  0.9336 -1.6730 -0.9486
14779TIP3    H265753   0.141   2.408   4.361 -1.2549  0.4168  1.5064
14780TIP3   OH265754   5.493   2.900  16.588  0.4880 -0.3448 -0.1126
14780TIP3    H165755   5.428   2.833  16.567  0.4313 -0.1324 -0.6354
14780TIP3    H265756   5.486   2.962  16.516 -0.9105  1.3184  1.4176
14781TIP3   OH265757   5.958   3.107   3.958 -0.0875  0.3112 -0.2572
14781TIP3    H165758   5.969   3.089   4.051  1.7801  1.3681 -0.2522
14781TIP3    H265759   5.977   3.201   3.949  0.3446  0.0921 -1.7780
14782TIP3   OH265760   5.345   4.303  12.537  0.2631  0.2704 -0.4252
14782TIP3    H165761   5.440   4.309  12.548  0.1493  0.1003  0.6577
14782TIP3    H265762   5.310   4.379  12.583 -0.0419  1.1673 -2.1031
14783TIP3   OH265763   3.483   6.113  15.668 -0.1988 -0.1336  0.4532
14783TIP3    H165764   3.451   6.076  15.586 -0.7115 -0.8685  0.9724
14783TIP3    H265765   3.543   6.183  15.642 -0.9868  0.1802 -0.5440
14784TIP3   OH265766   4.322   4.499  16.808 -0.2506  0.3907 -0.0533
14784TIP3    H165767   4.385   4.566  16.834 -0.7103 -0.4081  3.3445
14784TIP3    H265768   4.351   4.470  16.722  3.1988  1.0772  0.8232
14785TIP3   OH265769   2.682   4.100   3.341  0.3193 -0.4392  0.4242
14785TIP3    H165770   2.666   4.047   3.263  1.3436 -1.5754  0.9687
14785TIP3    H265771   2.775   4.122   3.335 -0.4596  2.8354 -0.7216
14786TIP3   OH265772   2.910   4.869   0.982  0.2639  0.3614  0.1019
14786TIP3    H165773   2.942   4.793   1.029 -1.0041  0.1765  0.7063
14786TIP3    H265774   2.903   4.937   1.049  0.4162  0.6996 -0.2248
14787TIP3   OH265775   4.351   4.657  11.144  0.0842 -0.0296  1.0721
14787TIP3    H165776   4.381   4.572  11.178  0.2590 -0.8380 -0.9990
14787TIP3    H265777   4.269   4.637  11.100  0.4406  0.7581  0.0310
14788TIP3   OH265778   3.555   5.319   5.095  0.0187 -0.4611 -0.4542
14788TIP3    H165779   3.462   5.323   5.074 -0.1567 -0.5498  0.2847
14788TIP3    H265780   3.562   5.248   5.160  0.4546  0.1994  0.2263
14789TIP3   OH265781   2.685   0.044   4.548  0.0613  0.0599 -0.2142
14789TIP3    H165782   2.778   0.028   4.565  0.3134  0.9616 -0.7203
14789TIP3    H265783   2.667   0.128   4.590 -0.6744 -0.4032  0.4044
14790TIP3   OH265784   1.168   2.363  13.017 -0.0697  0.3424 -0.1857
14790TIP3    H165785   1.181   2.308  12.939  2.0994 -0.6816  0.8386
14790TIP3    H265786   1.214   2.317  13.087 -1.5779  1.4898  1.6199
14791TIP3   OH265787   5.915   6.347   5.422  0.5205  0.0316  0.1761
14791TIP3    H165788   5.906   6.356   5.328  2.1255 -1.3137 -0.1463
14791TIP3    H265789   5.855   6.277   5.446 -0.1214  0.5909  0.2082
14792TIP3   OH265790   3.997   3.591  16.955 -0.2296  0.5524 -0.0808
14792TIP3    H165791   4.038   3.677  16.965  1.4136 -0.1119 -0.8372
14792TIP3    H265792   3.965   3.569  17.042  0.9529  1.1474  0.5249
14793TIP3   OH265793   3.351   0.430   1.176  0.5073  0.2235 -0.0787
14793TIP3    H165794   3.322   0.431   1.267 -0.1681  0.3590 -0.2928
14793TIP3    H265795   3.294   0.493   1.132  0.7493  0.0688 -0.6144
14794TIP3   OH265796   0.998   5.814   4.768  0.1383  0.2261  0.0241
14794TIP3    H165797   0.917   5.822   4.719 -1.5468  0.7099  2.7767
14794TIP3    H265798   1.022   5.904   4.790  0.4001 -0.0245  0.7882
14795TIP3   OH265799   4.912   5.653  11.107  0.0653 -0.0843  0.0202
14795TIP3    H165800   4.893   5.559  11.107 -4.3314  0.6644 -0.4533
14795TIP3    H265801   4.923   5.675  11.015  0.6741 -0.0630  0.0990
14796TIP3   OH265802   6.242   1.287  12.743 -0.4957 -0.5526 -0.1309
14796TIP3    H165803   6.278   1.199  12.744 -1.6983 -1.1075 -2.3860
14796TIP3    H265804   6.148   1.275  12.754 -0.5601  0.5337  0.6437
14797TIP3   OH265805   5.961   6.584   3.020  0.1306 -0.2397 -0.3296
14797TIP3    H165806   5.915   6.511   3.062 -1.1853 -0.1430 -1.5950
14797TIP3    H265807   5.949   6.657   3.080  0.8155 -0.8465  0.5761
14798TIP3   OH265808   2.607   4.943  15.176  0.0498 -0.7735  0.2158
14798TIP3    H165809   2.538   4.883  15.144  0.9417 -1.5921 -0.2252
14798TIP3    H265810   2.578   5.030  15.148 -0.6509 -1.1493 -0.2509
14799TIP3   OH265811   2.562   4.166   1.096 -0.5603  0.0175 -0.3761
14799TIP3    H165812   2.470   4.138   1.093 -0.3662 -0.5766 -0.7847
14799TIP3    H265813   2.577   4.187   1.188 -0.7057 -1.2531 -0.0486
14800TIP3   OH265814   2.784   5.531  13.482 -0.5190 -0.0465  0.1043
14800TIP3    H165815   2.702   5.515  13.529  1.6603 -0.4994  3.9096
14800TIP3    H265816   2.848   5.475  13.525  1.9790  0.7680 -2.3920
14801TIP3   OH265817   1.318   4.527   5.008  0.0896  0.6058 -0.5415
14801TIP3    H165818   1.351   4.467   4.941 -0.6013  0.9436 -1.1957
14801TIP3    H265819   1.261   4.473   5.062  1.4967  0.0775  0.4472
14802TIP3   OH265820   1.619   4.602  10.997 -0.5029 -0.1981  0.1152
14802TIP3    H165821   1.527   4.619  10.973 -0.4726  0.4991  0.4630
14802TIP3    H265822   1.667   4.677  10.961  0.2409 -1.6002 -1.8892
14803TIP3   OH265823   0.852   1.575  12.022 -0.1926 -0.1479  0.2904
14803TIP3    H165824   0.765   1.612  12.033 -1.0696 -2.0948  0.1305
14803TIP3    H265825   0.894   1.587  12.107 -1.2753 -0.8399  0.9319
14804TIP3   OH265826   6.462   2.468   0.840  0.2700 -0.2574 -0.0310
14804TIP3    H165827   6.506   2.395   0.797  1.7352  0.5949 -0.0241
14804TIP3    H265828   6.522   2.542   0.828  0.2828  0.2157  2.6726
14805TIP3   OH265829   5.191   6.622   5.210 -0.8162 -0.7912 -0.0057
14805TIP3    H165830   5.229   6.554   5.266  2.4368  0.9862  0.1150
14805TIP3    H265831   5.150   6.683   5.271  0.2269 -0.3417  0.2682
14806TIP3   OH265832   4.289   6.688   0.610  0.4036  0.2650  0.1824
14806TIP3    H165833   4.256   6.599   0.625 -0.2088  0.6326  1.1270
14806TIP3    H265834   4.339   6.683   0.529 -1.7310 -0.4077 -1.1458
14807TIP3   OH265835   4.786   5.288  11.799 -0.1397 -0.2566 -0.3101
14807TIP3    H165836   4.706   5.269  11.749  0.5193 -1.4907 -0.9344
14807TIP3    H265837   4.847   5.219  11.772  0.8961  0.2572  0.7012
14808TIP3   OH265838   3.324   2.019  16.550 -0.6704 -0.6413  0.2309
14808TIP3    H165839   3.298   1.946  16.494  0.5784  1.2528 -2.9331
14808TIP3    H265840   3.414   1.999  16.576 -0.0255  0.1225 -1.3352
14809TIP3   OH265841   1.554   3.142   4.109 -0.7380  0.1719 -0.3990
14809TIP3    H165842   1.551   3.232   4.076 -2.3151 -0.2909 -1.5481
14809TIP3    H265843   1.507   3.090   4.044 -0.4264 -1.3911  0.5882
14810TIP3   OH265844   4.987   5.428   0.288 -0.0272 -0.0503 -0.2966
14810TIP3    H165845   5.037   5.505   0.260 -0.6035  0.6041  0.4235
14810TIP3    H265846   4.961   5.385   0.207 -0.5077  1.0482 -0.7387
14811TIP3   OH265847   0.977   2.005  11.639 -0.1014 -0.2998  0.0945
14811TIP3    H165848   1.022   2.044  11.564  1.1778 -0.6430  0.6560
14811TIP3    H265849   0.969   1.912  11.618 -0.6657 -0.2189 -0.0567
14812TIP3   OH265850   3.060   2.239  12.103 -0.7783  0.3755  0.0578
14812TIP3    H165851   3.103   2.274  12.181 -0.6370  0.5160 -0.0837
14812TIP3    H265852   3.017   2.315  12.064  0.2844  0.5647 -0.7517
14813TIP3   OH265853   4.885   1.370  14.904  0.1766 -0.2049 -0.8082
14813TIP3    H165854   4.974   1.397  14.882  0.6675 -1.3022 -0.1501
14813TIP3    H265855   4.853   1.325  14.826 -0.2893  1.3231 -1.5366
14814TIP3   OH265856   3.398   3.749   4.923 -0.2115  0.2694  0.2375
14814TIP3    H165857   3.403   3.826   4.980 -1.8231  1.3223 -0.9940
14814TIP3    H265858   3.384   3.676   4.984 -0.5612  1.2021  1.3065
14815TIP3   OH265859   4.651   1.875  16.047  0.3485  0.1489  0.4955
14815TIP3    H165860   4.665   1.957  15.999  0.3488 -0.0799  0.0959
14815TIP3    H265861   4.677   1.807  15.984 -0.0379 -0.1694  0.6832
14816TIP3   OH265862   3.961   3.499  15.878  0.4927  0.2780 -0.6134
14816TIP3    H165863   4.028   3.500  15.947  0.5112  0.7481 -0.6339
14816TIP3    H265864   3.978   3.578  15.827  0.7281 -0.2742 -1.4017
14817TIP3   OH265865   3.661   1.557   1.116 -0.2087  0.0312  0.1506
14817TIP3    H165866   3.712   1.576   1.037  0.0919  1.6639  0.7186
14817TIP3    H265867   3.711   1.597   1.187 -1.2768 -0.0539  0.9644
14818TIP3   OH265868   4.587   1.986  10.564 -0.3909  0.3196 -0.1261
14818TIP3    H165869   4.649   2.058  10.562 -1.3027  1.1133 -0.0944
14818TIP3    H265870   4.636   1.913  10.602  0.5436  0.9089 -0.1931
14819TIP3   OH265871   3.032   1.951  12.929 -0.5922 -0.4945 -0.1583
14819TIP3    H165872   3.116   1.988  12.901 -0.5967 -0.7950 -0.5802
14819TIP3    H265873   2.986   1.932  12.847 -0.7678 -1.0303  0.0607
14820TIP3   OH265874   0.724   3.629  11.580 -0.0172 -0.3367  0.2124
14820TIP3    H165875   0.653   3.627  11.644 -0.4095 -0.4405 -0.2197
14820TIP3    H265876   0.680   3.614  11.496  0.6378 -1.3530  0.0459
14821TIP3   OH265877   5.296   4.563  10.719 -0.0478 -0.0142 -0.3970
14821TIP3    H165878   5.361   4.516  10.667 -1.1611  1.3746 -3.1130
14821TIP3    H265879   5.219   4.507  10.718  0.2377 -0.4420  0.6296
14822TIP3   OH265880   1.501   6.468  14.137 -0.5119  0.4023  0.1964
14822TIP3    H165881   1.581   6.492  14.185 -1.1446  0.3211  1.2886
14822TIP3    H265882   1.512   6.375  14.118  1.0143  1.0276 -2.2855
14823TIP3   OH265883   6.072   1.998   3.617  0.6297 -0.4165  0.0459
14823TIP3    H165884   6.165   1.975   3.623  1.2273  1.7754 -0.4163
14823TIP3    H265885   6.071   2.082   3.572 -1.3491  1.3107  3.1641
14824TIP3   OH265886   3.959   4.872  10.459  0.0385  0.1781 -0.0209
14824TIP3    H165887   4.001   4.953  10.430 -0.3133  0.2403 -0.3705
14824TIP3    H265888   4.027   4.806  10.454  0.5464  0.6118  1.0368
14825TIP3   OH265889   3.454   5.198   5.466  0.3312 -0.0023  0.0335
14825TIP3    H165890   3.471   5.155   5.382 -0.9650  0.3274 -0.3943
14825TIP3    H265891   3.364   5.175   5.488  0.4258  0.4981  0.9979
14826TIP3   OH265892   5.186   5.231  16.206  0.0759 -0.3608  0.1806
14826TIP3    H165893   5.136   5.149  16.216 -0.6556  0.1649  0.8185
14826TIP3    H265894   5.175   5.253  16.113  0.6409 -1.2118 -0.1034
14827TIP3   OH265895   3.837   5.312  12.417  0.0280  0.3000  0.3316
14827TIP3    H165896   3.850   5.278  12.505 -0.0252 -2.5285 -0.6982
14827TIP3    H265897   3.919   5.357  12.396  1.1180 -1.4168  0.8060
14828TIP3   OH265898   5.990   4.748   3.869  0.1367  0.1193 -0.2165
14828TIP3    H165899   6.041   4.766   3.948  1.2431 -0.3464 -0.8208
14828TIP3    H265900   6.001   4.654   3.854 -2.9859 -0.5366  1.0961
14829TIP3   OH265901   0.962   2.535  10.731  0.2511 -0.0944  0.6534
14829TIP3    H165902   1.012   2.466  10.773 -1.5280 -2.4275 -0.9155
14829TIP3    H265903   0.990   2.533  10.640 -0.8236  0.3171  0.3066
14830TIP3   OH265904   6.684   0.611  14.363 -0.6404 -0.4785  0.0022
14830TIP3    H165905   6.611   0.581  14.308 -1.8563 -0.6034  1.6475
14830TIP3    H265906   6.646   0.678  14.419  0.8395  0.3946 -0.0146
14831TIP3   OH265907   2.685   4.370   2.499 -0.3834  0.1302  0.2572
14831TIP3    H165908   2.763   4.318   2.479  0.1303  0.7006  0.7572
14831TIP3    H265909   2.676   4.364   2.594 -1.2253 -0.3207  0.1496
14832TIP3   OH265910   0.200   4.368  15.935  0.3031  0.1602  0.3159
14832TIP3    H165911   0.206   4.456  15.898  0.9302  0.1158  0.3173
14832TIP3    H265912   0.210   4.309  15.860 -0.0786  0.0890  0.3191
14833TIP3   OH265913   4.865   0.026   4.560  0.2831  0.4126 -0.3948
14833TIP3    H165914   4.794  -0.038   4.557 -0.2759  0.9953  0.0479
14833TIP3    H265915   4.852   0.071   4.644  0.1631  1.6681 -1.0794
14834TIP3   OH265916   0.109   6.261  13.210 -0.2103 -0.3058  0.1980
14834TIP3    H165917   0.166   6.190  13.182  1.0589  0.0479  1.8275
14834TIP3    H265918   0.054   6.222  13.278 -1.9327 -0.6360 -1.3293
14835TIP3   OH265919   1.499   6.047  12.861  0.0339  0.0346  0.0753
14835TIP3    H165920   1.435   6.069  12.794  1.9037  0.1024 -1.7218
14835TIP3    H265921   1.449   6.002  12.929 -1.6264 -1.2943 -2.0006
14836TIP3   OH265922   4.991   2.136  13.297  0.5177  0.0954 -0.5007
14836TIP3    H165923   5.073   2.125  13.344  1.4951  0.8884 -1.9864
14836TIP3    H265924   4.931   2.172  13.362  2.1232  2.0850 -0.0833
14837TIP3   OH265925   2.039   1.416  15.964  0.5893 -0.5685  0.5385
14837TIP3    H165926   2.054   1.326  15.937  1.3028 -0.3918  0.3503
14837TIP3    H265927   2.106   1.433  16.030 -0.0003 -0.4080  1.1033
14838TIP3   OH265928   2.076   0.447   5.504  0.5068  0.5893  0.5301
14838TIP3    H165929   2.004   0.510   5.493 -0.4455 -0.8048 -1.5850
14838TIP3    H265930   2.077   0.429   5.598 -2.8038 -0.3379  0.4538
14839TIP3   OH265931   4.655   4.954   0.148  0.2535 -0.1666  0.0902
14839TIP3    H165932   4.623   4.926   0.062  0.5542  0.4961 -0.2467
14839TIP3    H265933   4.580   4.946   0.206  0.1120 -0.8389 -0.1851
14840TIP3   OH265934   2.337   6.697  14.338  0.1748  0.1481  0.5922
14840TIP3    H165935   2.281   6.693  14.415  0.9450 -0.4109  1.1393
14840TIP3    H265936   2.282   6.670  14.265 -0.5843  0.7679  0.9300
14841TIP3   OH265937   4.367   4.582   5.417  1.0425 -0.8854 -0.0478
14841TIP3    H165938   4.335   4.671   5.403 -0.0707 -1.4202 -1.0838
14841TIP3    H265939   4.339   4.560   5.506  0.6465 -0.4772 -0.0709
14842TIP3   OH265940   6.574   2.231   0.378  0.5758  0.0318  0.2112
14842TIP3    H165941   6.523   2.243   0.458 -0.9569  1.8050 -0.9912
14842TIP3    H265942   6.625   2.311   0.369  0.8472 -0.2155 -0.4997
14843TIP3   OH265943   2.529   2.082   2.317  0.8658 -0.2910  0.2644
14843TIP3    H165944   2.596   2.101   2.252  0.3259  0.2163 -0.1452
14843TIP3    H265945   2.510   1.989   2.306 -0.4479  0.1565 -1.4688
14844TIP3   OH265946   5.356   2.985   2.035 -0.3070  0.2504  0.1052
14844TIP3    H165947   5.264   2.961   2.045  0.2973 -1.5922  1.5857
14844TIP3    H265948   5.357   3.047   1.963 -2.7792  0.7132  0.4256
14845TIP3   OH265949   0.456   1.927   5.284 -0.5398 -0.2834 -0.3917
14845TIP3    H165950   0.469   1.970   5.199 -0.4907  1.9716  0.7160
14845TIP3    H265951   0.372   1.882   5.276 -1.6480  1.7922 -0.9252
14846TIP3   OH265952   5.818   3.199   1.068 -0.2280  0.6029 -0.4529
14846TIP3    H165953   5.856   3.136   1.128  0.6225 -0.6647 -2.2907
14846TIP3    H265954   5.874   3.276   1.075 -0.0085  0.3841  0.1977
14847TIP3   OH265955   0.113   0.834  15.524 -0.9390  0.2800 -0.0815
14847TIP3    H165956   0.166   0.756  15.542  1.1677  1.3186 -1.5639
14847TIP3    H265957   0.117   0.886  15.604  0.2489  0.3152 -0.1598
14848TIP3   OH265958   6.551   1.158  14.308  0.0478 -0.2333 -0.1120
14848TIP3    H165959   6.585   1.122  14.390 -1.8065  0.2509  0.9072
14848TIP3    H265960   6.537   1.251  14.328  0.2523  0.0440 -1.2205
14849TIP3   OH265961   5.158   2.821  17.226  0.6068 -0.2860 -0.1133
14849TIP3    H165962   5.134   2.911  17.204 -0.8535 -1.5097 -3.9727
14849TIP3    H265963   5.251   2.827  17.251  0.8144  2.1621 -1.2939
14850TIP3   OH265964   5.985   5.942   4.648 -0.1179 -0.6192 -0.6210
14850TIP3    H165965   5.951   5.864   4.604 -1.5355 -0.2440 -0.2257
14850TIP3    H265966   5.918   6.009   4.634  0.0278 -0.1165  0.9517
14851TIP3   OH265967   5.401   2.322   1.209 -0.4560 -0.0937 -0.4543
14851TIP3    H165968   5.324   2.366   1.172  0.2871  0.5800 -1.2174
14851TIP3    H265969   5.395   2.340   1.303  0.7654  3.1895 -0.9282
14852TIP3   OH265970   6.248   2.523   6.025 -0.7921  0.2666  0.2530
14852TIP3    H165971   6.301   2.453   5.990  1.5079  1.3680  1.3905
14852TIP3    H265972   6.263   2.597   5.966  1.0121  1.3358  1.9886
14853TIP3   OH265973   4.269   1.398   1.572  0.1438 -0.4301 -0.2830
14853TIP3    H165974   4.335   1.334   1.546 -0.8573 -2.2882  1.5946
14853TIP3    H265975   4.197   1.345   1.606 -1.2792  1.6591  0.0171
14854TIP3   OH265976   2.198   5.413  11.048 -0.3553  0.3879  0.4332
14854TIP3    H165977   2.137   5.346  11.080 -1.1752  1.1539  0.4805
14854TIP3    H265978   2.277   5.401  11.101 -0.3049 -0.8734  0.1002
14855TIP3   OH265979   2.819   3.257  14.685  0.3913  0.5526 -0.0314
14855TIP3    H165980   2.883   3.306  14.736  0.1671 -0.2668  1.0760
14855TIP3    H265981   2.869   3.185  14.646  0.4610  0.8623 -0.5065
14856TIP3   OH265982   0.704   1.348  11.954 -0.4527 -0.3631  0.0324
14856TIP3    H165983   0.613   1.355  11.983 -0.1009  0.2884  1.0124
14856TIP3    H265984   0.750   1.416  12.003  0.4430 -0.2361 -0.9615
14857TIP3   OH265985   3.501   3.960  14.609  0.3279 -0.0078 -0.4652
14857TIP3    H165986   3.584   3.919  14.584 -0.2920 -0.9667 -1.0023
14857TIP3    H265987   3.444   3.945  14.533 -0.6907 -0.4104  0.3794
14858TIP3   OH265988   2.354   4.004  13.357 -0.0475 -0.1552  0.0625
14858TIP3    H165989   2.304   4.001  13.275  0.4396 -0.0737 -0.2375
14858TIP3    H265990   2.391   4.092  13.360  1.9575 -0.9282 -0.8434
14859TIP3   OH265991   1.115   5.739   5.597 -0.4550 -0.0018  0.2063
14859TIP3    H165992   1.106   5.744   5.692  1.5920 -1.3855  0.4941
14859TIP3    H265993   1.151   5.824   5.572 -4.3519  1.7490  0.1905
14860TIP3   OH265994   3.607   5.425  16.029  0.6908  0.0350  0.1670
14860TIP3    H165995   3.569   5.362  15.968  0.1269 -0.2381  0.8038
14860TIP3    H265996   3.545   5.498  16.029  1.7012  0.9341 -1.1263
14861TIP3   OH265997   4.856   4.028  11.679  0.0057 -0.2934  0.1963
14861TIP3    H165998   4.792   3.957  11.672 -0.7419  0.4433 -0.5859
14861TIP3    H265999   4.853   4.055  11.770 -1.7182  0.5794 -0.1120
14862TIP3   OH266000   5.172   3.188   0.207  0.0909  0.9786  0.0614
14862TIP3    H166001   5.266   3.170   0.197  0.4795  2.0429  1.5632
14862TIP3    H266002   5.166   3.284   0.201 -1.0715  0.8315 -1.3196
14863TIP3   OH266003   1.020   0.437   6.501  0.1583 -0.0064 -0.0617
14863TIP3    H166004   0.931   0.404   6.488 -0.5837  1.5204  0.8999
14863TIP3    H266005   1.008   0.518   6.552  1.9193  1.4161 -1.8167
14864TIP3   OH266006   3.089   2.228  15.576 -0.1808  0.3283  0.5492
14864TIP3    H166007   3.020   2.170  15.609  0.7517 -1.3283 -0.3107
14864TIP3    H266008   3.171   2.187  15.606  0.5273  0.7509 -0.7704
14865TIP3   OH266009   4.271   0.180  12.039  0.0367  0.1975 -0.0040
14865TIP3    H166010   4.282   0.112  11.972 -0.9150 -0.7295  0.7893
14865TIP3    H266011   4.190   0.224  12.016 -0.8123 -0.7667  1.1060
14866TIP3   OH266012   5.418   2.201  15.430  0.2990 -0.0865  0.1457
14866TIP3    H166013   5.365   2.127  15.400  0.2124 -0.7508  1.9135
14866TIP3    H266014   5.355   2.265  15.462  0.4029  0.5648 -0.9006
14867TIP3   OH266015   5.226   1.357   6.606 -0.2880 -0.4593 -0.4920
14867TIP3    H166016   5.159   1.419   6.636 -0.8578 -0.7686 -1.1256
14867TIP3    H266017   5.197   1.330   6.519  0.1790 -1.2927 -0.3935
14868TIP3   OH266018   3.920   0.290   6.007 -0.6058 -0.4704  0.3210
14868TIP3    H166019   3.872   0.299   6.090 -0.1410 -0.2285  0.5670
14868TIP3    H266020   3.891   0.365   5.955 -0.0844 -0.0161  0.6783
14869TIP3   OH266021   1.310   0.290  15.192 -0.1509 -0.6849 -0.3637
14869TIP3    H166022   1.260   0.239  15.256  1.3718 -2.3150 -0.4148
14869TIP3    H266023   1.260   0.283  15.111 -2.4015  1.8882  0.7587
14870TIP3   OH266024   2.692   1.201   3.610  0.4078  0.5191 -0.1567
14870TIP3    H166025   2.782   1.223   3.586 -0.2354  1.4313 -1.8544
14870TIP3    H266026   2.649   1.285   3.621 -0.0012  0.0842  1.6417
14871TIP3   OH266027   6.689   3.218   2.363 -0.8543 -0.4330 -0.2486
14871TIP3    H166028   6.652   3.131   2.375  0.1493 -0.8405 -0.1139
14871TIP3    H266029   6.643   3.254   2.287 -0.2878 -1.5929 -1.1387
14872TIP3   OH266030   4.452   4.819   5.657 -0.1732  0.6124  0.1722
14872TIP3    H166031   4.415   4.875   5.725  0.7479 -0.5318  1.6269
14872TIP3    H266032   4.443   4.871   5.576 -0.7158  2.2182  1.2437
14873TIP3   OH266033   3.530   6.219  10.979 -0.0158  0.2865 -0.2318
14873TIP3    H166034   3.623   6.229  10.964  0.2021  0.2241  1.0091
14873TIP3    H266035   3.509   6.131  10.946  0.0364  0.8912 -1.9365
14874TIP3   OH266036   2.633   5.496  16.842  0.3512  0.0361  0.5202
14874TIP3    H166037   2.645   5.426  16.777  0.1547 -0.3913  0.9402
14874TIP3    H266038   2.667   5.459  16.924 -0.3600  0.1876  0.8864
14875TIP3   OH266039   5.486   3.784  16.454 -0.2835  0.0407  0.2036
14875TIP3    H166040   5.426   3.793  16.379 -0.3050  0.4432  0.2706
14875TIP3    H266041   5.519   3.872  16.469 -1.1349  0.1623  1.3873
14876TIP3   OH266042   2.893   5.651  10.768 -0.0589 -0.4271 -0.8946
14876TIP3    H166043   2.799   5.666  10.754 -0.0021 -0.4057 -1.2371
14876TIP3    H266044   2.899   5.558  10.787 -0.2979 -0.2062  0.3130
14877TIP3   OH266045   3.568   4.675   0.159  0.0286 -0.0436  0.0526
14877TIP3    H166046   3.656   4.641   0.141 -0.2721 -1.0186  0.3745
14877TIP3    H266047   3.511   4.621   0.104 -0.5413 -0.6568  1.2410
14878TIP3   OH266048   2.833   0.309  16.528 -0.2792 -0.0665  0.4900
14878TIP3    H166049   2.825   0.397  16.490  1.6560  0.0891  0.4060
14878TIP3    H266050   2.791   0.316  16.614 -1.4155  0.5463 -0.0961
14879TIP3   OH266051   4.989   4.273   4.360  0.1737 -0.1943  0.1569
14879TIP3    H166052   4.976   4.333   4.433  0.5142  0.9770 -0.7475
14879TIP3    H266053   5.079   4.288   4.332 -0.4179  0.4303 -1.4643
14880TIP3   OH266054   1.088   0.913   5.554  0.1040  0.3054 -0.3980
14880TIP3    H166055   1.091   1.008   5.551  0.5593  0.2556 -2.1357
14880TIP3    H266056   1.043   0.887   5.473 -0.4414 -0.9457  0.2740
14881TIP3   OH266057   1.589   2.898   1.109  0.0069 -0.3989 -0.1988
14881TIP3    H166058   1.608   2.875   1.019 -0.5208 -1.4643 -0.0388
14881TIP3    H266059   1.512   2.847   1.132 -0.9917  1.2759  0.2636
14882TIP3   OH266060   5.299   2.658  16.248 -0.4474 -0.0049 -0.3404
14882TIP3    H166061   5.208   2.665  16.218 -0.3608 -2.8541 -1.3690
14882TIP3    H266062   5.341   2.600  16.184  0.9959 -2.2268  2.5492
14883TIP3   OH266063   5.798   4.676  12.930  0.2220 -0.0551  0.1061
14883TIP3    H166064   5.815   4.617  12.857 -2.5702  0.6516 -1.1777
14883TIP3    H266065   5.780   4.618  13.004  0.6130 -0.7805 -0.3647
14884TIP3   OH266066   6.389   2.038  10.834  0.4565  0.0157 -0.5081
14884TIP3    H166067   6.479   2.005  10.836 -0.1588 -1.7458 -1.0272
14884TIP3    H266068   6.371   2.052  10.741  0.7593  2.0029 -0.2831
14885TIP3   OH266069   2.847   6.683   4.967 -0.3600  0.0436 -0.6174
14885TIP3    H166070   2.793   6.697   4.889 -1.3273 -1.0101 -0.1428
14885TIP3    H266071   2.819   6.752   5.027 -0.7935 -0.1715 -0.5723
14886TIP3   OH266072   3.484   1.743  14.398 -0.1482  0.0218 -0.0991
14886TIP3    H166073   3.531   1.790  14.329  0.3350  0.3447  0.4516
14886TIP3    H266074   3.449   1.665  14.354 -0.3066  0.5026 -0.8368
14887TIP3   OH266075   6.765   1.700  15.364 -0.5483  0.6996 -0.6903
14887TIP3    H166076   6.756   1.605  15.369 -0.3477  0.7388  0.7964
14887TIP3    H266077   6.860   1.715  15.358 -0.3483  0.8763  2.1074
14888TIP3   OH266078   5.185   6.700   4.140 -0.2648 -0.5441  0.1501
14888TIP3    H166079   5.258   6.656   4.185  1.0642  0.1377 -1.2843
14888TIP3    H266080   5.133   6.738   4.211  1.8487  0.6158  1.1134
14889TIP3   OH266081   0.825   5.222   3.910 -0.5054  0.2308  0.0653
14889TIP3    H166082   0.737   5.239   3.942 -0.1162  2.4889  0.0482
14889TIP3    H266083   0.880   5.222   3.988 -0.3904 -0.2423 -0.0141
14890TIP3   OH266084   1.053   2.443   3.167 -0.0100 -0.4891  0.3380
14890TIP3    H166085   1.023   2.529   3.194 -0.3966 -1.1482  2.1441
14890TIP3    H266086   1.096   2.408   3.246 -0.7036 -2.2990 -0.0681
14891TIP3   OH266087   3.489   3.640  14.563  0.3661  0.1194 -0.4666
14891TIP3    H166088   3.408   3.691  14.561 -0.7255 -1.4917  1.5374
14891TIP3    H266089   3.475   3.568  14.502 -0.4786 -1.2353  1.2853
14892TIP3   OH266090   5.823   4.855   0.656  0.3609 -0.2464  0.2613
14892TIP3    H166091   5.806   4.769   0.619 -0.9486  0.5650 -1.0498
14892TIP3    H266092   5.737   4.887   0.684  1.2002 -0.5197  3.3477
14893TIP3   OH266093   6.261   3.150   5.440 -0.3477 -0.4479  0.4098
14893TIP3    H166094   6.222   3.062   5.435 -0.8139 -0.2283  0.1246
14893TIP3    H266095   6.286   3.160   5.532 -0.9635 -0.5981  0.5981
14894TIP3   OH266096   2.420   4.106  12.457  0.3421  0.3210  0.0496
14894TIP3    H166097   2.426   4.197  12.487 -0.6940  1.0607 -1.8562
14894TIP3    H266098   2.439   4.111  12.363 -1.9155 -1.1239 -0.5163
14895TIP3   OH266099   3.608   5.932   0.920  0.1113  0.4087  0.1101
14895TIP3    H166100   3.684   5.882   0.952  0.9900  1.7143  0.1058
14895TIP3    H266101   3.625   6.022   0.949 -1.3244  0.7570 -0.1039
14896TIP3   OH266102   5.398   1.063   2.686  0.1782 -0.2092  0.1147
14896TIP3    H166103   5.382   1.115   2.607  2.1621 -0.6290 -0.5872
14896TIP3    H266104   5.389   1.125   2.758 -3.9477 -0.2796 -0.1924
14897TIP3   OH266105   5.825   6.299   3.962 -0.3471  0.0965 -0.3790
14897TIP3    H166106   5.754   6.351   3.923 -0.4685 -0.7161 -1.2579
14897TIP3    H266107   5.796   6.209   3.953 -0.9813 -0.0757  2.8106
14898TIP3   OH266108   1.703   3.446   2.995  0.2664  0.2825  0.1387
14898TIP3    H166109   1.774   3.421   2.936 -0.3022  0.1289 -0.4918
14898TIP3    H266110   1.625   3.410   2.954 -0.3677  1.6895  0.0777
14899TIP3   OH266111   2.694   1.230   0.279  0.1155  0.1619  0.3228
14899TIP3    H166112   2.599   1.228   0.289 -0.0509  0.8042 -0.9231
14899TIP3    H266113   2.712   1.314   0.236  1.2851  0.2398  0.9265
14900TIP3   OH266114   4.885   1.795  12.723 -0.2326 -0.2296 -0.2878
14900TIP3    H166115   4.914   1.868  12.669 -0.7626 -0.3207 -0.7001
14900TIP3    H266116   4.813   1.830  12.775 -1.4422 -0.8284 -1.5238
14901TIP3   OH266117   1.608   2.993  14.173  0.2054 -0.0185  0.0261
14901TIP3    H166118   1.565   3.055  14.114 -1.8736 -1.9357 -0.5424
14901TIP3    H266119   1.636   2.921  14.115 -2.3326 -2.1762  1.3559
14902TIP3   OH266120   0.712   3.398   5.163  0.5392 -0.7931 -0.2907
14902TIP3    H166121   0.670   3.440   5.088  0.0997 -1.9826 -0.7089
14902TIP3    H266122   0.696   3.458   5.236  1.2784  0.5562 -1.2018
14903TIP3   OH266123   1.865   3.072  17.199  0.0489 -0.3646  0.8279
14903TIP3    H166124   1.881   3.108  17.286  1.1343  0.9784  0.0915
14903TIP3    H266125   1.773   3.044  17.201 -0.3393  0.9363  1.9530
14904TIP3   OH266126   5.352   3.345  13.588 -0.1636  0.0368  0.5812
14904TIP3    H166127   5.410   3.373  13.659  0.1463  1.4845 -0.2149
14904TIP3    H266128   5.273   3.399  13.600  0.2469  0.9312 -0.6898
14905TIP3   OH266129   0.355   4.524  10.601 -0.5959  0.0194  0.3974
14905TIP3    H166130   0.418   4.528  10.529  0.8727 -1.4367  1.5648
14905TIP3    H266131   0.286   4.586  10.576  0.2061  0.0213 -1.9355
14906TIP3   OH266132   3.895   3.257   5.826  0.0151  0.0221  0.0337
14906TIP3    H166133   3.923   3.329   5.882 -1.0714  1.8405 -1.7313
14906TIP3    H266134   3.879   3.185   5.887  1.5130  1.1182  1.7771
14907TIP3   OH266135   3.677   5.266   2.509 -0.0460  0.6541 -0.2225
14907TIP3    H166136   3.723   5.193   2.551  1.0188  0.2430 -2.0176
14907TIP3    H266137   3.622   5.304   2.578  0.1353 -1.2316  0.9894
14908TIP3   OH266138   4.035   1.346  14.304  0.4220 -0.1011 -0.5163
14908TIP3    H166139   4.020   1.441  14.297  0.8246  0.0756  0.9592
14908TIP3    H266140   4.131   1.338  14.309  0.4116 -0.6291 -1.0664
14909TIP3   OH266141   6.624   0.683  12.029  0.5482 -0.0172 -0.4666
14909TIP3    H166142   6.562   0.632  11.977 -0.4441  0.7878 -0.1007
14909TIP3    H266143   6.691   0.710  11.967  0.3256 -0.5688 -0.9540
14910TIP3   OH266144   2.870   3.371   1.209 -0.0699  0.4478 -0.6425
14910TIP3    H166145   2.869   3.283   1.247 -0.7683  0.9743  0.5870
14910TIP3    H266146   2.942   3.369   1.146  1.3679 -0.3585  0.9577
14911TIP3   OH266147   0.428   3.510   0.889 -0.1579 -0.2969 -0.2799
14911TIP3    H166148   0.455   3.453   0.817  1.3499  1.0864 -0.8403
14911TIP3    H266149   0.371   3.455   0.942  1.2656 -2.3538 -0.7908
14912TIP3   OH266150   2.994   1.924   5.726 -0.1358  0.0171  0.3277
14912TIP3    H166151   3.036   1.849   5.770  2.1836  0.1741 -1.4857
14912TIP3    H266152   2.918   1.886   5.682  1.4769 -1.4994 -1.2589
14913TIP3   OH266153   3.107   3.044   3.391  0.0689  0.1357 -0.2906
14913TIP3    H166154   3.188   3.001   3.362  0.0708  0.8035 -1.2972
14913TIP3    H266155   3.128   3.078   3.478  0.6160 -0.3918 -0.2110
14914TIP3   OH266156   4.263   0.866   3.301 -0.1745 -0.0169 -0.4268
14914TIP3    H166157   4.183   0.859   3.354 -1.3838 -0.7537 -2.3119
14914TIP3    H266158   4.244   0.815   3.223  1.6668  0.9028 -1.4918
14915TIP3   OH266159   1.469   4.407   3.920  0.1588 -0.3481  0.1046
14915TIP3    H166160   1.482   4.502   3.916  0.1355 -0.3621 -0.3605
14915TIP3    H266161   1.505   4.374   3.837  1.6142 -0.9270  0.9415
14916TIP3   OH266162   4.423   3.688  11.655 -0.3087  0.2746 -1.0654
14916TIP3    H166163   4.487   3.760  11.653  0.7888 -0.6391  0.0943
14916TIP3    H266164   4.474   3.611  11.629 -1.3762 -0.1734 -1.8826
14917TIP3   OH266165   1.367   0.444   2.617  0.0402  0.2933  0.4320
14917TIP3    H166166   1.440   0.391   2.648  0.3283  0.3552 -0.1424
14917TIP3    H266167   1.304   0.442   2.689  0.4547 -0.0496  0.7877
14918TIP3   OH266168   1.595   1.968  16.261 -0.4077  1.1573  0.4736
14918TIP3    H166169   1.671   2.004  16.307  0.8719  0.7465 -1.2630
14918TIP3    H266170   1.574   2.034  16.194 -0.4836  0.4745 -0.1842
14919TIP3   OH266171   1.766   3.010   2.126  0.0844 -0.5133 -0.3420
14919TIP3    H166172   1.726   2.933   2.086  2.6782 -1.7801 -0.6106
14919TIP3    H266173   1.719   3.022   2.208 -3.1333  0.1639 -2.1979
14920TIP3   OH266174   2.738   6.327   5.330 -0.6680 -0.5650 -0.2692
14920TIP3    H166175   2.823   6.287   5.314 -1.3491 -2.8405  1.4902
14920TIP3    H266176   2.747   6.367   5.416 -1.1144 -0.0947 -0.4443
14921TIP3   OH266177   2.323   1.228  14.296  0.0170 -0.1478 -0.0301
14921TIP3    H166178   2.419   1.228  14.300 -0.0218 -0.3812  0.9389
14921TIP3    H266179   2.303   1.279  14.217  0.9543 -0.7412 -0.6787
14922TIP3   OH266180   3.831   5.944   3.044 -0.5763  0.3287  0.0507
14922TIP3    H166181   3.910   5.894   3.021  0.0787  0.8231  1.1705
14922TIP3    H266182   3.815   5.922   3.136 -1.4868  0.5897 -0.0364
14923TIP3   OH266183   0.883   0.393  16.162  0.9203 -0.6613 -0.1296
14923TIP3    H166184   0.938   0.410  16.239 -0.6564  1.4096  0.5760
14923TIP3    H266185   0.804   0.351  16.198  1.5042 -2.5674 -1.0037
14924TIP3   OH266186   0.267   2.482   3.551 -0.2017  0.1127 -0.5270
14924TIP3    H166187   0.313   2.488   3.468 -1.7065 -1.2958 -1.4701
14924TIP3    H266188   0.258   2.388   3.568 -0.0194  0.3810  1.1605
14925TIP3   OH266189   1.972   5.542  13.424 -0.1091 -0.1755 -0.4833
14925TIP3    H166190   1.927   5.461  13.402 -0.7482  0.0994 -0.1916
14925TIP3    H266191   2.064   5.517  13.430 -0.2164 -0.7382 -1.0676
14926TIP3   OH266192   0.871   2.334   1.881 -0.6771  0.1530 -0.2581
14926TIP3    H166193   0.783   2.358   1.853 -1.1292  0.3992  1.2895
14926TIP3    H266194   0.902   2.410   1.932  1.7819  1.4912 -3.5696
14927TIP3   OH266195   1.728   0.039   0.608 -0.3864 -0.1886 -0.0152
14927TIP3    H166196   1.780   0.064   0.685 -1.8789  0.4410  0.8150
14927TIP3    H266197   1.766  -0.044   0.579  0.6959 -0.0373  0.9330
14928TIP3   OH266198   4.442   1.565   4.303  0.0299  0.5812  0.2064
14928TIP3    H166199   4.432   1.525   4.389  0.2705  1.9369  0.8860
14928TIP3    H266200   4.410   1.499   4.241  0.8846 -0.8315  1.2476
14929TIP3   OH266201   3.800   4.614   0.268  0.1513  0.8334 -0.0041
14929TIP3    H166202   3.847   4.695   0.288  0.6568  0.5727 -0.1400
14929TIP3    H266203   3.864   4.544   0.281  0.4510  0.6292 -2.2580
14930TIP3   OH266204   4.355   0.677  14.780 -0.1950  0.0347  0.3127
14930TIP3    H166205   4.413   0.722  14.719 -1.1690  0.1169 -0.5505
14930TIP3    H266206   4.415   0.629  14.838  0.7577  0.5787 -0.2033
14931TIP3   OH266207   2.171   6.467  15.194 -0.8953  0.0708  0.2222
14931TIP3    H166208   2.134   6.389  15.152 -2.7768  1.1643 -0.1853
14931TIP3    H266209   2.236   6.432  15.255 -0.0983 -1.6880 -1.5824
14932TIP3   OH266210   6.467   3.715   5.506 -0.0678 -0.0248 -0.5740
14932TIP3    H166211   6.403   3.786   5.514  0.0244  0.1119 -1.0424
14932TIP3    H266212   6.484   3.688   5.596  0.5008  1.0882 -0.3450
14933TIP3   OH266213   4.449   5.909  15.989 -0.0977  0.4343  0.1309
14933TIP3    H166214   4.362   5.945  15.973 -0.4019 -0.3534 -0.0297
14933TIP3    H266215   4.480   5.956  16.066 -1.6355 -0.8870  1.6172
14934TIP3   OH266216   4.573   6.318   2.242  0.9389  0.0624  0.6848
14934TIP3    H166217   4.522   6.262   2.183 -1.4968  0.5679  2.2417
14934TIP3    H266218   4.616   6.256   2.302 -0.9987 -0.2226  1.8153
14935TIP3   OH266219   4.989   6.217  11.866 -0.1307  0.1675  0.1054
14935TIP3    H166220   5.064   6.188  11.815 -1.2451 -0.3127 -1.2788
14935TIP3    H266221   4.987   6.312  11.855 -1.8803 -0.1593 -2.9289
14936TIP3   OH266222   0.497   3.965   2.693 -0.3503  0.1403  0.1741
14936TIP3    H166223   0.561   4.034   2.677 -2.0936  1.8712  0.5208
14936TIP3    H266224   0.533   3.888   2.648  2.4337  0.8030  1.2158
14937TIP3   OH266225   3.431   1.877   0.456 -0.0189 -0.1476  0.3461
14937TIP3    H166226   3.378   1.810   0.499 -0.5443 -0.6006 -0.9714
14937TIP3    H266227   3.382   1.958   0.468 -1.7473 -0.7783 -2.0144
14938TIP3   OH266228   0.963   1.277   1.114 -0.0858 -0.5681  0.3985
14938TIP3    H166229   0.982   1.235   1.030  2.0006 -0.4835  0.7846
14938TIP3    H266230   0.998   1.217   1.180 -0.1724  0.1498  1.1115
14939TIP3   OH266231   0.776   3.230  12.909 -0.1015 -0.2588 -0.2722
14939TIP3    H166232   0.750   3.206  12.998  0.8440 -1.8731 -0.4316
14939TIP3    H266233   0.702   3.283  12.877 -0.6649 -0.0627  1.2804
14940TIP3   OH266234   5.687   4.351  12.916  0.0050 -0.2688  0.0637
14940TIP3    H166235   5.673   4.409  12.991  2.7589  0.7081 -0.1325
14940TIP3    H266236   5.773   4.313  12.931 -0.6481 -2.3451 -1.1522
14941TIP3   OH266237   3.831   1.541   2.841 -0.3693  0.5496  0.1426
14941TIP3    H166238   3.880   1.623   2.852  2.4860 -1.0363 -0.3054
14941TIP3    H266239   3.876   1.496   2.769 -0.6000 -2.3134  1.7189
14942TIP3   OH266240   1.012   0.497  12.871  0.4786  0.3909 -0.5413
14942TIP3    H166241   1.098   0.516  12.910  0.6431 -0.7279 -0.3336
14942TIP3    H266242   1.013   0.543  12.787  0.8020  1.3874 -0.0004
14943TIP3   OH266243   1.077   5.132   3.383 -0.7777  0.1454  0.3933
14943TIP3    H166244   1.121   5.210   3.348  0.8012 -0.6749  0.4877
14943TIP3    H266245   1.019   5.104   3.313 -0.5606  0.7989 -0.0526
14944TIP3   OH266246   4.811   2.778   4.831  0.0165 -0.5384 -0.0247
14944TIP3    H166247   4.819   2.729   4.913  0.1274  0.2859  0.4673
14944TIP3    H266248   4.885   2.748   4.778  0.6671 -0.1917  0.6583
14945TIP3   OH266249   5.639   4.736   2.060 -0.2378  0.1064  0.7440
14945TIP3    H166250   5.574   4.750   1.991  1.1025  0.5579 -0.4690
14945TIP3    H266251   5.692   4.662   2.028 -1.0285 -1.2025  2.3906
14946TIP3   OH266252   4.501   0.225   3.864  0.0145  0.2735 -0.0581
14946TIP3    H166253   4.449   0.240   3.943  0.4837  0.5664  0.1978
14946TIP3    H266254   4.450   0.265   3.794 -0.2448  0.3082  0.1476
14947TIP3   OH266255   0.980   1.893  12.702 -0.1784  0.5545  0.1080
14947TIP3    H166256   0.988   1.964  12.639 -2.1591  0.0144 -0.7804
14947TIP3    H266257   0.886   1.889  12.722 -0.2058 -2.2233 -0.3827
14948TIP3   OH266258   1.646   5.926  14.210  0.5274 -0.2901  0.6155
14948TIP3    H166259   1.710   5.955  14.145 -1.2228  4.6692  0.8866
14948TIP3    H266260   1.566   5.910  14.159  0.4825 -1.1329  0.9498
14949TIP3   OH266261   5.682   2.516  14.104 -0.0329 -0.2240  0.4518
14949TIP3    H166262   5.589   2.525  14.084  0.2721  1.2578 -0.3677
14949TIP3    H266263   5.684   2.489  14.196 -1.3324 -3.6194 -0.4360
14950TIP3   OH266264   2.317   2.069   3.427 -0.2299  0.3810  0.3724
14950TIP3    H166265   2.347   2.010   3.358 -0.0931  0.3654  0.4454
14950TIP3    H266266   2.337   2.157   3.394  1.5352  0.3117  1.1815
14951TIP3   OH266267   6.503   3.463  11.746 -0.3871  0.0227  0.2536
14951TIP3    H166268   6.527   3.373  11.767  1.1411  0.0726 -1.1325
14951TIP3    H266269   6.547   3.480  11.662 -2.0949  1.4730 -0.3703
14952TIP3   OH266270   2.931   3.023   0.253 -0.0533 -0.2890 -0.4354
14952TIP3    H166271   2.939   3.110   0.291 -0.1714 -0.7951  0.7739
14952TIP3    H266272   2.845   3.023   0.210 -0.0722  0.1656 -0.3955
14953TIP3   OH266273   1.722   3.790  13.775  0.4282  0.0921 -0.4836
14953TIP3    H166274   1.756   3.753  13.857 -1.3290  0.5014  0.4674
14953TIP3    H266275   1.800   3.809  13.723  1.5575 -0.5967  0.9184
14954TIP3   OH266276   1.452   5.542   0.991  0.6059 -0.4544  0.2027
14954TIP3    H166277   1.447   5.458   0.944  2.3499 -0.0803 -0.6945
14954TIP3    H266278   1.528   5.586   0.953  0.8497  0.7282  2.0101
14955TIP3   OH266279   0.181   2.226   0.585 -0.4080  0.3849 -0.2796
14955TIP3    H166280   0.275   2.224   0.600 -0.3814 -1.3168 -0.6339
14955TIP3    H266281   0.162   2.318   0.564  1.3679  0.4977 -1.4740
14956TIP3   OH266282   2.880   5.060  15.674  0.4817  0.2461  0.1291
14956TIP3    H166283   2.900   5.085  15.764  0.9931  0.7168 -0.1164
14956TIP3    H266284   2.965   5.055  15.631  0.3189 -1.0185 -0.0608
14957TIP3   OH266285   0.998   1.017   1.898  0.0630 -0.0029 -0.5014
14957TIP3    H166286   0.910   0.988   1.874  0.1241 -0.6694  0.0579
14957TIP3    H266287   1.049   0.936   1.903  0.1590  0.1704  1.4030
14958TIP3   OH266288   6.381   0.786  14.818 -0.3532  0.1657 -0.8561
14958TIP3    H166289   6.378   0.691  14.829 -2.8876  0.4274  0.9905
14958TIP3    H266290   6.298   0.808  14.774 -1.1674  1.8285  1.4307
14959TIP3   OH266291   0.382   3.902  11.114  0.1843 -0.1405  0.3380
14959TIP3    H166292   0.377   3.826  11.056 -1.5906  1.1116 -1.2357
14959TIP3    H266293   0.336   3.971  11.066  0.0860  1.3847  2.5618
14960TIP3   OH266294   4.179   4.224   5.096 -0.5776 -0.7798 -0.1744
14960TIP3    H166295   4.232   4.303   5.109  0.8673 -1.6138 -0.8947
14960TIP3    H266296   4.124   4.219   5.174 -0.2573  0.6226  0.1438
14961TIP3   OH266297   3.032   4.612  16.189 -0.5238  0.4392 -0.4002
14961TIP3    H166298   3.122   4.628  16.218 -0.0001 -2.1041 -0.4774
14961TIP3    H266299   2.978   4.640  16.263  0.4898 -0.4344  0.7072
14962TIP3   OH266300   5.560   4.143   0.744 -0.1166  0.7753 -0.4406
14962TIP3    H166301   5.469   4.164   0.723 -0.7536 -1.9041 -0.4960
14962TIP3    H266302   5.582   4.070   0.686  1.5590  0.3357  0.7203
14963TIP3   OH266303   4.235   0.643  16.210  0.2937 -0.2361 -0.0326
14963TIP3    H166304   4.272   0.561  16.242 -0.7510 -0.5633  0.3488
14963TIP3    H266305   4.288   0.664  16.133  0.5557 -1.2808 -0.1514
14964TIP3   OH266306   3.842   2.323   2.278  0.0972  0.0188 -0.5054
14964TIP3    H166307   3.875   2.376   2.350  0.4922  0.2975 -0.8890
14964TIP3    H266308   3.748   2.314   2.295  0.6611 -2.3651  1.6009
14965TIP3   OH266309   1.093   5.944   0.005  0.2512 -0.4995  0.1321
14965TIP3    H166310   1.075   5.973  -0.084  0.9464 -1.7932 -0.4513
14965TIP3    H266311   1.015   5.894   0.030  1.0497 -2.2110 -0.6846
14966TIP3   OH266312   3.393   3.990  16.800  0.3011 -0.1050 -0.0496
14966TIP3    H166313   3.314   4.019  16.753 -0.1036 -1.3713 -0.1962
14966TIP3    H266314   3.392   3.894  16.789  1.9628 -0.1129 -0.2009
14967TIP3   OH266315   1.323   2.565  15.527  0.0125  0.5049 -0.0660
14967TIP3    H166316   1.326   2.658  15.547 -3.1412  0.8301 -0.8121
14967TIP3    H266317   1.315   2.561  15.431 -0.4791 -0.4959  0.0025
14968TIP3   OH266318   3.296   6.664  15.710  0.2185  0.3035 -0.4231
14968TIP3    H166319   3.358   6.645  15.781  0.5877  1.6130 -0.3887
14968TIP3    H266320   3.348   6.658  15.630  0.1531  0.3671 -0.4701
14969TIP3   OH266321   4.611   6.393   0.067 -0.9091 -0.7602  0.0385
14969TIP3    H166322   4.558   6.407   0.146 -3.0018  0.3387 -1.5185
14969TIP3    H266323   4.600   6.473   0.016  0.7276 -1.3048 -1.2251
14970TIP3   OH266324   3.011   0.404  16.282 -0.1829  0.4291  0.7121
14970TIP3    H166325   3.081   0.443  16.229  0.3761 -0.6232  0.6534
14970TIP3    H266326   3.057   0.365  16.356 -0.7316 -0.1453  0.7480
14971TIP3   OH266327   3.189   4.183  15.844  0.5410 -0.0936 -0.3042
14971TIP3    H166328   3.234   4.134  15.775  0.0348 -0.7945 -0.1453
14971TIP3    H266329   3.243   4.261  15.857  2.0242 -1.1740  0.2562
14972TIP3   OH266330   4.914   1.241  11.027  0.3743 -0.6211 -0.6284
14972TIP3    H166331   4.983   1.181  11.001  0.2770  0.0934 -2.5635
14972TIP3    H266332   4.885   1.282  10.946  0.8176  2.4458  0.6610
14973TIP3   OH266333   2.895   3.306  15.023 -0.0938 -0.0080  0.3516
14973TIP3    H166334   2.869   3.288  15.114  0.4607  1.4584  0.8225
14973TIP3    H266335   2.971   3.250  15.008  1.1534  1.2902  1.5384
14974TIP3   OH266336   1.014   1.142   1.581  0.2718  0.6203  0.0498
14974TIP3    H166337   0.943   1.087   1.616 -0.1552  1.4544  0.5263
14974TIP3    H266338   1.091   1.087   1.585  0.0708  0.4136  1.5827
14975TIP3   OH266339   1.259   0.118  16.770 -0.2814  0.0548  0.1396
14975TIP3    H166340   1.200   0.136  16.844 -2.9770 -0.3035 -1.8337
14975TIP3    H266341   1.246   0.025  16.752  1.0329 -0.0626 -0.2339
14976TIP3   OH266342   6.550   0.167   4.185  0.2867 -0.1725  0.2615
14976TIP3    H166343   6.498   0.088   4.196 -0.4198  0.5301  2.1444
14976TIP3    H266344   6.489   0.239   4.204  1.3549  0.7532  0.2484
14977TIP3   OH266345   5.887   6.139  15.923 -0.5015  0.5354  0.2848
14977TIP3    H166346   5.936   6.112  15.846  0.6818  2.7917  0.1915
14977TIP3    H266347   5.877   6.234  15.913 -1.2445  0.7091  2.3775
14978TIP3   OH266348   3.248   0.895   0.559 -0.5683  0.9583  0.3887
14978TIP3    H166349   3.191   0.966   0.529 -1.0225  0.1614 -0.6641
14978TIP3    H266350   3.216   0.817   0.514  1.1512  0.4308  0.0308
14979TIP3   OH266351   2.671   0.170   0.357  0.2148  0.0465  0.0409
14979TIP3    H166352   2.620   0.147   0.279 -0.5516 -0.9264  0.8199
14979TIP3    H266353   2.673   0.090   0.409  1.4259  0.4607  0.6485
14980TIP3   OH266354   1.644   2.754   2.052 -0.5204  0.0061 -0.0895
14980TIP3    H166355   1.651   2.688   1.983 -1.2845 -0.5371  0.3371
14980TIP3    H266356   1.574   2.721   2.109 -1.3685  1.5160 -0.2335
14981TIP3   OH266357   4.682   1.439  15.629  0.1678 -0.4897  0.2132
14981TIP3    H166358   4.714   1.349  15.639 -1.1515 -1.0176 -0.2453
14981TIP3    H266359   4.725   1.472  15.550  1.1387 -0.4959  0.7345
14982TIP3   OH266360   1.514   2.187  16.663  0.0820 -0.3269  0.2541
14982TIP3    H166361   1.532   2.222  16.751 -0.2601 -0.3486  0.3316
14982TIP3    H266362   1.427   2.219  16.642  0.0400 -0.5805  0.0473
14983TIP3   OH266363   2.779   5.262   3.195  0.3910 -0.1068 -0.1870
14983TIP3    H166364   2.838   5.322   3.241  0.5149  0.6273 -1.2841
14983TIP3    H266365   2.806   5.175   3.226  0.3251  0.3712  1.2787
14984TIP3   OH266366   0.747   5.649  16.767 -0.1006 -0.5000  0.1092
14984TIP3    H166367   0.662   5.649  16.811  1.7886 -0.1911  4.0031
14984TIP3    H266368   0.760   5.558  16.741 -2.0187 -0.3655 -1.3793
14985TIP3   OH266369   5.923   2.463  10.797 -0.2252  0.5017  0.0038
14985TIP3    H166370   5.991   2.517  10.756 -0.1883 -1.2695 -2.3764
14985TIP3    H266371   5.936   2.376  10.760 -3.1288 -0.1253  0.3463
14986TIP3   OH266372   2.655   1.993   4.762  0.1188 -0.6277  0.2704
14986TIP3    H166373   2.710   1.933   4.811 -1.2599 -1.1211  1.2506
14986TIP3    H266374   2.579   2.008   4.819 -0.0492  1.2170 -0.3939
14987TIP3   OH266375   5.638   6.149   1.093 -0.4959  0.3584 -0.4340
14987TIP3    H166376   5.604   6.063   1.070  0.4489 -0.2854  0.5582
14987TIP3    H266377   5.560   6.206   1.094 -1.4980 -0.9810  1.2754
14988TIP3   OH266378   1.699   3.978   5.679 -0.2564 -0.5413 -0.1343
14988TIP3    H166379   1.776   3.980   5.622 -0.5966  2.3678 -0.5775
14988TIP3    H266380   1.627   3.951   5.622  0.1601 -1.8813 -0.0442
14989TIP3   OH266381   0.839   0.703  16.347 -0.1494 -0.1853 -0.1306
14989TIP3    H166382   0.828   0.654  16.428 -1.9871 -0.6990 -0.6790
14989TIP3    H266383   0.750   0.722  16.317  0.4898  3.2690 -0.0741
14990TIP3   OH266384   3.768   4.680   4.719  0.5683 -0.2082  0.4717
14990TIP3    H166385   3.721   4.596   4.716  0.2780 -0.0320  0.1865
14990TIP3    H266386   3.860   4.656   4.704  0.4933 -0.4827  0.4441
14991TIP3   OH266387   0.202   2.894   5.204  0.1593 -0.0480 -0.1438
14991TIP3    H166388   0.172   2.865   5.117  0.0247  1.3957 -0.5942
14991TIP3    H266389   0.280   2.947   5.185  0.4621 -0.2022  0.6718
14992TIP3   OH266390   1.210   3.254   6.186  0.1148  0.3311 -0.1346
14992TIP3    H166391   1.197   3.286   6.097 -0.7510  0.2685 -0.0268
14992TIP3    H266392   1.207   3.334   6.240  1.4046  0.4613 -0.2362
14993TIP3   OH266393   6.718   3.712  15.248  0.5927  0.2865 -0.4755
14993TIP3    H166394   6.648   3.778  15.253 -0.4463 -0.8964  1.3402
14993TIP3    H266395   6.673   3.632  15.220  1.1583 -0.5575  1.0021
14994TIP3   OH266396   3.452   2.815  10.985 -0.1860  0.0714 -0.4380
14994TIP3    H166397   3.541   2.844  10.968 -1.0641  3.6044  0.7423
14994TIP3    H266398   3.440   2.823  11.079 -1.2703 -1.9125 -0.3664
14995TIP3   OH266399   4.893   3.470   5.178  0.3615  0.4590  0.1086
14995TIP3    H166400   4.866   3.557   5.208 -0.7203  0.3356 -0.4946
14995TIP3    H266401   4.849   3.458   5.094  0.3910 -0.7256  0.2464
14996TIP3   OH266402   5.098   0.383  14.771  0.1308  0.1052 -0.3112
14996TIP3    H166403   5.095   0.362  14.864  2.3882 -1.2314 -0.5285
14996TIP3    H266404   5.094   0.479  14.768  2.2800  0.2726  1.2846
14997TIP3   OH266405   1.322   5.409  12.446  0.1762  0.3197  0.2791
14997TIP3    H166406   1.257   5.339  12.441  0.2378  0.3915 -1.5645
14997TIP3    H266407   1.386   5.389  12.379  0.3453  1.9836 -0.0841
14998TIP3   OH266408   5.522   6.002  14.934  0.1576 -0.5427  0.2711
14998TIP3    H166409   5.512   5.930  14.872 -1.6263 -0.0575 -0.0483
14998TIP3    H266410   5.612   5.995  14.965  0.4397 -2.0437 -0.8190
14999TIP3   OH266411   2.573   0.209  16.037 -0.4855  0.3211 -0.0318
14999TIP3    H166412   2.551   0.232  15.947  1.1025 -0.9042 -0.7521
14999TIP3    H266413   2.634   0.277  16.065 -0.2869  0.2047 -0.1826
15000TIP3   OH266414   1.149   1.756  14.900 -0.3822 -0.1206 -0.3994
15000TIP3    H166415   1.190   1.830  14.945 -1.9833  0.5764 -0.0603
15000TIP3    H266416   1.177   1.765  14.809 -0.4938  0.8563 -0.3408
15001TIP3   OH266417   2.025   3.954   0.028 -0.5178 -0.4381  0.3539
15001TIP3    H166418   2.114   3.929   0.005 -0.7295 -0.5950 -0.3068
15001TIP3    H266419   1.975   3.945  -0.053 -0.2854  3.6982 -0.3270
15002TIP3   OH266420   2.948   0.498   0.217  0.2981 -0.2193  0.1216
15002TIP3    H166421   2.867   0.541   0.245  0.6480 -0.3620  1.4092
15002TIP3    H266422   2.920   0.431   0.156 -0.4156  0.6934 -0.5664
15003TIP3   OH266423   1.324   1.374  11.498  0.1910 -0.5178 -0.2294
15003TIP3    H166424   1.240   1.410  11.467  0.0159 -2.0614 -1.6408
15003TIP3    H266425   1.307   1.346  11.588 -0.1863  1.1696  0.2420
15004TIP3   OH266426   4.914   0.610  15.336 -0.3946  0.2515 -0.3588
15004TIP3    H166427   4.943   0.524  15.306 -0.9476 -0.6508  1.6334
15004TIP3    H266428   4.951   0.671  15.272  0.4489 -1.4162 -1.4950
15005TIP3   OH266429   2.394   3.372  11.813  0.0330  0.0854  0.1570
15005TIP3    H166430   2.433   3.385  11.726  1.1706 -0.8670  0.5096
15005TIP3    H266431   2.346   3.453  11.830 -0.7636  0.0319 -1.6482
15006TIP3   OH266432   1.723   2.676  11.909  0.2002 -0.0340  0.3588
15006TIP3    H166433   1.783   2.605  11.934  0.2446 -1.0028 -2.3080
15006TIP3    H266434   1.646   2.631  11.875 -0.7819  1.2127  0.9300
15007TIP3   OH266435   1.746   1.334   0.146  0.1674 -0.0588 -0.2943
15007TIP3    H166436   1.709   1.398   0.086  1.7065  1.1762  0.0253
15007TIP3    H266437   1.676   1.316   0.209 -0.4093  1.0058 -0.6297
15008TIP3   OH266438   2.093   0.394  14.040  0.2779  0.2804 -0.2465
15008TIP3    H166439   2.096   0.481  14.001 -2.8658  0.6217  0.1812
15008TIP3    H266440   2.062   0.409  14.130 -0.6335 -1.3061 -0.2784
15009TIP3   OH266441   4.340   3.105  13.460 -0.1931  0.4041 -0.0992
15009TIP3    H166442   4.306   3.188  13.495 -0.9469  0.0779 -0.0489
15009TIP3    H266443   4.277   3.078  13.394  0.8003  0.5859 -1.1306
15010TIP3   OH266444   0.283   6.654  13.556 -0.4389 -0.2549  0.6750
15010TIP3    H166445   0.219   6.614  13.498 -0.5191  1.7428 -0.6769
15010TIP3    H266446   0.254   6.632  13.644 -2.9129  0.5131  0.0829
15011TIP3   OH266447   5.357   0.157  13.405  0.3646 -0.1269  0.3276
15011TIP3    H166448   5.384   0.114  13.324 -0.1316  0.5627 -0.2069
15011TIP3    H266449   5.277   0.110  13.431 -1.0443  1.4539 -1.0821
15012TIP3   OH266450   4.824   1.377   6.109 -0.5789  1.1226  0.5486
15012TIP3    H166451   4.843   1.331   6.191 -0.0835  1.8769  0.8567
15012TIP3    H266452   4.850   1.467   6.125 -1.1632  1.4302 -0.2018
15013TIP3   OH266453   0.526   3.786   5.054 -0.1593 -0.6862 -0.1853
15013TIP3    H166454   0.497   3.832   5.133  1.4696 -3.0067  1.8157
15013TIP3    H266455   0.468   3.710   5.048 -1.0382  0.0698 -1.9479
15014TIP3   OH266456   4.701   6.438   4.181 -0.4138  0.2029  0.3018
15014TIP3    H166457   4.710   6.520   4.132 -1.3803  0.9134  1.2925
15014TIP3    H266458   4.606   6.425   4.189 -0.2645 -0.7049  0.6507
15015TIP3   OH266459   6.093   4.182  14.522  0.1687  0.1587 -0.2184
15015TIP3    H166460   6.006   4.143  14.519  1.0547 -1.8912 -0.2040
15015TIP3    H266461   6.088   4.258  14.464 -1.5711 -0.0335 -0.3249
15016TIP3   OH266462   4.750   4.513  11.540  0.3388  0.7012  1.1675
15016TIP3    H166463   4.747   4.608  11.525 -1.2188  0.5978  0.7631
15016TIP3    H266464   4.796   4.479  11.463 -3.5054  0.6581 -1.2537
15017TIP3   OH266465   2.192   1.286  15.630  0.5493  0.0674 -0.6101
15017TIP3    H166466   2.132   1.322  15.565 -0.1532  1.5187  0.8235
15017TIP3    H266467   2.238   1.362  15.666  0.6101 -0.6647  0.8993
15018TIP3   OH266468   2.322   4.218   0.303 -0.1692 -0.2817 -0.4542
15018TIP3    H166469   2.361   4.299   0.270  0.5545  0.7335  2.6515
15018TIP3    H266470   2.228   4.233   0.298 -0.0385  0.9134  0.3465
15019TIP3   OH266471   3.464   1.500   4.859  0.0510 -0.3627  0.4106
15019TIP3    H166472   3.391   1.532   4.806  0.5101 -0.9126 -0.5564
15019TIP3    H266473   3.469   1.407   4.839 -0.0890 -0.6876  1.8103
15020TIP3   OH266474   5.041   0.804  15.144 -0.7011  0.0525 -0.6332
15020TIP3    H166475   5.113   0.821  15.085 -0.5409 -1.7991 -1.0019
15020TIP3    H266476   5.053   0.866  15.216  1.3170 -0.2985 -0.6461
15021TIP3   OH266477   0.065   6.708  14.020  0.0304  0.2682  0.5626
15021TIP3    H166478  -0.004   6.654  14.059  0.3366 -1.8873 -1.8061
15021TIP3    H266479   0.023   6.793  14.005 -1.8425 -0.7324  0.0213
15022TIP3   OH266480   2.593   4.409   3.640 -0.1375  0.3239 -0.3782
15022TIP3    H166481   2.562   4.385   3.553  0.1250  2.0526 -0.9524
15022TIP3    H266482   2.528   4.472   3.672  0.6985  0.9929 -0.0051
15023TIP3   OH266483   2.453   1.439   4.192 -0.6831 -0.3616 -0.0368
15023TIP3    H166484   2.437   1.356   4.147  0.7213 -1.2592  1.0642
15023TIP3    H266485   2.489   1.496   4.124 -0.1489 -1.1793 -0.4593
15024TIP3   OH266486   2.778   5.694  12.254  0.0464  0.5183  0.0070
15024TIP3    H166487   2.820   5.779  12.247 -0.9251  0.9717 -0.3666
15024TIP3    H266488   2.802   5.663  12.342  0.1632  1.2977  0.2528
15025TIP3   OH266489   3.377   4.998   0.404  0.0099  0.6686  0.1621
15025TIP3    H166490   3.325   5.000   0.324  1.9850  1.6856 -1.1471
15025TIP3    H266491   3.430   4.919   0.396  0.6717  1.1027  0.1170
15026TIP3   OH266492   1.066   1.755  13.726  0.0126 -0.1970 -0.5801
15026TIP3    H166493   1.085   1.675  13.677  1.9893  0.4126 -0.8201
15026TIP3    H266494   0.970   1.758  13.730 -0.0852 -2.3183 -0.9850
15027TIP3   OH266495   0.363   0.006   3.264  0.2441  0.0561 -0.3587
15027TIP3    H166496   0.412  -0.029   3.190  0.6836 -2.8015  1.2100
15027TIP3    H266497   0.272   0.002   3.237  0.1952 -3.2357  0.0631
15028TIP3   OH266498   3.371   6.134   0.843 -0.1804  0.2382 -0.1230
15028TIP3    H166499   3.324   6.122   0.926 -0.1698 -0.6947 -0.2492
15028TIP3    H266500   3.381   6.229   0.835 -0.7959  0.3711  0.6038
15029TIP3   OH266501   3.589   4.209   0.550 -0.4553  0.0331 -0.7186
15029TIP3    H166502   3.633   4.292   0.567  0.1600 -0.8763  2.4048
15029TIP3    H266503   3.535   4.194   0.628  0.4568 -3.1194 -0.6391
15030TIP3   OH266504   3.512   2.413  13.826  0.0686  0.5508 -1.1914
15030TIP3    H166505   3.520   2.338  13.884  2.2911 -0.1526 -2.3507
15030TIP3    H266506   3.499   2.488  13.884 -2.4423 -0.7277 -0.0332
15031TIP3   OH266507   4.435   1.365   2.381  0.5027 -0.5531  0.2524
15031TIP3    H166508   4.439   1.278   2.420  4.0475 -0.5939 -0.0759
15031TIP3    H266509   4.369   1.411   2.432 -1.1640 -3.2835  0.6603
15032TIP3   OH266510   4.842   6.055   2.704  0.0713  0.1118 -0.0732
15032TIP3    H166511   4.883   6.052   2.791  1.8770  2.0930 -0.8126
15032TIP3    H266512   4.915   6.056   2.643 -1.2095 -2.3861 -1.7083
15033TIP3   OH266513   4.934   1.699   3.179 -0.1148 -0.1500  0.1268
15033TIP3    H166514   4.877   1.705   3.255 -0.3836  0.1989 -0.1029
15033TIP3    H266515   5.020   1.674   3.216 -0.6471 -1.6928  0.3603
15034TIP3   OH266516   4.554   1.204  17.209 -0.2977  0.5811  0.5872
15034TIP3    H166517   4.464   1.190  17.181  0.0897  0.6239 -0.6955
15034TIP3    H266518   4.546   1.256  17.289 -1.3578  2.6443 -0.8205
15035TIP3   OH266519   1.043   4.782  15.654  0.3278  0.4630 -0.0279
15035TIP3    H166520   0.959   4.749  15.622  1.1127 -0.0750 -1.6063
15035TIP3    H266521   1.107   4.747  15.592  1.7456  0.6495  1.3161
15036TIP3   OH266522   1.111   2.079   0.699 -0.3252 -0.0700  1.0887
15036TIP3    H166523   1.044   2.136   0.662 -0.4840 -0.4034  0.8557
15036TIP3    H266524   1.186   2.090   0.642  0.1857  1.1205  1.9694
15037TIP3   OH266525   2.610   1.498  12.326 -0.5304 -0.2151 -0.2217
15037TIP3    H166526   2.587   1.483  12.418  1.9802 -1.1092  0.3110
15037TIP3    H266527   2.670   1.427  12.305 -0.2301  0.6068 -2.2569
15038TIP3   OH266528   1.980   0.666   2.254 -0.7318  0.7454 -0.0120
15038TIP3    H166529   1.986   0.761   2.259  0.6750  0.6971 -0.6700
15038TIP3    H266530   2.015   0.644   2.168 -1.5290 -0.3352 -0.0686
15039TIP3   OH266531   5.194   1.599  13.751  0.2669 -0.3077  0.1397
15039TIP3    H166532   5.224   1.687  13.770  0.0602 -0.4040  0.9199
15039TIP3    H266533   5.131   1.579  13.820 -0.5131 -0.6517 -0.6556
15040TIP3   OH266534   4.429   4.844  15.645 -0.3418  0.2789 -0.2024
15040TIP3    H166535   4.417   4.938  15.654 -0.4285  0.0906  1.7170
15040TIP3    H266536   4.357   4.805  15.694 -0.2313 -0.7859 -0.8680
15041TIP3   OH266537   3.936   0.962  12.698  0.5758 -0.2090 -0.0067
15041TIP3    H166538   4.001   1.011  12.749  0.8579  0.4244 -0.9562
15041TIP3    H266539   3.979   0.879  12.679  0.5658 -0.3484  0.5592
15042TIP3   OH266540   1.913   6.234  13.634 -0.2870  0.6066 -0.4207
15042TIP3    H166541   1.847   6.262  13.571 -0.6236  1.4960  0.3157
15042TIP3    H266542   1.863   6.203  13.709  0.1168  0.8723 -0.0348
15043TIP3   OH266543   5.406   1.485  14.423  0.0418  0.8688 -0.9395
15043TIP3    H166544   5.353   1.481  14.344 -1.3505 -1.0973  0.0557
15043TIP3    H266545   5.374   1.561  14.470 -1.9454 -0.3214 -0.3340
15044TIP3   OH266546   2.939   1.541   1.382 -0.5767  0.0037 -0.5106
15044TIP3    H166547   2.934   1.454   1.422  2.1856 -0.2078 -0.5457
15044TIP3    H266548   2.960   1.600   1.454  1.4646  0.0574 -1.1390
15045TIP3   OH266549   2.637   6.415  16.532  0.0765  0.1688  0.0732
15045TIP3    H166550   2.654   6.447  16.620 -1.0454 -1.3051  0.8463
15045TIP3    H266551   2.640   6.493  16.476  0.5212  1.1400  1.4476
15046TIP3   OH266552   0.768   6.626   0.821 -0.1804 -0.9962  0.4588
15046TIP3    H166553   0.752   6.716   0.791  1.5110 -1.0723 -0.6753
15046TIP3    H266554   0.772   6.634   0.916  1.1908  0.3538  0.3152
15047TIP3   OH266555   6.280   1.038  13.123  0.2699 -0.3824 -0.5661
15047TIP3    H166556   6.298   1.019  13.031 -1.0780 -0.1940 -0.8777
15047TIP3    H266557   6.229   0.963  13.153 -0.1880  0.0511 -0.2587
15048TIP3   OH266558   6.167   4.556  10.787  0.1230 -0.0393  0.1986
15048TIP3    H166559   6.221   4.590  10.715 -0.4643 -1.0028 -0.7129
15048TIP3    H266560   6.078   4.558  10.753 -0.4236  1.5386  1.7026
15049TIP3   OH266561   1.619   0.379  17.128  0.0509 -0.0355  0.2731
15049TIP3    H166562   1.541   0.336  17.094  0.3803  0.1110 -0.6844
15049TIP3    H266563   1.657   0.425  17.052  1.7051 -1.0725  0.4344
15050TIP3   OH266564   0.927   2.689   3.262 -0.7145  0.1049  0.0634
15050TIP3    H166565   0.856   2.740   3.223 -0.9964  0.0777  0.5352
15050TIP3    H266566   0.925   2.714   3.355  0.2570  0.5298 -0.0268
15051TIP3   OH266567   5.975   1.990  11.394  0.0849 -0.1581 -0.3022
15051TIP3    H166568   5.910   1.986  11.464 -2.1009 -0.1103 -2.2640
15051TIP3    H266569   5.949   1.922  11.333  2.6544 -0.9782 -0.5264
15052TIP3   OH266570   1.758   5.300  14.144 -0.0609 -0.3493  0.5911
15052TIP3    H166571   1.695   5.245  14.097 -1.1840  0.8901  0.6197
15052TIP3    H266572   1.704   5.358  14.197  1.1284  0.3075  1.0919
15053TIP3   OH266573   2.900   6.570   0.509 -0.2931 -0.2710  0.1099
15053TIP3    H166574   2.850   6.532   0.582  1.0749 -0.6345  0.8848
15053TIP3    H266575   2.917   6.660   0.537  2.1252 -1.0368  1.2868
15054TIP3   OH266576   4.932   2.074  16.289  0.4220 -0.0376 -0.3169
15054TIP3    H166577   4.840   2.055  16.311 -0.0597 -0.3906 -2.4775
15054TIP3    H266578   4.945   2.165  16.318  0.0551 -0.6847  1.9589
15055TIP3   OH266579   5.114   5.804   1.602 -0.2478  0.4885  0.0544
15055TIP3    H166580   5.205   5.810   1.630 -0.7834 -1.3664  2.3143
15055TIP3    H266581   5.068   5.870   1.654 -0.7847 -1.1022  1.6506
15056TIP3   OH266582   3.177   2.793   2.007  0.6887  0.2271  0.4225
15056TIP3    H166583   3.255   2.845   2.022  1.2839 -0.8246  0.9954
15056TIP3    H266584   3.171   2.786   1.911  1.9430 -0.6494  0.3980
15057TIP3   OH266585   1.471   2.003   4.470  0.6344  0.2792  0.1325
15057TIP3    H166586   1.504   2.013   4.381 -0.7352  2.0111 -0.2139
15057TIP3    H266587   1.382   2.039   4.467  0.4297  0.0180  2.0988
15058TIP3   OH266588   0.853   2.320   1.130  0.4321  0.0665  0.0933
15058TIP3    H166589   0.824   2.241   1.177 -3.9169  1.6426  0.2649
15058TIP3    H266590   0.832   2.301   1.038  0.4462  0.5828 -0.0140
15059TIP3   OH266591   3.500   5.769  12.792 -1.0389 -0.3944 -0.7886
15059TIP3    H166592   3.499   5.686  12.839  1.1455 -0.3449 -0.5829
15059TIP3    H266593   3.469   5.833  12.856 -0.8832 -0.7675 -0.3362
15060TIP3   OH266594   1.474   4.939   6.408 -0.6770 -0.4440 -0.0045
15060TIP3    H166595   1.435   4.965   6.325 -0.0401  0.8342  0.0873
15060TIP3    H266596   1.511   4.852   6.391 -1.0989 -0.4543 -0.8771
15061TIP3   OH266597   1.416   4.249  11.365 -0.6637 -0.1171  0.5813
15061TIP3    H166598   1.429   4.307  11.290  0.8785  1.4470  2.0099
15061TIP3    H266599   1.326   4.264  11.393 -2.2231 -2.8527 -2.6806
15062TIP3   OH266600   6.718   3.612   5.422 -0.0186 -0.0746  0.1354
15062TIP3    H166601   6.640   3.633   5.474  1.2888  2.0079  1.3209
15062TIP3    H266602   6.683   3.573   5.342 -2.4284  2.7873 -0.2963
15063TIP3   OH266603   6.188   1.951  11.638  0.1286  0.4071  0.1505
15063TIP3    H166604   6.229   2.018  11.583 -0.9590 -0.4271 -1.7115
15063TIP3    H266605   6.096   1.974  11.639 -0.0182 -0.1893  0.7733
15064TIP3   OH266606   6.198   0.472   1.500  0.1503  0.0679  0.6018
15064TIP3    H166607   6.137   0.464   1.573 -1.2194 -0.6273 -0.5714
15064TIP3    H266608   6.147   0.517   1.432  1.3967  0.7025  0.0755
15065TIP3   OH266609   0.207   6.556  11.308 -0.2014 -0.1152  0.4105
15065TIP3    H166610   0.202   6.635  11.254  0.3130 -1.5356 -1.8020
15065TIP3    H266611   0.285   6.569  11.362  0.6474  0.3325 -0.8993
15066TIP3   OH266612   5.953   1.502   1.840 -0.3163 -0.4578 -0.6305
15066TIP3    H166613   6.008   1.581   1.832  0.9171 -1.2825 -0.4987
15066TIP3    H266614   5.914   1.491   1.754  2.0209 -1.4787 -1.6137
15067TIP3   OH266615   0.984   1.685  12.249  0.0824  0.2414 -0.0910
15067TIP3    H166616   0.979   1.631  12.328 -1.5354  1.2677  0.5337
15067TIP3    H266617   0.990   1.775  12.281 -0.9944  0.7009 -1.1249
15068TIP3   OH266618   4.705   2.974   5.041  0.3055  0.4467 -0.1327
15068TIP3    H166619   4.642   3.000   4.974  1.0208  0.7040 -0.7090
15068TIP3    H266620   4.746   2.894   5.006  0.8766  0.7376 -0.1338
15069TIP3   OH266621   2.753   2.362   4.222  0.7001 -0.1758  0.2414
15069TIP3    H166622   2.810   2.290   4.248  0.0043 -0.3394  1.3388
15069TIP3    H266623   2.805   2.441   4.240  1.3029 -0.3725 -0.5783
15070TIP3   OH266624   0.848   3.618  16.167  0.7053 -0.0711 -0.1937
15070TIP3    H166625   0.907   3.545  16.148  0.5389  0.2750 -2.1143
15070TIP3    H266626   0.870   3.643  16.257  2.6287 -0.7439 -0.4476
15071TIP3   OH266627   2.706   1.563   4.699 -0.7584  0.0252  0.4923
15071TIP3    H166628   2.783   1.506   4.694 -0.2177  0.6951  1.2761
15071TIP3    H266629   2.656   1.541   4.620 -0.6716 -1.7093  0.8994
15072TIP3   OH266630   2.439   1.511   0.357  0.1309  0.0183  0.6766
15072TIP3    H166631   2.395   1.514   0.442 -1.5270  0.5581 -0.1886
15072TIP3    H266632   2.422   1.423   0.324  2.6635 -0.9642  1.8601
15073TIP3   OH266633   2.414   0.875  12.002 -0.0558 -0.4965 -0.5680
15073TIP3    H166634   2.348   0.833  11.946  0.0726 -0.0900 -1.0219
15073TIP3    H266635   2.431   0.959  11.961 -0.1870 -0.0674  0.2589
15074TIP3   OH266636   4.772   3.590  10.799  0.4057 -0.3670 -0.9272
15074TIP3    H166637   4.681   3.578  10.827 -0.0296 -0.6174 -2.3846
15074TIP3    H266638   4.765   3.636  10.716  1.5750 -1.2478 -1.5294
15075TIP3   OH266639   1.599   5.827  16.591 -0.1642  0.5538 -0.1464
15075TIP3    H166640   1.613   5.767  16.518 -2.3186 -0.8503  0.5492
15075TIP3    H266641   1.674   5.813  16.648  1.6363  1.7771 -2.0935
15076TIP3   OH266642   4.595   2.868  12.349  0.2917 -0.2265 -0.0617
15076TIP3    H166643   4.586   2.839  12.259  0.6832  2.3110 -0.9529
15076TIP3    H266644   4.681   2.912  12.352 -0.0738  0.4317  1.3302
15077TIP3   OH266645   5.854   3.669  14.770  0.1851 -0.6429  0.4922
15077TIP3    H166646   5.835   3.643  14.680 -1.5863  1.4066  0.2220
15077TIP3    H266647   5.942   3.706  14.766  0.8514 -2.2190 -0.0051
15078TIP3   OH266648   0.026   5.743   3.144 -0.1184 -0.4738 -0.1637
15078TIP3    H166649   0.018   5.836   3.123  0.1602 -0.2216  0.8304
15078TIP3    H266650   0.102   5.738   3.201 -1.2199 -1.0667  1.2682
15079TIP3   OH266651   6.379   0.778   1.658  0.2437  0.5207 -0.3233
15079TIP3    H166652   6.443   0.714   1.690 -0.8320 -1.0768 -1.2642
15079TIP3    H266653   6.331   0.805   1.736 -1.2591 -2.0870 -0.2902
15080TIP3   OH266654   0.676   3.284  11.614  0.3201  0.2791 -0.1920
15080TIP3    H166655   0.615   3.268  11.686 -1.1348  1.5970 -1.0888
15080TIP3    H266656   0.627   3.338  11.553  1.2882 -1.3966 -2.5337
15081TIP3   OH266657   4.433   6.396   1.128 -0.4210 -0.3206 -0.2118
15081TIP3    H166658   4.468   6.409   1.039 -1.5479 -0.0322 -0.6156
15081TIP3    H266659   4.381   6.316   1.122  0.4134 -0.9214  0.4701
15082TIP3   OH266660   5.181   2.504   2.332  0.1264  0.1786  0.1958
15082TIP3    H166661   5.096   2.532   2.298 -0.5716 -0.3733  1.4599
15082TIP3    H266662   5.178   2.409   2.327  0.8327  0.1709 -0.1157
15083TIP3   OH266663   3.441   2.206  12.048 -0.3006 -0.2619  0.0420
15083TIP3    H166664   3.503   2.156  11.995 -1.4475 -3.1086  1.3216
15083TIP3    H266665   3.457   2.177  12.138 -1.1835  1.4952  0.7898
15084TIP3   OH266666   3.040   6.219  17.179 -0.4098 -0.1880  0.0001
15084TIP3    H166667   2.955   6.186  17.209 -1.4505  0.2447 -2.3626
15084TIP3    H266668   3.098   6.143  17.185 -1.6883 -1.2890 -1.1771
15085TIP3   OH266669   3.288   6.105   5.445  0.1654 -0.2778 -0.4026
15085TIP3    H166670   3.313   6.196   5.431  0.5274 -0.2917  0.1380
15085TIP3    H266671   3.264   6.100   5.538 -1.9705 -0.2407 -0.9409
15086TIP3   OH266672   0.189   3.118  15.406 -0.1021 -0.3884 -0.1072
15086TIP3    H166673   0.099   3.117  15.374 -0.1811 -0.0399  0.0885
15086TIP3    H266674   0.187   3.062  15.484  0.0750 -1.1775 -0.6718
15087TIP3   OH266675   4.947   3.723   4.159 -0.1300  0.3085 -0.6254
15087TIP3    H166676   5.001   3.665   4.213  0.6614  1.3744 -0.2641
15087TIP3    H266677   4.857   3.699   4.181  0.1870  0.1940  0.5785
15088TIP3   OH266678   2.380   3.259  14.599  1.0704  0.2999  0.1794
15088TIP3    H166679   2.404   3.346  14.567 -1.3817  1.8563  2.3409
15088TIP3    H266680   2.439   3.244  14.673  2.3074 -0.4285 -0.9392
15089TIP3   OH266681   4.145   1.262  12.542  0.6811 -0.5898 -0.0522
15089TIP3    H166682   4.068   1.218  12.506 -0.4742  0.1588  1.4557
15089TIP3    H266683   4.218   1.202  12.524 -0.4702 -1.9230 -0.2953
15090TIP3   OH266684   3.494   2.698  17.086 -0.5785 -0.1199 -0.1058
15090TIP3    H166685   3.580   2.662  17.105  0.0378 -0.6734 -3.6516
15090TIP3    H266686   3.433   2.626  17.102 -0.5699  0.4809  3.1218
15091TIP3   OH266687   5.150   4.132  15.297 -0.4910  1.0597  0.2527
15091TIP3    H166688   5.202   4.102  15.371  0.5292  0.0385 -0.8659
15091TIP3    H266689   5.077   4.180  15.337  0.7401  1.6289  1.8633
15092TIP3   OH266690   0.895   1.927   5.952 -0.1606  0.1855  0.0032
15092TIP3    H166691   0.918   1.839   5.983  1.9560  0.5647 -0.4097
15092TIP3    H266692   0.898   1.982   6.031  0.5804  0.2801 -0.0927
15093TIP3   OH266693   3.595   6.645   0.490 -0.2021  0.3044  0.0637
15093TIP3    H166694   3.543   6.718   0.524 -0.3885 -0.5468  1.6493
15093TIP3    H266695   3.530   6.582   0.458 -0.1326 -0.4534  1.4040
15094TIP3   OH266696   0.865   4.131   2.277  0.2283 -0.6956  0.1195
15094TIP3    H166697   0.807   4.109   2.350 -2.9345 -2.0006 -2.6550
15094TIP3    H266698   0.889   4.046   2.239  2.2998 -0.0654 -0.0414
15095TIP3   OH266699   5.889   1.059  17.071 -0.2705  0.6638 -0.0778
15095TIP3    H166700   5.870   1.006  17.148  2.1884 -1.6679 -0.9870
15095TIP3    H266701   5.857   1.007  16.997  0.6588  1.2062 -0.8807
15096TIP3   OH266702   5.549   1.248  14.977  0.2550  0.3537 -0.4446
15096TIP3    H166703   5.473   1.305  14.979  0.0244  0.0092  0.7841
15096TIP3    H266704   5.523   1.175  14.921 -0.6595 -0.2363  0.7360
15097TIP3   OH266705   6.784   4.925  12.543  0.2256 -0.2897  0.2465
15097TIP3    H166706   6.815   4.983  12.612 -2.4167  0.1916  1.1113
15097TIP3    H266707   6.769   4.841  12.586 -0.9852 -0.1201  0.1886
15098TIP3   OH266708   2.023   0.818   0.662 -0.4120 -0.0237 -0.3948
15098TIP3    H166709   2.059   0.835   0.749  0.4802 -0.7458 -0.6171
15098TIP3    H266710   2.080   0.866   0.602  0.0434 -0.9463 -0.7215
15099TIP3   OH266711   4.532   1.282  11.814 -0.3806  0.2933 -0.1144
15099TIP3    H166712   4.605   1.228  11.785 -0.9956 -0.1104 -0.9497
15099TIP3    H266713   4.464   1.220  11.838 -1.0863  0.6755 -1.0609
15100TIP3   OH266714   0.570   4.946  13.370  0.0555  0.1141 -0.3399
15100TIP3    H166715   0.547   4.905  13.453 -0.6614 -0.5089 -0.8373
15100TIP3    H266716   0.506   4.911  13.308 -0.7277  2.1637 -0.7349
15101TIP3   OH266717   5.532   2.487  13.774 -0.2042  0.4655  0.6032
15101TIP3    H166718   5.566   2.575  13.786  0.1060  0.4234  0.0413
15101TIP3    H266719   5.547   2.467  13.682 -1.5076  0.3446  0.4121
15102TIP3   OH266720   3.356   6.065  13.887  0.1349  0.0043  0.2329
15102TIP3    H166721   3.426   6.079  13.951 -0.9344  0.9708  1.2335
15102TIP3    H266722   3.286   6.023  13.937  0.6813 -2.7073 -1.1982
15103TIP3   OH266723   0.034   3.880   3.386 -0.9871 -0.4910 -0.4056
15103TIP3    H166724  -0.022   3.857   3.460 -1.9880  0.6481 -0.8005
15103TIP3    H266725   0.085   3.955   3.417 -2.0834  0.5913 -1.1638
15104TIP3   OH266726   5.075   5.763   5.936  0.6026 -0.5058 -0.0015
15104TIP3    H166727   4.998   5.752   5.881  1.8384  0.3068 -1.9389
15104TIP3    H266728   5.054   5.715   6.016 -1.5424 -1.0443 -0.8425
15105TIP3   OH266729   5.000   6.239  15.323  0.0022  0.1644 -0.1504
15105TIP3    H166730   5.055   6.161  15.315  0.2024  0.3275 -0.3678
15105TIP3    H266731   4.911   6.208  15.309 -0.0673 -0.2710  1.1412
15106TIP3   OH266732   4.784   3.589  11.352  0.2478  0.0621 -0.4740
15106TIP3    H166733   4.726   3.599  11.276  1.6299 -0.4282 -1.6133
15106TIP3    H266734   4.844   3.519  11.327  1.5066  0.7481  0.5858
15107TIP3   OH266735   2.686   4.711  14.582 -0.0505  0.4972 -0.0226
15107TIP3    H166736   2.610   4.709  14.640 -0.0014 -0.6597  0.0051
15107TIP3    H266737   2.695   4.804  14.558 -0.1960  0.9563  1.6352
15108TIP3   OH266738   0.885   3.990  12.134 -0.7034  0.3334 -0.3984
15108TIP3    H166739   0.954   3.983  12.068 -0.6853 -2.7510 -0.1418
15108TIP3    H266740   0.905   4.070  12.182  1.4177  0.6479 -1.7511
15109TIP3   OH266741   3.704   2.291  14.277  0.4790  0.5796  0.0159
15109TIP3    H166742   3.662   2.351  14.215  0.9509  0.0619 -0.8198
15109TIP3    H266743   3.768   2.244  14.224 -1.2280 -2.0383  0.2244
15110TIP3   OH266744   4.245   4.539   4.910  0.2365  0.0955 -0.1913
15110TIP3    H166745   4.223   4.554   4.818 -1.2676 -2.0181 -0.2192
15110TIP3    H266746   4.326   4.489   4.907  0.0487 -0.2011 -0.3912
15111TIP3   OH266747   4.490   4.479   2.334  0.0334 -0.2976  0.7889
15111TIP3    H166748   4.432   4.439   2.399 -0.3665 -0.1631  0.5195
15111TIP3    H266749   4.559   4.520   2.386 -0.6749  0.4321  1.1767
15112TIP3   OH266750   0.711   4.045  13.480  0.1784  0.3101 -0.3697
15112TIP3    H166751   0.618   4.046  13.458 -0.1679 -0.8909  0.8927
15112TIP3    H266752   0.712   4.042  13.576  1.5139  0.2836 -0.3763
15113TIP3   OH266753   3.562   1.830  12.572 -0.1461  0.4364  0.2356
15113TIP3    H166754   3.510   1.902  12.608 -1.5606 -0.0826 -0.7258
15113TIP3    H266755   3.639   1.872  12.535 -0.8387  1.4340 -0.0984
15114TIP3   OH266756   4.430   3.159   4.550 -0.4350 -0.2054 -0.0832
15114TIP3    H166757   4.413   3.079   4.500  0.2598 -0.2354 -0.2716
15114TIP3    H266758   4.525   3.164   4.556 -0.4377  1.1799 -1.0081
15115TIP3   OH266759   1.226   3.148  14.169  0.0181  0.2820  0.1869
15115TIP3    H166760   1.137   3.139  14.133  1.2749 -2.5796 -2.3883
15115TIP3    H266761   1.222   3.100  14.253 -1.0947  1.0225  0.5800
15116TIP3   OH266762   0.449   2.956   0.705  0.1510  0.1655 -0.3270
15116TIP3    H166763   0.505   2.886   0.738 -0.3267 -0.7264 -1.3817
15116TIP3    H266764   0.496   2.992   0.630  1.4405  2.4860  1.5255
15117TIP3   OH266765   4.430   1.722   4.867 -0.1408  0.0831 -0.3324
15117TIP3    H166766   4.481   1.802   4.853 -1.3203  0.8842 -0.0927
15117TIP3    H266767   4.492   1.651   4.850  0.3426  1.0354 -2.6863
15118TIP3   OH266768   2.648   2.650  14.498 -0.3818  0.5175  0.4191
15118TIP3    H166769   2.673   2.687  14.583 -0.6674 -0.5527  0.9923
15118TIP3    H266770   2.563   2.690  14.478  1.7670  4.2850 -1.6156
15119TIP3   OH266771   1.800   4.923   3.365 -0.0106  0.0551 -0.2880
15119TIP3    H166772   1.793   4.937   3.270 -1.0136 -0.9493 -0.3643
15119TIP3    H266773   1.849   4.999   3.396 -0.1780  0.6884 -1.5284
15120TIP3   OH266774   4.800   5.626  15.176  0.1890 -0.4347 -0.6848
15120TIP3    H166775   4.839   5.688  15.113 -0.0643 -0.0656 -0.4793
15120TIP3    H266776   4.723   5.591  15.131 -0.2209  0.1300 -0.4325
15121TIP3   OH266777   6.220   1.945  11.011  0.1977  0.2066  0.7874
15121TIP3    H166778   6.285   1.931  11.080  0.5903 -1.2918  0.1223
15121TIP3    H266779   6.267   1.989  10.941  0.3176 -0.1738  0.6263
15122TIP3   OH266780   6.429   5.728   1.124  0.2000 -0.4728 -0.0205
15122TIP3    H166781   6.477   5.804   1.156  0.4876 -0.8776  0.5131
15122TIP3    H266782   6.376   5.762   1.052 -0.4703  0.4422  0.8850
15123TIP3   OH266783   6.688   1.090   5.327  0.5334  0.0377 -0.3810
15123TIP3    H166784   6.740   1.125   5.399  0.3351  0.2855 -0.3606
15123TIP3    H266785   6.685   0.996   5.344 -0.0119  0.1703  0.2525
15124TIP3   OH266786   5.621   1.869  12.978 -0.2054 -0.2729 -0.1589
15124TIP3    H166787   5.640   1.776  12.991  0.5075 -0.2667 -1.1726
15124TIP3    H266788   5.692   1.901  12.922 -0.9397  0.6792 -0.5595
15125TIP3   OH266789   4.573   0.949   1.629 -0.3240  0.6839  0.6731
15125TIP3    H166790   4.514   1.014   1.592 -0.7737  0.6758  1.3787
15125TIP3    H266791   4.517   0.891   1.680  0.1674  0.1514  0.6176
15126TIP3   OH266792   5.796   5.805   2.351  0.2858 -0.3043  0.0481
15126TIP3    H166793   5.876   5.796   2.299  0.2302  0.0948 -0.1080
15126TIP3    H266794   5.778   5.898   2.350  0.9080 -0.1459  1.7068
15127TIP3   OH266795   1.224   2.182  13.917  0.1928  0.1099  0.2067
15127TIP3    H166796   1.171   2.242  13.864 -0.4062 -2.0861 -1.7405
15127TIP3    H266797   1.294   2.237  13.952 -2.0542  2.6014  0.9927
15128TIP3   OH266798   0.875   4.402  14.954  0.1239  0.2271  0.3431
15128TIP3    H166799   0.949   4.341  14.946 -0.1458 -0.0459 -0.0981
15128TIP3    H266800   0.894   4.452  15.033  0.0200 -0.8984  1.0980
15129TIP3   OH266801   5.507   0.067   3.406 -0.1045  0.8413  0.4881
15129TIP3    H166802   5.541   0.081   3.317 -0.6396  0.3223  0.1952
15129TIP3    H266803   5.495   0.155   3.441  0.7703  1.0452  0.3050
15130TIP3   OH266804   0.148   5.835   4.077  0.5272 -0.0067 -0.1807
15130TIP3    H166805   0.182   5.788   4.001  0.0052  1.6532 -1.4762
15130TIP3    H266806   0.066   5.874   4.046  0.5176  1.0338  1.1237
15131TIP3   OH266807   1.131   2.170  15.152 -0.5809  0.6468 -0.1002
15131TIP3    H166808   1.170   2.132  15.231 -1.9678 -0.7763 -0.0712
15131TIP3    H266809   1.037   2.165  15.167 -0.8400  4.5605  0.0806
15132TIP3   OH266810   1.232   2.394   5.897  0.0545  0.0878  0.1785
15132TIP3    H166811   1.303   2.457   5.885  0.3264 -0.0678  0.9105
15132TIP3    H266812   1.198   2.413   5.985 -0.4770 -0.1713  0.0330
15133TIP3   OH266813   6.739   6.744  12.448  0.1100  0.0083 -0.7326
15133TIP3    H166814   6.678   6.795  12.394 -0.5950  0.6118  0.6086
15133TIP3    H266815   6.817   6.798  12.453 -0.3668  0.6396  0.0702
15134TIP3   OH266816   6.204   3.034  13.197  0.0878 -0.4027 -0.2971
15134TIP3    H166817   6.285   3.079  13.222 -0.7886  1.3742 -0.5672
15134TIP3    H266818   6.168   3.002  13.280  1.6579 -2.2567 -0.3035
15135TIP3   OH266819   5.984   6.407  10.998 -0.0172 -0.3505  0.0862
15135TIP3    H166820   5.920   6.337  11.008  0.6406 -1.4418 -2.8889
15135TIP3    H266821   5.935   6.479  10.959  0.2830 -0.7301 -0.9944
15136TIP3   OH266822   4.186   5.805  13.190 -0.8092 -0.1068  0.4825
15136TIP3    H166823   4.274   5.800  13.228 -1.4056 -0.5710  1.8253
15136TIP3    H266824   4.138   5.733  13.231 -1.8425  0.1827 -0.2021
15137TIP3   OH266825   6.308   2.104  16.784 -0.1663  0.0974 -0.7851
15137TIP3    H166826   6.380   2.041  16.793 -0.5183 -0.2705 -0.5352
15137TIP3    H266827   6.318   2.139  16.696  0.9098  0.7732 -0.4012
15138TIP3   OH266828   6.412   2.925  13.518 -0.3641 -0.3683  0.0654
15138TIP3    H166829   6.462   2.862  13.467  0.8166 -0.2493  1.0562
15138TIP3    H266830   6.406   3.002  13.461 -1.1016 -1.0803 -0.8190
15139TIP3   OH266831   6.274   3.792  15.297  0.7901 -0.2515 -0.2230
15139TIP3    H166832   6.258   3.824  15.385 -0.7296  0.9423 -0.9276
15139TIP3    H266833   6.261   3.867  15.240  0.9253 -1.2051 -1.5565
15140TIP3   OH266834   4.737   3.473  14.121  0.2561 -0.2403  0.1739
15140TIP3    H166835   4.825   3.504  14.100  0.6776 -0.0497  2.0866
15140TIP3    H266836   4.749   3.413  14.195 -1.0884 -1.1743 -0.3347
15141TIP3   OH266837   0.108   0.351  13.181 -0.4255  0.5099 -0.7685
15141TIP3    H166838   0.109   0.439  13.218  0.5777  0.0884  0.2511
15141TIP3    H266839   0.167   0.300  13.238  0.0832 -0.4792 -2.1375
15142TIP3   OH266840   5.019   0.476   4.562  0.3641 -0.0104  0.2264
15142TIP3    H166841   5.098   0.426   4.543  0.4476 -0.1333  0.8784
15142TIP3    H266842   5.028   0.502   4.654 -0.3047  0.0617  0.2765
15143TIP3   OH266843   0.742   1.883  16.271  0.3539 -0.3535  0.4671
15143TIP3    H166844   0.820   1.921  16.312  0.2742  0.5708 -0.1976
15143TIP3    H266845   0.746   1.790  16.292  0.3551  0.0829  2.4834
15144TIP3   OH266846   0.591   5.554  15.425 -0.1513 -0.2188 -0.2902
15144TIP3    H166847   0.611   5.460  15.430  0.0881 -0.2245 -1.3360
15144TIP3    H266848   0.668   5.593  15.383  0.9603  0.8556  2.6051
15145TIP3   OH266849   4.563   3.944  13.700  0.3847  0.0644 -0.2304
15145TIP3    H166850   4.532   4.007  13.766  1.5905 -0.3323  0.7333
15145TIP3    H266851   4.559   3.859  13.743 -0.4195 -0.4257 -1.2469
15146TIP3   OH266852   1.772   6.721  11.756  0.4064  0.3168 -0.0771
15146TIP3    H166853   1.729   6.723  11.671  0.5180  2.7127 -0.0882
15146TIP3    H266854   1.802   6.630  11.765 -1.3796 -0.4691 -1.6740
15147TIP3   OH266855   5.387   5.929   4.104  0.3208 -0.1301 -0.3721
15147TIP3    H166856   5.463   5.897   4.153  1.5480  2.3852 -0.5508
15147TIP3    H266857   5.315   5.927   4.167  1.2661  0.5142  0.7544
15148TIP3   OH266858   6.293   5.140   1.508 -0.0135 -0.3535 -0.1273
15148TIP3    H166859   6.318   5.174   1.594 -0.8975  0.6204 -0.2554
15148TIP3    H266860   6.209   5.181   1.489 -0.3207 -1.3637 -1.0055
15149TIP3   OH266861   4.039   5.593   4.807  0.0688  0.1399 -0.3260
15149TIP3    H166862   4.087   5.668   4.773  0.2714  0.6424  1.0260
15149TIP3    H266863   3.953   5.628   4.830  0.9880  0.5683  2.6875
15150TIP3   OH266864   4.305   3.143   1.919  0.1106  0.0481  0.0161
15150TIP3    H166865   4.238   3.114   1.858  0.3846  0.4785 -0.4962
15150TIP3    H266866   4.257   3.167   1.998 -0.3638  0.5597 -0.4223
15151TIP3   OH266867   1.106   4.285  14.772 -0.1789  0.0192  0.6522
15151TIP3    H166868   1.187   4.278  14.722  0.6848 -0.0233  2.0374
15151TIP3    H266869   1.050   4.342  14.718  0.7651  0.0625 -0.3058
15152TIP3   OH266870   1.996   3.281   1.028 -0.1778  0.1270  0.3186
15152TIP3    H166871   1.913   3.234   1.019 -0.9404  1.2164  1.4215
15152TIP3    H266872   2.041   3.237   1.100 -1.3700  1.7077  2.0852
15153TIP3   OH266873   2.883   0.398   2.608  0.3492  0.2782  0.5304
15153TIP3    H166874   2.939   0.343   2.553  0.8546  0.7933  0.5241
15153TIP3    H266875   2.796   0.358   2.601  0.4297  0.2727 -0.5559
15154TIP3   OH266876   6.765   5.008   4.820 -0.3716  0.1219  0.0534
15154TIP3    H166877   6.679   5.018   4.779  0.2103  1.0902 -0.9740
15154TIP3    H266878   6.761   4.924   4.866 -1.2748 -0.6988 -1.4792
15155TIP3   OH266879   3.435   6.097  15.000 -0.3418  0.7299 -0.2218
15155TIP3    H166880   3.503   6.084  15.066 -0.5218 -1.5530 -0.4431
15155TIP3    H266881   3.372   6.157  15.042  0.2922  0.4825  1.1003
15156TIP3   OH266882   6.565   4.515   4.966  1.1716  0.1997 -0.5225
15156TIP3    H166883   6.591   4.437   5.014  2.5498  0.0963 -1.4088
15156TIP3    H266884   6.616   4.511   4.885 -0.1691  1.0238 -1.4298
15157TIP3   OH266885   1.260   6.516   4.871  0.3259 -0.1150  0.1327
15157TIP3    H166886   1.292   6.430   4.898 -0.5687 -0.3982  0.3243
15157TIP3    H266887   1.270   6.570   4.949 -0.2060 -0.3547  0.3679
15158TIP3   OH266888   2.940   5.532  16.703 -0.6934  0.0633  0.0994
15158TIP3    H166889   2.993   5.608  16.680 -0.2136 -0.6155 -1.1042
15158TIP3    H266890   2.977   5.500  16.785  0.4060 -0.0887 -0.4602
15159TIP3   OH266891   6.748   5.833  16.946 -0.5152 -0.2643 -0.1960
15159TIP3    H166892   6.830   5.844  16.897  0.8610  0.5717  2.2024
15159TIP3    H266893   6.704   5.917  16.938  0.1785  0.2021  0.8054
15160TIP3   OH266894   5.344   1.611   2.896  0.4064  0.1215 -0.3421
15160TIP3    H166895   5.422   1.561   2.871  0.4226  0.1736 -0.3957
15160TIP3    H266896   5.275   1.579   2.839  0.5729  0.6331 -0.8404
15161TIP3   OH266897   0.243   2.784  14.093 -0.6076  0.5482  0.0696
15161TIP3    H166898   0.179   2.733  14.142 -0.0439 -1.9243 -1.6670
15161TIP3    H266899   0.262   2.731  14.016  1.7519  2.3475 -0.6499
15162TIP3   OH266900   4.743   4.270   4.729  0.6930 -0.3190 -0.0457
15162TIP3    H166901   4.741   4.287   4.823 -0.2230  0.1703 -0.1575
15162TIP3    H266902   4.797   4.340   4.693 -1.1889  1.0807 -0.2170
15163TIP3   OH266903   0.677   4.309  15.474 -0.0199 -0.0189  0.1121
15163TIP3    H166904   0.602   4.305  15.414 -0.0339 -0.3218  0.1478
15163TIP3    H266905   0.686   4.220  15.507 -0.1374  0.1975  0.7211
15164TIP3   OH266906   2.129   4.690   6.569 -0.3088 -0.3500  0.3413
15164TIP3    H166907   2.224   4.697   6.558 -0.4353  1.3755  0.1958
15164TIP3    H266908   2.098   4.653   6.487  0.2753 -1.3382  0.5545
15165TIP3   OH266909   1.596   4.835   4.182  0.1542 -0.1099  1.0108
15165TIP3    H166910   1.562   4.833   4.272 -1.4418 -0.2271  0.4206
15165TIP3    H266911   1.605   4.928   4.162  0.1984 -0.0789  1.1739
15166TIP3   OH266912   1.890   3.352  16.448  0.1627 -0.2347  0.2450
15166TIP3    H166913   1.873   3.426  16.390  2.6186 -1.0951 -1.6871
15166TIP3    H266914   1.804   3.326  16.481 -1.0216  1.7349 -1.2190
15167TIP3   OH266915   5.272   4.573  15.894  0.7561 -0.7485  0.2424
15167TIP3    H166916   5.327   4.616  15.829  0.1161 -1.7125 -0.9426
15167TIP3    H266917   5.182   4.592  15.865  0.4485 -0.0038  1.6202
15168TIP3   OH266918   2.744   5.483   0.226  0.9042 -0.0367  0.2933
15168TIP3    H166919   2.823   5.528   0.256  1.4166 -0.0757 -0.9543
15168TIP3    H266920   2.727   5.416   0.292  2.2744 -0.4339  0.2506
15169TIP3   OH266921   1.575   1.942   5.837  0.4544 -0.8199  0.2036
15169TIP3    H166922   1.564   1.899   5.922  1.1674 -0.8349  0.2861
15169TIP3    H266923   1.653   1.996   5.847 -0.6028  0.7710  0.2188
15170TIP3   OH266924   1.972   0.657  16.789  0.5666  0.1218  0.0422
15170TIP3    H166925   2.029   0.735  16.789  1.5590 -0.5921 -0.7830
15170TIP3    H266926   1.900   0.681  16.731  0.4331  0.7333  0.4510
15171TIP3   OH266927   6.158   6.362   0.899 -0.5818  0.0083 -0.0771
15171TIP3    H166928   6.236   6.388   0.947 -1.5282 -0.1033  1.5337
15171TIP3    H266929   6.108   6.443   0.889 -0.8169 -0.1413 -0.1028
15172TIP3   OH266930   3.633   0.458  12.476  0.3563  0.2458 -0.2748
15172TIP3    H166931   3.664   0.497  12.557 -2.4245  0.5853  0.6910
15172TIP3    H266932   3.709   0.459  12.418  2.5937 -0.6383  2.5163
15173TIP3   OH266933   2.072   2.734   0.897  0.3957  0.0670 -0.1075
15173TIP3    H166934   2.077   2.714   0.990 -0.1820 -2.3406 -0.5566
15173TIP3    H266935   2.003   2.800   0.890  1.7307  1.6389  1.3481
15174TIP3   OH266936   0.161   3.757   5.445 -0.4168  0.1617  0.3235
15174TIP3    H166937   0.078   3.714   5.425  0.9918 -2.1519 -0.7446
15174TIP3    H266938   0.182   3.806   5.366 -1.4146  1.8816  1.0968
15175TIP3   OH266939   0.643   1.806   2.972  0.2521  0.0687 -0.2849
15175TIP3    H166940   0.638   1.858   3.053 -0.3833  0.7229 -0.7341
15175TIP3    H266941   0.675   1.868   2.906  1.4647 -0.6554 -0.3806
15176TIP3   OH266942   5.598   3.473  14.654  0.2209  0.4861 -0.2412
15176TIP3    H166943   5.509   3.505  14.647  0.0323  0.0160 -0.0252
15176TIP3    H266944   5.627   3.502  14.740 -0.2407 -0.6328  0.3022
15177TIP3   OH266945   3.803   2.950  11.278  0.1954  0.1938  0.4852
15177TIP3    H166946   3.733   2.933  11.341 -0.6809  0.6562 -0.3530
15177TIP3    H266947   3.808   2.870  11.225 -1.2518  0.9995 -0.9135
15178TIP3   OH266948   0.055   0.054  16.812  0.3875 -0.2950 -0.5890
15178TIP3    H166949   0.055   0.143  16.776 -0.6976 -0.6375 -1.4783
15178TIP3    H266950   0.146   0.038  16.837  0.7086  0.8402 -1.0016
15179TIP3   OH266951   6.388   1.907   4.878  0.2556  0.2693  0.6287
15179TIP3    H166952   6.317   1.935   4.935  2.1271  0.9035  2.7156
15179TIP3    H266953   6.397   1.813   4.894 -1.7623 -0.3370 -1.5569
15180TIP3   OH266954   2.496   4.893   2.587  0.6320 -0.6630  0.0709
15180TIP3    H166955   2.507   4.798   2.585  0.2927 -0.7072  0.2438
15180TIP3    H266956   2.480   4.913   2.679  1.9745 -0.2947  0.2221
15181TIP3   OH266957   2.915   5.937   2.241 -0.2955 -0.0815 -0.1036
15181TIP3    H166958   2.899   6.024   2.279  0.4928  0.5392 -1.1512
15181TIP3    H266959   3.000   5.947   2.197  0.8753 -2.0063  1.6149
15182TIP3   OH266960   6.701   5.624   4.406 -0.6801  0.6095  0.1610
15182TIP3    H166961   6.771   5.645   4.467  0.5486  2.0331 -1.6694
15182TIP3    H266962   6.739   5.559   4.347 -1.8053 -0.6548  0.8178
15183TIP3   OH266963   5.594   4.323  16.063  0.6024 -0.4082 -0.0324
15183TIP3    H166964   5.679   4.284  16.083 -0.1609 -2.3823 -0.5239
15183TIP3    H266965   5.563   4.275  15.986 -0.5181  0.9679 -0.4639
15184TIP3   OH266966   4.964   1.386   2.075 -0.3511 -0.1161  0.0542
15184TIP3    H166967   4.875   1.410   2.048  0.0091  2.2240  0.9030
15184TIP3    H266968   5.020   1.454   2.038  1.2731 -2.2759 -1.5711
15185TIP3   OH266969   3.275   4.501   0.938 -0.4273 -0.0027 -0.0299
15185TIP3    H166970   3.342   4.468   0.998 -2.4093 -0.5850  1.9410
15185TIP3    H266971   3.324   4.530   0.861  1.9444 -1.8678  0.7018
15186TIP3   OH266972   4.770   2.243   0.802 -0.2417  0.1380 -1.0518
15186TIP3    H166973   4.861   2.272   0.801 -0.4618  0.9064  0.5202
15186TIP3    H266974   4.722   2.312   0.756 -0.1358  0.0635 -1.2747
15187TIP3   OH266975   5.249   4.231  14.795 -0.5277  0.0214 -0.5296
15187TIP3    H166976   5.222   4.177  14.870 -0.2950 -1.5973 -1.5738
15187TIP3    H266977   5.182   4.298  14.789 -0.0928  0.7111  1.6572
15188TIP3   OH266978   6.471   0.294   5.156 -0.7356 -0.3695 -0.7199
15188TIP3    H166979   6.400   0.358   5.164 -0.6629 -0.3944  0.2595
15188TIP3    H266980   6.551   0.347   5.165 -0.6419 -0.3828 -1.5027
15189TIP3   OH266981   0.121   2.015   1.993  0.0625 -0.3886 -0.3186
15189TIP3    H166982   0.089   1.978   2.075 -1.8976 -0.7236 -1.2231
15189TIP3    H266983   0.210   2.046   2.014 -0.0642 -1.3128  1.6641
15190TIP3   OH266984   5.688   5.388   1.583  0.1216 -1.0899  0.0063
15190TIP3    H166985   5.765   5.344   1.618  0.3434 -0.4396  0.3588
15190TIP3    H266986   5.708   5.481   1.592 -0.0562 -0.9041 -1.3298
15191TIP3   OH266987   4.218   6.337  16.680  0.2099  0.7463  0.0129
15191TIP3    H166988   4.293   6.374  16.632 -0.7646 -0.5052 -2.5380
15191TIP3    H266989   4.193   6.260  16.630 -0.9925 -0.5025  2.4565
15192TIP3   OH266990   5.117   6.483  11.446  0.3379 -0.0278 -0.4405
15192TIP3    H166991   5.069   6.400  11.446  0.3888 -0.0712  1.0818
15192TIP3    H266992   5.144   6.495  11.355 -0.7522 -1.0474 -0.9122
15193TIP3   OH266993   0.819   5.868   3.233 -0.4135  0.5776 -0.1452
15193TIP3    H166994   0.747   5.921   3.197  0.5590  1.8378 -0.2730
15193TIP3    H266995   0.835   5.906   3.319 -0.7280 -0.5165  0.4073
15194TIP3   OH266996   0.888   2.705   5.819  0.1649 -0.0238 -0.5935
15194TIP3    H166997   0.820   2.755   5.775  2.0871  0.3698 -3.3028
15194TIP3    H266998   0.900   2.627   5.764 -0.6574 -1.9415  1.8811
15195TIP3   OH266999   5.656   2.311  15.378 -0.4581 -0.3673 -0.1935
15195TIP3    H167000   5.665   2.315  15.473  2.1283  2.0609 -0.4364
15195TIP3    H267001   5.564   2.290  15.362 -0.7382 -1.6101  2.8225
15196TIP3   OH267002   2.223   2.024  14.348 -0.4590  0.1218 -0.4240
15196TIP3    H167003   2.313   2.035  14.316  0.9875 -2.2000  2.5054
15196TIP3    H267004   2.216   2.084  14.422 -0.7490 -0.8051  0.3236
15197TIP3   OH267005   3.481   1.151   2.315  0.1672 -0.4052  0.2072
15197TIP3    H167006   3.444   1.191   2.236 -1.8250  0.5180  1.5564
15197TIP3    H267007   3.504   1.225   2.371  2.0321 -1.0426  0.3222
15198TIP3   OH267008   5.248   1.238   4.810  0.2057  0.2503  0.8711
15198TIP3    H167009   5.194   1.264   4.884 -0.4199  0.2246  0.4219
15198TIP3    H267010   5.318   1.303   4.807  0.9684 -0.4708  2.2749
15199TIP3   OH267011   5.004   4.021   2.677  0.3114 -0.2004  0.3813
15199TIP3    H167012   5.045   3.977   2.604 -0.6361 -1.2910  0.4885
15199TIP3    H267013   4.942   3.957   2.712 -1.6196  1.4426  0.0992
15200TIP3   OH267014   1.593   3.165  13.556  0.2001 -0.0171 -0.1471
15200TIP3    H167015   1.646   3.239  13.528 -0.1949  0.3439  0.0570
15200TIP3    H267016   1.520   3.163  13.494 -1.0362  1.1950  1.2371
15201TIP3   OH267017   0.822   2.033   4.614 -0.4343 -0.3682  0.0732
15201TIP3    H167018   0.808   2.062   4.704  0.8482  0.4613  0.0252
15201TIP3    H267019   0.913   2.001   4.613 -1.0534 -2.1897 -0.4661
15202TIP3   OH267020   6.139   6.190  13.242 -0.2776  0.0725 -0.7344
15202TIP3    H167021   6.145   6.102  13.278 -0.1465  0.3954  0.0455
15202TIP3    H267022   6.057   6.190  13.192 -1.1862  0.0496  0.7436
15203TIP3   OH267023   2.392   5.275  15.499  0.3381  0.0179 -0.0658
15203TIP3    H167024   2.480   5.245  15.524  1.2405  1.0816 -1.8012
15203TIP3    H267025   2.385   5.362  15.537  0.6371  0.5276 -1.1387
15204TIP3   OH267026   0.353   2.821   1.222 -0.7628 -0.6614  0.3794
15204TIP3    H167027   0.315   2.768   1.153 -1.2584 -0.1064  0.2261
15204TIP3    H267028   0.430   2.862   1.182  0.1107 -1.9045  0.7354
15205TIP3   OH267029   2.114   0.877   2.603 -0.2931  0.2031 -0.1037
15205TIP3    H167030   2.199   0.874   2.559 -0.4433 -0.9083 -0.3229
15205TIP3    H267031   2.114   0.962   2.648  1.5471 -0.3995  1.1002
15206TIP3   OH267032   5.914   6.657  15.650  0.0668  0.4809 -0.2305
15206TIP3    H167033   5.918   6.750  15.670 -0.3349  0.4294  0.0995
15206TIP3    H267034   5.926   6.653  15.555  0.3644  0.8479 -0.2098
15207TIP3   OH267035   3.054   5.822  16.300  0.3352 -0.4717 -0.6637
15207TIP3    H167036   3.076   5.910  16.271  0.3596 -1.2546 -3.1833
15207TIP3    H267037   2.992   5.835  16.371  2.4001  1.5998  0.8365
15208TIP3   OH267038   4.121   3.416   4.563 -0.2050 -0.5703  0.2088
15208TIP3    H167039   4.182   3.404   4.636 -0.2964  1.6002  0.6707
15208TIP3    H267040   4.175   3.409   4.485 -0.2041 -3.5228  0.4243
15209TIP3   OH267041   3.938   0.215   3.338  0.1388  0.3406  0.0953
15209TIP3    H167042   3.922   0.304   3.369 -2.0645  0.0285 -0.0805
15209TIP3    H267043   3.875   0.161   3.386  2.0374 -1.2693  0.8572
15210TIP3   OH267044   5.229   2.530   1.103  0.2226 -0.0561 -0.7798
15210TIP3    H167045   5.286   2.568   1.170  0.0170  0.5728 -0.9536
15210TIP3    H267046   5.170   2.602   1.078 -0.1332 -0.4733 -1.1610
15211TIP3   OH267047   3.873   4.918  17.205 -0.2881 -0.1479  0.2522
15211TIP3    H167048   3.874   5.013  17.215 -0.7882 -0.0905 -0.1916
15211TIP3    H267049   3.896   4.904  17.113  0.4430 -0.4857  0.4841
15212TIP3   OH267050   6.661   3.980   5.683 -0.7377 -0.7666 -0.0964
15212TIP3    H167051   6.582   4.022   5.649  0.0071  1.3179  0.6649
15212TIP3    H267052   6.648   3.887   5.666 -2.2872 -0.2156 -2.1386
15213TIP3   OH267053   6.636   3.341   1.647 -0.7865 -0.6358  0.1296
15213TIP3    H167054   6.691   3.415   1.621 -0.6915 -0.7763 -0.0707
15213TIP3    H267055   6.698   3.270   1.664 -0.8965 -0.7495  0.0553
15214TIP3   OH267056   4.696   0.211  12.221  0.3720  0.5688 -0.2271
15214TIP3    H167057   4.770   0.242  12.170  0.3029  0.3867 -0.4437
15214TIP3    H267058   4.620   0.231  12.166  0.3922 -0.7535 -0.7697
15215TIP3   OH267059   0.478   3.108   2.602  0.6708 -0.1305 -0.2388
15215TIP3    H167060   0.573   3.115   2.612  0.7780 -2.6797  0.6613
15215TIP3    H267061   0.465   3.085   2.510  1.0800 -2.3389  0.2410
15216TIP3   OH267062   1.085   4.950  17.209 -0.1886 -0.1489 -0.3440
15216TIP3    H167063   1.127   4.996  17.137 -1.3608  0.1639 -0.8516
15216TIP3    H267064   1.050   4.870  17.170 -0.5013 -0.1612 -0.0500
15217TIP3   OH267065   6.744   0.308  12.714 -0.2740 -0.2493  0.3485
15217TIP3    H167066   6.763   0.368  12.642 -0.2882 -0.0157  0.5394
15217TIP3    H267067   6.789   0.346  12.789 -0.2098 -0.5238  0.4507
15218TIP3   OH267068   3.832   6.372  16.611 -0.0076  0.1951  0.4795
15218TIP3    H167069   3.811   6.457  16.651 -1.2626  0.5934 -1.0213
15218TIP3    H267070   3.809   6.308  16.678  2.5078  1.0725  2.2967
15219TIP3   OH267071   2.781   2.677   3.966  0.4393  0.0509 -0.1177
15219TIP3    H167072   2.732   2.644   3.890  0.5715 -2.1195  0.6897
15219TIP3    H267073   2.716   2.682   4.036  0.8297 -0.4359  0.2900
15220TIP3   OH267074   3.523   6.525  13.255 -0.2712  0.5049  0.2333
15220TIP3    H167075   3.604   6.576  13.260 -0.0248  0.3050 -1.3445
15220TIP3    H267076   3.488   6.544  13.167 -0.4348 -1.6348 -0.1840
15221TIP3   OH267077   3.583   4.451   4.698  0.1349 -0.5044 -0.5265
15221TIP3    H167078   3.594   4.360   4.670  0.5937 -0.3126 -0.9758
15221TIP3    H267079   3.559   4.445   4.790  0.7733 -1.0592 -0.3935
15222TIP3   OH267080   2.935   2.295  12.993 -0.4286 -0.4744 -0.4680
15222TIP3    H167081   2.961   2.218  13.045  1.9669  1.8282  1.8651
15222TIP3    H267082   2.850   2.320  13.029  0.4201  0.0654  1.2186
15223TIP3   OH267083   1.944   2.196   3.641  0.6711  0.0916  0.4738
15223TIP3    H167084   2.015   2.132   3.640  1.2724  0.7016  2.1346
15223TIP3    H267085   1.954   2.242   3.725 -1.9902 -0.1529  0.9783
15224TIP3   OH267086   3.920   1.708   2.367 -0.2816 -0.4597  0.2336
15224TIP3    H167087   3.934   1.748   2.452 -0.4457 -0.0942  0.0906
15224TIP3    H267088   3.834   1.738   2.340 -0.1743 -0.4641 -0.1212
15225TIP3   OH267089   6.235   0.532   6.000 -0.4019  0.1956 -0.2134
15225TIP3    H167090   6.201   0.619   5.976 -1.9718 -0.1932  0.5618
15225TIP3    H267091   6.209   0.521   6.092  1.6033 -0.2347  0.3261
15226TIP3   OH267092   5.235   5.789  17.099 -0.7205  0.3036 -0.6026
15226TIP3    H167093   5.197   5.747  17.021 -0.5000  0.0919 -0.5956
15226TIP3    H267094   5.159   5.815  17.151 -0.8726  0.6288 -0.9866
15227TIP3   OH267095   5.739   2.711   4.202  0.1140 -0.4383 -0.3997
15227TIP3    H167096   5.804   2.657   4.246  0.3145 -0.3574 -0.5989
15227TIP3    H267097   5.658   2.696   4.252  0.3831 -0.2118  0.1087
15228TIP3   OH267098   2.170   2.826   4.605  0.3382  0.2184  0.0434
15228TIP3    H167099   2.165   2.775   4.524  0.5497  0.4045 -0.0872
15228TIP3    H267100   2.261   2.816   4.634  0.2098 -0.0200  0.3700
15229TIP3   OH267101   4.404   3.856   5.634 -0.5468 -0.1329  0.2630
15229TIP3    H167102   4.483   3.821   5.592 -0.1726  0.9235  0.0894
15229TIP3    H267103   4.386   3.938   5.588 -0.4666  0.7423  1.7588
15230TIP3   OH267104   2.208   2.985  15.699  0.2237 -0.4344  0.8641
15230TIP3    H167105   2.243   2.977  15.610  0.3619 -0.3882  0.9139
15230TIP3    H267106   2.135   2.923  15.702  0.4690 -0.7301  0.8402
15231TIP3   OH267107   3.470   0.413  11.621  0.7040  0.4568 -0.1387
15231TIP3    H167108   3.533   0.444  11.685  0.4339  1.2283 -0.2450
15231TIP3    H267109   3.387   0.455  11.645 -0.0685 -1.4830  0.7336
15232TIP3   OH267110   1.610   1.255   2.739 -0.0545  0.2554  0.3069
15232TIP3    H167111   1.523   1.294   2.743  0.9458  2.4465  0.9604
15232TIP3    H267112   1.594   1.160   2.742 -2.3652  0.6541  0.9222
15233TIP3   OH267113   4.347   4.409   2.546  0.2918 -0.1105 -0.4240
15233TIP3    H167114   4.335   4.504   2.548 -0.4807 -0.1862 -1.1956
15233TIP3    H267115   4.259   4.373   2.554  0.6264 -0.7817  0.3467
15234TIP3   OH267116   5.402   6.728  13.169 -0.3743  0.0725 -0.1886
15234TIP3    H167117   5.457   6.769  13.103 -1.9932  1.5539 -0.6316
15234TIP3    H267118   5.339   6.675  13.120  0.2665 -1.1852  0.2980
15235TIP3   OH267119   0.552   3.518  12.114 -0.0619  0.6253  0.2343
15235TIP3    H167120   0.579   3.432  12.145  0.0104  0.3139 -0.7043
15235TIP3    H267121   0.612   3.579  12.158  0.6880  0.1052 -0.0750
15236TIP3   OH267122   0.080   5.675   0.563  0.2684 -0.1186  0.1333
15236TIP3    H167123   0.052   5.717   0.644  0.0828  0.9099 -0.4628
15236TIP3    H267124   0.112   5.589   0.591 -1.6293 -0.5562  1.0803
15237TIP3   OH267125   6.489   5.149   4.253 -0.1446  0.5206  0.1203
15237TIP3    H167126   6.581   5.169   4.233 -0.0506  0.2481  0.2840
15237TIP3    H267127   6.444   5.159   4.169  0.0103  0.7906  0.0680
15238TIP3   OH267128   3.260   2.986   0.038 -0.0399  0.0631  0.2085
15238TIP3    H167129   3.325   2.932   0.082  0.5561  1.2166  0.7716
15238TIP3    H267130   3.222   2.929  -0.029 -1.7953 -2.1183  2.9520
15239TIP3   OH267131   1.734   4.853   2.236  0.2059  0.1656 -0.0439
15239TIP3    H167132   1.643   4.824   2.244 -0.4235  2.2385  0.9102
15239TIP3    H267133   1.772   4.838   2.323  1.5218 -2.9083 -1.0789
15240TIP3   OH267134   1.682   5.220  11.175  0.2100 -0.1228  0.2494
15240TIP3    H167135   1.773   5.215  11.146  0.6709  3.4264  0.8976
15240TIP3    H267136   1.687   5.235  11.269 -1.0441  0.2480  0.2655
15241TIP3   OH267137   4.917   2.674  12.101 -0.0591 -0.2921 -0.4385
15241TIP3    H167138   4.898   2.589  12.060  0.0167 -0.6914  0.3421
15241TIP3    H267139   4.831   2.713  12.116 -0.0946 -0.2319 -0.8029
15242TIP3   OH267140   0.346   4.271  14.791  0.2221 -0.0965 -0.0020
15242TIP3    H167141   0.322   4.361  14.813 -0.1987 -0.6011  1.7042
15242TIP3    H267142   0.348   4.269  14.695 -1.4965  1.2785 -0.0818
15243TIP3   OH267143   3.079   2.190  14.889  0.5057 -0.3780 -0.2814
15243TIP3    H167144   3.104   2.213  14.979 -1.8454  0.2569  0.2327
15243TIP3    H267145   2.986   2.170  14.895  1.1846 -4.4362 -1.8024
15244TIP3   OH267146   1.905   1.459   0.985  0.5248 -0.0452  0.4103
15244TIP3    H167147   1.971   1.398   1.019 -0.0637 -0.4781  0.7870
15244TIP3    H267148   1.822   1.425   1.019 -0.0188 -0.1853 -1.0147
15245TIP3   OH267149   1.185   4.733   0.561  0.0548 -0.7523 -0.2648
15245TIP3    H167150   1.101   4.692   0.539 -0.0661 -0.4442 -0.3817
15245TIP3    H267151   1.243   4.659   0.578 -0.7228 -0.9496  1.6263
15246TIP3   OH267152   6.280   1.575  12.112 -0.1745  0.0032 -0.3071
15246TIP3    H167153   6.360   1.616  12.079 -0.8651 -0.7660 -3.0629
15246TIP3    H267154   6.306   1.535  12.195  1.6024  2.0913  0.1839
15247TIP3   OH267155   3.198   5.125   5.553 -0.1299  0.0738 -0.4202
15247TIP3    H167156   3.156   5.041   5.537  1.5323 -0.6366 -1.2204
15247TIP3    H267157   3.151   5.162   5.628 -0.6752 -1.7076  0.1328
15248TIP3   OH267158   3.706   0.165   1.543  0.2356 -0.1813 -0.1360
15248TIP3    H167159   3.637   0.225   1.571  0.9395  0.4097  0.3690
15248TIP3    H267160   3.729   0.194   1.455 -0.7612 -0.9305 -0.6475
15249TIP3   OH267161   2.587   2.384   2.286  0.0791 -0.0079 -0.4399
15249TIP3    H167162   2.501   2.349   2.265  0.0407  1.0417 -2.1413
15249TIP3    H267163   2.578   2.478   2.275  1.3307  0.1450 -0.2246
15250TIP3   OH267164   3.310   5.007   5.886 -0.1036  0.3656  0.0695
15250TIP3    H167165   3.378   4.960   5.934  1.0029 -0.1860 -1.9714
15250TIP3    H267166   3.292   4.953   5.809 -2.1062  1.0281  0.0288
15251TIP3   OH267167   2.633   0.612   6.377 -0.4163  0.5274 -0.3558
15251TIP3    H167168   2.650   0.701   6.345 -0.5589  0.0738 -1.7116
15251TIP3    H267169   2.539   0.600   6.364 -0.4179  0.2238 -0.0482
15252TIP3   OH267170   1.908   1.902  11.540 -0.0093 -0.1135  0.0372
15252TIP3    H167171   1.879   1.923  11.629 -0.7316  0.2675 -0.2912
15252TIP3    H267172   1.999   1.875  11.551 -0.1018 -0.0951  0.8992
15253TIP3   OH267173   5.379   3.007  11.861  0.4470 -0.4831  0.6892
15253TIP3    H167174   5.308   3.071  11.865  1.4454  0.6205  0.8533
15253TIP3    H267175   5.376   2.975  11.771  0.7920  0.7771  0.2184
15254TIP3   OH267176   3.945   5.030  12.355 -0.3228 -0.1068  0.0993
15254TIP3    H167177   3.896   5.092  12.301  0.0553  1.1213  1.1417
15254TIP3    H267178   3.900   5.032  12.440 -0.5186 -1.5276  0.0402
15255TIP3   OH267179   6.779   6.158   3.989  0.3388 -0.1456  0.3928
15255TIP3    H167180   6.875   6.148   3.987  0.0853 -2.8434 -2.1436
15255TIP3    H267181   6.749   6.078   4.033 -0.7628  0.6275  1.0425
15256TIP3   OH267182   0.451   0.177  16.357 -0.2043 -0.8822  0.0772
15256TIP3    H167183   0.370   0.213  16.393  0.8201  0.7429  0.8362
15256TIP3    H267184   0.432   0.164  16.264 -1.4308 -0.8405  0.3101
15257TIP3   OH267185   3.676   4.897   5.848  0.1951  0.3406  0.6021
15257TIP3    H167186   3.620   4.931   5.779  2.3514 -2.5014 -2.7586
15257TIP3    H267187   3.744   4.963   5.858  1.4248 -0.4055 -2.1277
15258TIP3   OH267188   6.163   1.251  12.222  0.3917  0.2906 -0.2078
15258TIP3    H167189   6.254   1.222  12.236  0.4589  0.2871 -0.6433
15258TIP3    H267190   6.111   1.189  12.273  0.4202 -1.6200 -2.3917
15259TIP3   OH267191   1.871   2.360   0.699  0.0650  0.1164 -0.0625
15259TIP3    H167192   1.924   2.438   0.681  2.5483 -1.3548  0.5855
15259TIP3    H267193   1.810   2.387   0.767 -0.6761  2.1022 -1.4609
15260TIP3   OH267194   0.155   6.228   4.418  0.0671  0.7245  0.5056
15260TIP3    H167195   0.180   6.158   4.357 -0.9513  0.8268 -0.0321
15260TIP3    H267196   0.172   6.191   4.504 -0.6163 -0.2642  0.2320
15261TIP3   OH267197   0.658   4.583   0.796  0.1086 -0.4222 -0.5670
15261TIP3    H167198   0.645   4.490   0.816  0.1946  0.1069  2.0960
15261TIP3    H267199   0.640   4.590   0.702 -2.1592 -2.7348 -0.3617
15262TIP3   OH267200   3.893   3.363   3.122  0.6485 -0.6907 -0.1038
15262TIP3    H167201   3.979   3.396   3.096  0.1920  0.7542  0.1676
15262TIP3    H267202   3.907   3.321   3.207  0.8144  0.9051  0.6758
15263TIP3   OH267203   5.020   0.207  16.079  0.1577  0.4864  0.5545
15263TIP3    H167204   4.976   0.268  16.020 -0.2088  0.9825  1.3437
15263TIP3    H267205   5.009   0.121  16.037 -3.0298  0.3444  1.5920
15264TIP3   OH267206   2.312   0.259  14.840  0.0715 -0.3513  0.0385
15264TIP3    H167207   2.246   0.201  14.879  1.7187 -1.5755  1.0989
15264TIP3    H267208   2.316   0.333  14.900 -0.6662 -0.0426 -0.2843
15265TIP3   OH267209   5.344   3.620  12.015 -0.0342  0.4052 -0.6523
15265TIP3    H167210   5.380   3.611  11.927  0.5267 -2.3137 -0.1997
15265TIP3    H267211   5.417   3.596  12.073 -0.2508  2.6613  0.5828
15266TIP3   OH267212   3.540   3.508  16.767  0.0678  0.0461  0.5236
15266TIP3    H167213   3.610   3.573  16.773 -0.2741  0.2969  2.2605
15266TIP3    H267214   3.576   3.432  16.813 -0.0771 -0.4853 -0.2513
15267TIP3   OH267215   0.030   3.039  11.442 -0.2248 -0.6358  0.5369
15267TIP3    H167216   0.003   2.988  11.519 -0.1832 -0.2165  0.8317
15267TIP3    H267217   0.068   2.975  11.383  0.3034 -0.8749  1.1274
15268TIP3   OH267218   0.587   4.276   2.298 -0.4420  0.0132 -0.0431
15268TIP3    H167219   0.570   4.370   2.301 -0.1788  0.0289  0.9303
15268TIP3    H267220   0.667   4.268   2.245 -0.4083  0.3394 -0.0449
15269TIP3   OH267221   2.199   0.641  13.902  0.1977 -0.1241  0.5500
15269TIP3    H167222   2.198   0.721  13.955 -1.2189  0.4631 -0.3366
15269TIP3    H267223   2.242   0.667  13.821 -0.6658 -0.1286  0.0806
15270TIP3   OH267224   3.684   6.126  11.438 -0.7954  0.1619  0.0406
15270TIP3    H167225   3.683   6.187  11.364  2.4986  3.2856  2.4056
15270TIP3    H267226   3.770   6.083  11.432 -0.6784  0.1253  1.7476
15271TIP3   OH267227   4.135   5.539  13.000 -0.2113 -1.0134  0.7747
15271TIP3    H167228   4.146   5.625  12.959  1.3964 -0.9711  1.2534
15271TIP3    H267229   4.040   5.527  13.004 -0.6155  2.1137  3.4271
15272TIP3   OH267230   3.674   4.989   1.388  0.2428 -0.1698 -0.2517
15272TIP3    H167231   3.648   4.943   1.308  0.6753 -0.3134 -0.3129
15272TIP3    H267232   3.652   5.080   1.371 -0.3123 -0.3023 -0.2606
15273TIP3   OH267233   0.860   0.542  16.559 -0.2244  0.4188 -0.5289
15273TIP3    H167234   0.934   0.560  16.616  0.7467  0.4929 -1.7856
15273TIP3    H267235   0.863   0.448  16.542  0.4383  0.6358 -1.7053
15274TIP3   OH267236   5.946   0.231   5.653  0.4803 -0.5554  0.2485
15274TIP3    H167237   5.868   0.285   5.641  1.0363  0.4698  1.2109
15274TIP3    H267238   5.925   0.175   5.728  0.4916 -0.6138  0.2079
15275TIP3   OH267239   0.270   6.041  13.071 -0.2169  0.4489 -0.5760
15275TIP3    H167240   0.243   6.101  13.001  1.3166 -0.3686 -1.9215
15275TIP3    H267241   0.343   5.992  13.033  0.1961 -0.5021  1.3853
15276TIP3   OH267242   5.854   4.702  13.906 -0.8091  0.1171  0.4476
15276TIP3    H167243   5.873   4.665  13.819 -3.3510  0.0042 -0.1185
15276TIP3    H267244   5.759   4.692  13.915 -1.2628  4.2913  1.3071
15277TIP3   OH267245   6.362   0.282   2.590  0.3608 -0.1207 -0.0168
15277TIP3    H167246   6.286   0.226   2.572 -0.1056  0.4596  0.1545
15277TIP3    H267247   6.437   0.230   2.560 -0.1142 -0.6271 -0.3396
15278TIP3   OH267248   6.522   0.038  16.768  0.2934 -0.3557  0.0377
15278TIP3    H167249   6.573   0.118  16.777  0.6177 -0.4941 -0.5881
15278TIP3    H267250   6.564  -0.024  16.828  0.8206 -0.4461 -0.4250
15279TIP3   OH267251   3.073   3.558  16.039 -0.3941  0.0025  0.8223
15279TIP3    H167252   2.980   3.544  16.022 -0.3739 -0.6477  1.2481
15279TIP3    H267253   3.117   3.484  15.997  0.0303  0.9020 -0.3608
15280TIP3   OH267254   1.593   1.937  13.177 -0.1961 -0.9664  1.2609
15280TIP3    H167255   1.552   1.894  13.102  0.5795 -0.2132  0.3911
15280TIP3    H267256   1.525   1.993  13.213 -0.7857 -1.8649  1.5610
15281TIP3   OH267257   3.122   4.977  10.592 -0.0850  0.1972 -0.5881
15281TIP3    H167258   3.185   5.020  10.534  1.6565  1.5043  2.1734
15281TIP3    H267259   3.070   4.921  10.534  2.6829  0.1582 -3.1395
15282TIP3   OH267260   6.356   1.087  14.119  0.3251  0.0263  0.0388
15282TIP3    H167261   6.403   1.110  14.199 -0.3394 -2.7287  1.3093
15282TIP3    H267262   6.363   1.164  14.064  1.5144  1.7065  2.4292
15283TIP3   OH267263   0.248   0.900  13.690  0.4224  0.1900 -0.2750
15283TIP3    H167264   0.234   0.843  13.615  2.3500 -1.1667  0.3871
15283TIP3    H267265   0.197   0.979  13.669 -0.5904 -0.9172 -2.1206
15284TIP3   OH267266   2.614   1.832  15.801 -0.2879  0.2675 -0.5903
15284TIP3    H167267   2.595   1.853  15.710 -0.7572  2.2195 -0.0820
15284TIP3    H267268   2.661   1.909  15.834 -1.1642  0.0992  1.1222
15285TIP3   OH267269   4.423   2.978   1.297  0.1720 -0.7822 -0.6790
15285TIP3    H167270   4.358   2.992   1.228 -0.0447  0.0515 -0.3098
15285TIP3    H267271   4.487   2.919   1.258  0.2261 -0.0552 -1.7168
15286TIP3   OH267272   5.143   4.479   3.083  0.5538  0.0787 -0.0159
15286TIP3    H167273   5.214   4.422   3.113  0.8182  0.8595  0.8487
15286TIP3    H267274   5.067   4.451   3.133  0.5649  0.1489  0.0395
15287TIP3   OH267275   1.502   0.918   1.864 -0.1104  0.7400  0.3762
15287TIP3    H167276   1.445   0.956   1.797  1.5766 -0.9907 -2.1200
15287TIP3    H267277   1.489   0.974   1.941 -3.8635  1.3911 -0.6385
15288TIP3   OH267278   4.486   2.987   2.622  0.7774 -0.2942 -0.8187
15288TIP3    H167279   4.554   3.003   2.556  2.1173 -0.2884  0.5544
15288TIP3    H267280   4.522   2.918   2.677 -0.1356  0.0463  0.2062
15289TIP3   OH267281   6.217   4.033   2.105 -0.2469 -0.4781 -0.2119
15289TIP3    H167282   6.272   4.001   2.034 -1.3598 -0.9338 -0.8704
15289TIP3    H267283   6.137   4.063   2.062 -0.2595  0.7857  0.6695
15290TIP3   OH267284   2.846   6.649   0.189  0.6182 -0.4012  0.2284
15290TIP3    H167285   2.755   6.663   0.215  0.7188  1.8412 -0.5109
15290TIP3    H267286   2.878   6.581   0.248 -1.0952 -0.1548  1.4678
15291TIP3   OH267287   2.432   4.513   4.537  0.0340 -0.0597  0.2686
15291TIP3    H167288   2.420   4.523   4.632 -0.0989 -0.2525  0.2719
15291TIP3    H267289   2.493   4.583   4.513  1.0839 -0.8008  0.7097
15292TIP3   OH267290   2.966   4.147  14.554  0.1414 -0.2249  0.1642
15292TIP3    H167291   3.055   4.126  14.525  0.8189 -0.6740  2.4383
15292TIP3    H267292   2.972   4.237  14.586 -0.2738 -0.1630  0.0638
15293TIP3   OH267293   6.485   1.124   4.409 -0.4818  0.6044  0.0268
15293TIP3    H167294   6.484   1.100   4.316 -2.6480  0.2901  0.1226
15293TIP3    H267295   6.490   1.041   4.456 -2.0036  0.6365  0.2430
15294TIP3   OH267296   3.662   6.239   6.550  0.1423 -0.5538  0.5854
15294TIP3    H167297   3.662   6.325   6.591 -0.1266  0.2540 -1.0538
15294TIP3    H267298   3.578   6.233   6.504  1.9609  0.1880 -3.0244
15295TIP3   OH267299   5.094   2.413  12.186  0.6750  0.1751 -0.2960
15295TIP3    H167300   5.156   2.479  12.155 -0.3747  1.4516  0.2744
15295TIP3    H267301   5.018   2.423  12.128  0.3293 -0.2177  0.0844
15296TIP3   OH267302   1.767   3.142  14.452 -0.1378  0.3897  0.3750
15296TIP3    H167303   1.828   3.142  14.527 -0.4828 -0.0695  0.6601
15296TIP3    H267304   1.821   3.166  14.377  0.0753  1.5102  0.8810
15297TIP3   OH267305   4.513   6.073  13.139  0.3689 -0.6686 -0.4306
15297TIP3    H167306   4.528   6.076  13.233  1.3489 -0.4263 -0.5840
15297TIP3    H267307   4.418   6.068  13.129  0.2184  0.2405  0.5425
15298TIP3   OH267308   5.391   1.592  11.880  0.2245  0.4366 -0.0967
15298TIP3    H167309   5.394   1.607  11.786 -2.3361  2.9283  0.1291
15298TIP3    H267310   5.460   1.648  11.916 -0.4026  1.3810 -0.3345
15299TIP3   OH267311   3.388   0.122   5.335  0.5083  0.2223 -0.4358
15299TIP3    H167312   3.431   0.096   5.254 -1.3443  0.0051 -1.3983
15299TIP3    H267313   3.418   0.059   5.400  0.9618 -0.4303 -1.2708
15300TIP3   OH267314   2.703   6.460   3.245 -0.0379 -0.5936 -0.6632
15300TIP3    H167315   2.659   6.384   3.207 -0.3410  0.5155 -2.6408
15300TIP3    H267316   2.637   6.529   3.243 -0.8121 -1.0671  4.1291
15301TIP3   OH267317   3.938   4.147   3.450 -0.6017  0.2249 -0.2300
15301TIP3    H167318   4.012   4.205   3.463 -0.0503 -0.3685 -0.7117
15301TIP3    H267319   3.952   4.075   3.512 -0.7335  0.0771 -0.3700
15302TIP3   OH267320   4.738   1.090  11.756  0.3563  0.3468 -0.2583
15302TIP3    H167321   4.824   1.125  11.730  0.0098  0.5122 -1.1950
15302TIP3    H267322   4.734   1.003  11.717  0.5152 -0.0900  0.6635
15303TIP3   OH267323   5.109   1.822  14.679  0.2215 -0.7163 -0.2297
15303TIP3    H167324   5.096   1.905  14.633  1.5796 -0.8641 -0.8820
15303TIP3    H267325   5.082   1.841  14.769 -2.8079 -0.5122 -1.0981
15304TIP3   OH267326   6.781   5.990   0.553 -0.3884 -0.2653  0.4076
15304TIP3    H167327   6.781   5.928   0.627  1.8711  0.0959  0.7217
15304TIP3    H267328   6.714   5.955   0.494 -0.8306 -1.6766  1.6873
15305TIP3   OH267329   5.766   4.266  15.730 -0.0625  0.0469  0.3849
15305TIP3    H167330   5.680   4.280  15.691 -0.2470 -0.6585  0.5454
15305TIP3    H267331   5.792   4.353  15.761  0.6003  0.8830 -2.3191
15306TIP3   OH267332   6.540   1.852   2.086 -0.0572 -0.4110  0.2728
15306TIP3    H167333   6.478   1.806   2.143 -0.1230 -1.2579 -0.4809
15306TIP3    H267334   6.492   1.928   2.054  0.3708  0.7792  2.3251
15307TIP3   OH267335   5.999   5.115  14.313 -0.0042 -0.4042 -0.1634
15307TIP3    H167336   5.984   5.205  14.341 -0.4855 -0.6801  0.4894
15307TIP3    H267337   6.000   5.119  14.217 -1.4220  0.0894 -0.1643
15308TIP3   OH267338   4.040   1.666   3.777 -0.4657 -0.8425  0.4763
15308TIP3    H167339   4.009   1.713   3.700  0.2208 -1.0696  0.0539
15308TIP3    H267340   3.961   1.625   3.814 -0.9228 -0.0539  0.3712
15309TIP3   OH267341   5.147   4.432  13.092  0.4045 -0.3307  0.3789
15309TIP3    H167342   5.103   4.349  13.109 -0.8215  0.0175 -1.0296
15309TIP3    H267343   5.231   4.407  13.052  0.3231 -0.9010  0.5619
15310TIP3   OH267344   5.331   6.672  12.277  0.3193 -0.4361 -0.6040
15310TIP3    H167345   5.271   6.746  12.270  0.9276  0.0313 -0.8946
15310TIP3    H267346   5.333   6.635  12.188  2.0061  0.7608 -1.0698
15311TIP3   OH267347   1.449   2.618  14.816  0.6808  0.5022  0.3520
15311TIP3    H167348   1.415   2.668  14.742  2.4072  0.5381 -0.4521
15311TIP3    H267349   1.457   2.529  14.783 -1.4747 -0.1322  1.4812
15312TIP3   OH267350   5.841   0.079   5.850 -0.1141  0.4686  0.3250
15312TIP3    H167351   5.745   0.073   5.846 -0.2811  0.5581  3.0751
15312TIP3    H267352   5.866   0.013   5.915  1.6745  0.5735 -0.2457
15313TIP3   OH267353   5.210   0.913   1.693 -0.1891 -0.2925 -0.0645
15313TIP3    H167354   5.294   0.954   1.712  0.0107 -0.1966 -1.0893
15313TIP3    H267355   5.213   0.829   1.738  0.4726 -0.3005 -0.1200
15314TIP3   OH267356   5.503   6.732  13.683 -0.3671 -0.4744 -0.3163
15314TIP3    H167357   5.487   6.808  13.738 -1.2153 -1.3206  0.6395
15314TIP3    H267358   5.415   6.702  13.657 -0.0795 -1.5574 -0.0713
15315TIP3   OH267359   6.769   4.567  14.133 -0.6450 -0.8654 -0.4437
15315TIP3    H167360   6.859   4.563  14.167 -0.8473 -0.7583  0.1225
15315TIP3    H267361   6.717   4.592  14.209 -0.8158  1.7484 -1.3813
15316TIP3   OH267362   0.392   3.825  13.966 -0.2286 -0.0434 -0.1081
15316TIP3    H167363   0.430   3.785  13.888  2.2638  2.0527 -0.0077
15316TIP3    H267364   0.453   3.803  14.037 -2.1846 -1.4698  1.2189
15317TIP3   OH267365   3.472   3.478   3.651 -0.2805  0.1157  0.3317
15317TIP3    H167366   3.565   3.501   3.657 -0.1513  0.0826 -1.1451
15317TIP3    H267367   3.451   3.491   3.558 -1.1537 -2.1606  0.1877
15318TIP3   OH267368   1.146   0.070   5.475  0.2002  0.1096  0.1390
15318TIP3    H167369   1.103  -0.014   5.462 -0.6897  0.6339 -0.3590
15318TIP3    H267370   1.096   0.132   5.421  0.2862  1.1349  1.2146
15319TIP3   OH267371   6.380   4.106   4.663 -0.3088  0.3598 -0.8296
15319TIP3    H167372   6.284   4.107   4.662 -0.4524  0.1818  2.8737
15319TIP3    H267373   6.402   4.039   4.729  2.3936 -0.4799 -2.5208
15320TIP3   OH267374   1.373   3.129   0.540 -0.7034  0.0164  0.2881
15320TIP3    H167375   1.406   3.209   0.582 -0.9940  0.1557  0.2522
15320TIP3    H267376   1.283   3.121   0.571 -0.8989  0.0852 -0.2593
15321TIP3   OH267377   5.115   4.973   4.371  0.9445  0.0579  0.2519
15321TIP3    H167378   5.203   4.937   4.380 -0.1169 -2.2513  2.3125
15321TIP3    H267379   5.066   4.905   4.324 -0.4602 -0.0650  1.8436
15322TIP3   OH267380   0.981   0.794   3.946 -0.1182  0.2717 -0.0260
15322TIP3    H167381   0.894   0.833   3.949 -0.1706  0.1876 -0.3532
15322TIP3    H267382   0.975   0.728   3.877 -0.7963 -2.2247  2.3568
15323TIP3   OH267383   0.445   0.066  14.581 -0.2328  0.7038 -0.0177
15323TIP3    H167384   0.479  -0.024  14.580 -1.3387  0.2549  1.0384
15323TIP3    H267385   0.350   0.055  14.584 -0.4439  1.9278 -1.9433
15324TIP3   OH267386   2.058   5.669   5.385  0.8037 -0.5045 -0.3324
15324TIP3    H167387   2.131   5.730   5.397 -0.4158  1.3126 -1.9811
15324TIP3    H267388   2.009   5.675   5.467 -0.1760  1.9501 -1.0594
15325TIP3   OH267389   5.439   1.973  15.582  0.0808 -0.3578 -0.2520
15325TIP3    H167390   5.521   1.955  15.627 -0.6147  0.1487  1.2252
15325TIP3    H267391   5.433   2.068  15.579 -1.3395 -0.3794  1.2923
15326TIP3   OH267392   1.945   6.627   3.924  0.6669  0.8018 -0.0361
15326TIP3    H167393   1.880   6.694   3.905 -2.3524 -2.1213 -0.4001
15326TIP3    H267394   1.970   6.643   4.015 -1.3049  1.3504  0.4262
15327TIP3   OH267395   2.881   5.110  11.940 -0.0370 -0.6861  0.1402
15327TIP3    H167396   2.975   5.090  11.942  0.1291  0.0122 -0.7345
15327TIP3    H267397   2.840   5.028  11.912  0.5651 -0.1399 -2.4769
15328TIP3   OH267398   4.044   5.989  14.779 -0.4843  0.2910  0.3585
15328TIP3    H167399   4.020   5.929  14.709  0.2523 -1.1920  1.3341
15328TIP3    H267400   3.970   5.985  14.841 -0.8719  1.1471 -0.0410
15329TIP3   OH267401   2.010   3.768  15.985 -0.3321  0.1866 -0.1210
15329TIP3    H167402   2.016   3.863  15.981  1.8148  0.0969  0.5519
15329TIP3    H267403   1.925   3.748  15.947 -0.1979  2.2895 -1.5991
15330TIP3   OH267404   1.914   2.369  11.399  0.2702  0.3565  0.0402
15330TIP3    H167405   1.840   2.402  11.349 -0.2435 -0.3926  0.2884
15330TIP3    H267406   1.885   2.371  11.490  1.2841  1.9212  0.3421
15331TIP3   OH267407   1.209   0.676   6.619  0.0136 -0.0921  0.1135
15331TIP3    H167408   1.248   0.590   6.635 -0.1169 -0.3305 -0.7872
15331TIP3    H267409   1.119   0.668   6.652  0.5643  0.2911  1.7117
15332TIP3   OH267410   6.088   1.851   1.437  0.3267 -0.3211 -0.0468
15332TIP3    H167411   6.099   1.916   1.367 -0.2234  0.5988  0.7006
15332TIP3    H267412   5.993   1.836   1.441  0.2267  0.5477  1.2920
15333TIP3   OH267413   1.641   5.929   5.397  0.3740  0.2691 -0.2429
15333TIP3    H167414   1.611   6.020   5.399 -0.7899 -0.0825 -1.3067
15333TIP3    H267415   1.668   5.911   5.487  1.6683  2.0054 -0.2574
15334TIP3   OH267416   3.769   4.979   3.666  0.0430 -0.2359  0.0903
15334TIP3    H167417   3.830   4.998   3.736  0.4934 -3.0522  0.5388
15334TIP3    H267418   3.800   5.031   3.592  1.4335  0.3454  1.0665
15335TIP3   OH267419   4.584   4.011   2.140  0.3207 -0.5757 -0.0758
15335TIP3    H167420   4.545   4.040   2.222  0.6539 -0.5190  0.0630
15335TIP3    H267421   4.638   4.084   2.111 -1.0207  0.0115 -1.1491
15336TIP3   OH267422   6.240   1.820  12.968 -0.1201 -0.0401  0.1291
15336TIP3    H167423   6.298   1.744  12.975  0.1638 -0.0890 -2.3951
15336TIP3    H267424   6.290   1.891  13.009 -0.3952 -1.1725  2.5102
15337TIP3   OH267425   1.028   0.371   4.290 -0.1139 -0.0311  0.8294
15337TIP3    H167426   1.032   0.403   4.200 -2.4310 -1.1829  0.2933
15337TIP3    H267427   1.107   0.317   4.300  1.8002  2.5888  0.5356
15338TIP3   OH267428   5.318   3.491   1.828  0.0477  0.1227 -0.1249
15338TIP3    H167429   5.279   3.567   1.785  1.3067 -0.0457 -1.5829
15338TIP3    H267430   5.369   3.529   1.900  0.0206  0.5812 -0.3442
15339TIP3   OH267431   4.163   3.314  16.015  0.3413  0.1701  0.2147
15339TIP3    H167432   4.200   3.380  15.956 -0.6282 -0.6716 -1.3776
15339TIP3    H267433   4.175   3.231  15.969  0.4497 -0.6284  1.6564
15340TIP3   OH267434   1.763   5.222   3.760 -0.5706 -0.7407 -0.7613
15340TIP3    H167435   1.755   5.259   3.847 -1.2289 -0.8823 -0.7588
15340TIP3    H267436   1.687   5.164   3.751 -1.3412  0.4276 -1.9921
15341TIP3   OH267437   3.889   5.382   2.907  0.9595 -0.1675 -0.1625
15341TIP3    H167438   3.822   5.423   2.853  2.2222 -1.2402 -2.6142
15341TIP3    H267439   3.913   5.302   2.859  1.3092 -1.7702  2.5491
15342TIP3   OH267440   1.645   4.448  16.989  0.1211  0.1967  0.1979
15342TIP3    H167441   1.629   4.542  16.987  1.5430  0.4633  1.1000
15342TIP3    H267442   1.731   4.437  16.948  0.7653 -0.5198  1.6960
15343TIP3   OH267443   5.555   2.779   4.792 -0.3962 -0.0584  0.3201
15343TIP3    H167444   5.622   2.742   4.849  0.2532 -1.6057 -1.4211
15343TIP3    H267445   5.503   2.704   4.763 -1.7611  0.9085  0.1807
15344TIP3   OH267446   0.686   4.418  14.749  0.3744  0.7330  0.2049
15344TIP3    H167447   0.744   4.434  14.824 -0.8486  1.6497  0.9718
15344TIP3    H267448   0.631   4.496  14.743 -0.7127 -0.0643 -0.5675
15345TIP3   OH267449   5.670   6.033   5.865 -0.2228 -0.3778 -0.0824
15345TIP3    H167450   5.682   6.061   5.956  0.0897  0.6729 -0.4335
15345TIP3    H267451   5.578   6.053   5.846  0.1072  0.8596 -0.4640
15346TIP3   OH267452   3.500   5.493  13.720 -0.5622 -0.2288 -0.1533
15346TIP3    H167453   3.542   5.410  13.743 -0.4722 -0.4586 -1.1126
15346TIP3    H267454   3.463   5.526  13.802 -1.1841 -1.5490  0.0954
15347TIP3   OH267455   6.115   3.094   4.825 -0.6924 -0.1911  0.0087
15347TIP3    H167456   6.030   3.133   4.802 -0.6658 -0.9183 -1.3992
15347TIP3    H267457   6.176   3.168   4.825 -1.3737  0.3924  1.3596
15348TIP3   OH267458   0.024   0.500   1.818 -0.0060  0.0804  0.6613
15348TIP3    H167459  -0.019   0.415   1.828 -0.1578 -0.0192 -0.7579
15348TIP3    H267460  -0.016   0.538   1.740 -0.8336  1.9942  1.9764
15349TIP3   OH267461   2.824   0.405  14.870  0.0787 -0.6301 -0.1859
15349TIP3    H167462   2.737   0.365  14.874 -0.6878  0.8469 -1.2087
15349TIP3    H267463   2.828   0.442  14.781  1.6573 -0.4683 -0.0546
15350TIP3   OH267464   3.356   1.638  11.911 -0.2489 -0.3247  0.0122
15350TIP3    H167465   3.274   1.686  11.913 -1.1652 -1.9018  1.2820
15350TIP3    H267466   3.407   1.679  11.841 -0.9647  2.5146  1.0982
15351TIP3   OH267467   1.674   0.768   5.926 -0.3145  0.0454 -0.0665
15351TIP3    H167468   1.615   0.697   5.899  0.9409  0.4115 -4.1397
15351TIP3    H267469   1.740   0.725   5.980 -1.4428 -1.2769  0.2896
15352TIP3   OH267470   6.140   4.318  11.630 -0.0430 -0.2000 -0.0574
15352TIP3    H167471   6.181   4.358  11.554  1.5585 -1.4187  0.1151
15352TIP3    H267472   6.209   4.317  11.697 -0.7728 -1.0471  0.7133
15353TIP3   OH267473   5.977   3.470  11.647  0.0945 -0.3399  0.2360
15353TIP3    H167474   5.979   3.386  11.603 -1.0639  0.5046 -1.4699
15353TIP3    H267475   6.067   3.503  11.642  0.4574 -1.2770  0.5528
15354TIP3   OH267476   3.642   3.574  10.743  0.4910  0.2293  0.0017
15354TIP3    H167477   3.566   3.612  10.698  0.6119  0.7129  0.2024
15354TIP3    H267478   3.710   3.641  10.737  0.4166  0.4218  1.1594
15355TIP3   OH267479   3.964   6.266   1.413 -0.4294 -0.6454 -0.2244
15355TIP3    H167480   3.957   6.345   1.360  0.8863 -0.6196 -0.3775
15355TIP3    H267481   3.874   6.238   1.427 -0.8449  0.2008 -1.1933
15356TIP3   OH267482   1.522   2.985   1.600 -0.1917 -0.4347 -0.2184
15356TIP3    H167483   1.448   2.932   1.570 -1.2662  0.3635  1.0009
15356TIP3    H267484   1.533   2.962   1.692  0.0801  0.6113  0.0214
15357TIP3   OH267485   0.639   5.048  13.761 -0.4574 -0.2240 -0.2166
15357TIP3    H167486   0.708   4.985  13.741  0.7932  1.0884 -0.1291
15357TIP3    H267487   0.645   5.061  13.856 -1.0558 -0.3547 -0.1574
15358TIP3   OH267488   0.905   5.692  14.055 -0.4426  0.2175  0.2811
15358TIP3    H167489   0.821   5.738  14.053  0.5062  1.9533 -1.5338
15358TIP3    H267490   0.955   5.729  13.982  1.8825 -0.8183  1.2776
15359TIP3   OH267491   3.211   1.217   3.939 -0.5558 -0.4760 -0.7565
15359TIP3    H167492   3.210   1.173   3.854 -1.8192  0.0784 -1.0447
15359TIP3    H267493   3.220   1.310   3.918 -1.4559 -0.2844 -0.3164
15360TIP3   OH267494   2.739   6.008  11.318  0.0839  0.0711 -0.4819
15360TIP3    H167495   2.734   5.946  11.245  0.7096  0.0275 -0.4959
15360TIP3    H267496   2.828   6.042  11.314  0.3814 -0.5256  0.7428
15361TIP3   OH267497   3.016   6.603  14.554  0.0104 -0.4662  0.2768
15361TIP3    H167498   2.922   6.587  14.563 -0.6198  1.7729 -1.7338
15361TIP3    H267499   3.033   6.593  14.460  1.5157  0.4223  0.4394
15362TIP3   OH267500   3.547   0.423  15.768  0.3956  0.1642  0.1787
15362TIP3    H167501   3.562   0.446  15.860 -1.5147 -1.8504  1.0348
15362TIP3    H267502   3.628   0.379  15.740 -0.2532 -2.2401  1.9271
15363TIP3   OH267503   0.008   0.598   4.480  0.1770 -0.1375  0.8033
15363TIP3    H167504   0.021   0.503   4.485  2.9720  0.1113 -0.4970
15363TIP3    H267505   0.081   0.629   4.425 -2.0737  2.4643 -0.8489
15364TIP3   OH267506   2.282   3.274  14.939  0.4647  0.3339 -0.2739
15364TIP3    H167507   2.236   3.192  14.953  2.2280 -0.7812 -0.8894
15364TIP3    H267508   2.293   3.280  14.844  1.6648  0.5332 -0.1245
15365TIP3   OH267509   3.415   2.811   2.248  0.0230 -0.7898  0.2976
15365TIP3    H167510   3.386   2.900   2.226  0.9115 -1.0395 -2.0017
15365TIP3    H267511   3.363   2.788   2.325 -1.9355  0.8215 -0.4720
15366TIP3   OH267512   6.766   6.327  12.811 -0.6191  0.6949 -0.0105
15366TIP3    H167513   6.736   6.372  12.890  1.8512 -0.2612  1.5209
15366TIP3    H267514   6.798   6.397  12.754  1.7650  1.0750  1.7202
15367TIP3   OH267515   5.907   1.829   5.814 -0.5236  0.7530  0.3480
15367TIP3    H167516   5.889   1.863   5.902 -1.8870 -0.9847  0.7812
15367TIP3    H267517   5.847   1.878   5.757  0.2897  1.8097  0.3914
15368TIP3   OH267518   3.542   5.560  15.285 -0.1688 -0.3066 -0.3074
15368TIP3    H167519   3.598   5.540  15.360 -2.8518 -1.8122  1.4086
15368TIP3    H267520   3.571   5.502  15.216  0.5155 -0.9245  0.4890
15369TIP3   OH267521   0.409   5.338   5.047 -0.7592 -0.6178 -0.3069
15369TIP3    H167522   0.403   5.283   4.969 -0.7146 -2.4090  0.9371
15369TIP3    H267523   0.434   5.278   5.117 -0.6428  1.0012  1.0629
15370TIP3   OH267524   2.848   1.704  11.081  0.2200  0.3930  0.2108
15370TIP3    H167525   2.867   1.745  10.996 -0.7190  0.8420  0.2018
15370TIP3    H267526   2.821   1.615  11.058 -0.3674  0.6166 -0.0100
15371TIP3   OH267527   5.237   6.516  14.405  0.1515 -0.1590  0.3222
15371TIP3    H167528   5.152   6.488  14.438 -0.1388 -0.9149 -1.0404
15371TIP3    H267529   5.279   6.558  14.481 -1.2195 -0.2151  1.1402
15372TIP3   OH267530   5.598   0.743   1.677 -0.1231  0.0591 -0.5832
15372TIP3    H167531   5.550   0.825   1.669  1.6677  1.3189  1.1640
15372TIP3    H267532   5.632   0.726   1.590 -0.5829  1.1269 -0.9709
15373TIP3   OH267533   3.709   0.866   0.484 -0.7949 -0.7704 -0.3605
15373TIP3    H167534   3.693   0.782   0.440  1.4570 -0.2622 -2.2384
15373TIP3    H267535   3.798   0.859   0.518 -1.2347  0.2042  1.0247
15374TIP3   OH267536   6.722   2.791   2.542  0.1221 -0.3563 -0.0657
15374TIP3    H167537   6.680   2.762   2.461  0.5415  0.6983 -0.6798
15374TIP3    H267538   6.706   2.886   2.544 -0.6265 -0.4932  1.5312
15375TIP3   OH267539   2.840   3.965   4.563  0.2598  0.3167  0.4577
15375TIP3    H167540   2.859   3.874   4.583  1.2459  0.4699  0.2502
15375TIP3    H267541   2.897   4.015   4.622  0.6261  0.7869 -0.2747
15376TIP3   OH267542   0.179   0.891  10.678 -0.7990  0.4015 -0.2092
15376TIP3    H167543   0.213   0.965  10.628 -0.0181  0.4692  0.4224
15376TIP3    H267544   0.129   0.840  10.614  3.1931 -1.5145 -1.9971
15377TIP3   OH267545   3.286   2.755  10.781 -0.6579  0.1312  0.3644
15377TIP3    H167546   3.315   2.673  10.743 -1.7828 -0.3047  0.4313
15377TIP3    H267547   3.359   2.784  10.835  0.3477 -0.0282 -0.8758
15378TIP3   OH267548   2.410   6.094   0.430 -0.6846  0.0028 -0.1733
15378TIP3    H167549   2.409   6.141   0.514 -0.5500 -0.4041  0.0553
15378TIP3    H267550   2.319   6.094   0.401 -0.4724  1.7564 -0.9286
15379TIP3   OH267551   1.712   5.391  17.113  0.0256 -0.3436 -0.3689
15379TIP3    H167552   1.762   5.321  17.073  0.1813 -0.8888  0.7580
15379TIP3    H267553   1.663   5.430  17.041  2.7734  0.8309 -1.6722
15380TIP3   OH267554   2.424   3.338   2.897 -0.6522 -0.1549  0.6007
15380TIP3    H167555   2.433   3.418   2.950  2.4544  0.8755 -1.3830
15380TIP3    H267556   2.432   3.267   2.960  0.0521  1.0699  1.9192
15381TIP3   OH267557   5.004   3.057  11.208  0.3274  0.1934  0.1806
15381TIP3    H167558   4.974   3.122  11.144  1.6343  0.4026 -0.2333
15381TIP3    H267559   5.080   3.017  11.167  0.4666 -0.5014  1.1159
15382TIP3   OH267560   2.705   2.572  11.430  0.3674  0.1458 -0.5576
15382TIP3    H167561   2.633   2.634  11.425 -0.5312 -0.9399 -1.4078
15382TIP3    H267562   2.737   2.565  11.340  1.1145  0.1503 -0.2915
15383TIP3   OH267563   0.301   3.685   2.509 -0.0106  0.6343 -0.7786
15383TIP3    H167564   0.235   3.673   2.578  2.0034 -1.2261  0.8802
15383TIP3    H267565   0.312   3.780   2.503  0.5075  0.7960  2.1657
15384TIP3   OH267566   2.641   3.781  15.194 -0.1304  0.1409 -0.7076
15384TIP3    H167567   2.713   3.721  15.173 -0.2725 -0.9950  1.8795
15384TIP3    H267568   2.685   3.865  15.210  0.4693 -0.2104 -0.4831
15385TIP3   OH267569   6.244   0.442   5.730  0.0334 -0.0820 -0.3542
15385TIP3    H167570   6.275   0.529   5.704 -1.1680  0.1871 -0.9213
15385TIP3    H267571   6.232   0.448   5.824  1.4327 -0.1080 -0.1619
15386TIP3   OH267572   2.795   6.326  15.674 -0.1468  0.5342 -0.0653
15386TIP3    H167573   2.880   6.291  15.648 -1.6534 -1.2174 -2.7920
15386TIP3    H267574   2.797   6.326  15.770  2.2837 -1.0408 -0.0971
15387TIP3   OH267575   2.049   5.559   3.209 -0.1392  0.1200 -0.2685
15387TIP3    H167576   2.141   5.541   3.188 -0.5194  1.3798 -3.1213
15387TIP3    H267577   2.052   5.642   3.257  0.2187  0.0176 -0.1059
15388TIP3   OH267578   2.801   1.127   4.342  0.1477 -0.0236 -0.0329
15388TIP3    H167579   2.742   1.097   4.273 -0.2803 -2.8231  1.4663
15388TIP3    H267580   2.883   1.145   4.297 -0.0744 -1.9578 -1.2850
15389TIP3   OH267581   1.155   2.537  13.984 -0.8172 -0.4229 -0.2152
15389TIP3    H167582   1.114   2.482  14.050  1.0907 -1.1050  0.4269
15389TIP3    H267583   1.154   2.484  13.904  1.0494 -1.4440  0.4103
15390TIP3   OH267584   3.560   2.903   5.193 -0.4662 -0.7994  0.0827
15390TIP3    H167585   3.588   2.915   5.102 -1.4115 -2.6060 -0.4911
15390TIP3    H267586   3.476   2.949   5.199 -0.5520 -0.9384 -0.0484
15391TIP3   OH267587   0.992   3.051   0.025 -0.7136 -0.4612 -0.2542
15391TIP3    H167588   1.068   3.088  -0.020  0.3853  0.1227  2.0045
15391TIP3    H267589   0.918   3.101  -0.009 -0.0526 -0.7308 -2.1527
15392TIP3   OH267590   6.220   1.173   4.517  0.0497 -0.2273 -0.0773
15392TIP3    H167591   6.314   1.177   4.532  0.2598 -0.6179 -1.2924
15392TIP3    H267592   6.211   1.139   4.428 -1.2337 -0.0505 -0.0196
15393TIP3   OH267593   5.789   6.363  13.558 -0.0845  0.5870  0.4500
15393TIP3    H167594   5.824   6.443  13.598 -0.3415  0.2609  1.3324
15393TIP3    H267595   5.788   6.382  13.464  3.7615  0.1336  0.2393
15394TIP3   OH267596   4.250   3.496  15.308  0.1223 -0.7324  0.0302
15394TIP3    H167597   4.231   3.589  15.291 -0.7036 -0.8160  0.4517
15394TIP3    H267598   4.332   3.497  15.356  0.6920 -0.2861 -0.9303
15395TIP3   OH267599   5.293   4.585  11.505 -0.2027 -0.4542  0.0958
15395TIP3    H167600   5.325   4.619  11.421 -1.7570  0.3888 -0.1614
15395TIP3    H267601   5.205   4.620  11.514 -0.6441 -1.8104  1.3537
15396TIP3   OH267602   5.344   1.964   4.219 -0.4126  0.6613  0.5860
15396TIP3    H167603   5.279   1.959   4.149  0.5666  0.4245 -0.3275
15396TIP3    H267604   5.353   2.058   4.236  0.6875  0.8610 -0.9252
15397TIP3   OH267605   2.187   5.162  13.176 -0.0113 -0.2309 -0.5186
15397TIP3    H167606   2.096   5.161  13.149  0.0947 -0.8198 -0.8644
15397TIP3    H267607   2.220   5.074  13.155  0.4262 -0.2731  0.3089
15398TIP3   OH267608   5.555   3.740  15.251 -0.6374  0.1097  0.0608
15398TIP3    H167609   5.630   3.727  15.309 -0.4867  1.4009  0.1839
15398TIP3    H267610   5.587   3.717  15.163 -0.6714 -1.1930  0.3782
15399TIP3   OH267611   0.121   3.505   3.262 -0.1245  0.8565 -0.4584
15399TIP3    H167612   0.179   3.447   3.212 -0.9465  0.1621 -0.6319
15399TIP3    H267613   0.143   3.488   3.353 -2.2836 -1.8402 -0.3839
15400TIP3   OH267614   4.643   6.277  14.140  0.2196  0.3220  0.1148
15400TIP3    H167615   4.551   6.297  14.121 -0.4942 -3.1726 -0.4395
15400TIP3    H267616   4.686   6.363  14.143 -2.9428  1.9962 -0.1003
15401TIP3   OH267617   3.856   5.656   3.920 -0.4280  0.5753 -0.1634
15401TIP3    H167618   3.805   5.672   4.000 -0.6793  2.8682 -0.7661
15401TIP3    H267619   3.826   5.723   3.859  0.4916 -0.5471 -1.8611
15402TIP3   OH267620   2.961   6.654   1.080 -0.7596 -0.2738 -0.9191
15402TIP3    H167621   3.039   6.635   1.029 -0.0817  0.4029 -0.1491
15402TIP3    H267622   2.935   6.570   1.116  0.2136 -0.3397 -0.3458
15403TIP3   OH267623   4.751   6.412  15.796 -0.3196  0.2807  0.2210
15403TIP3    H167624   4.805   6.427  15.719  0.9513  0.9384  1.2264
15403TIP3    H267625   4.813   6.399  15.867 -1.4822  0.8093  1.3502
15404TIP3   OH267626   3.481   1.521  13.507  0.2947  0.4548  0.1488
15404TIP3    H167627   3.389   1.507  13.533  1.0671 -0.9304  2.3292
15404TIP3    H267628   3.511   1.434  13.481  1.1793  0.7728  0.1105
15405TIP3   OH267629   2.245   0.962   0.526  0.9357 -0.2557  0.1713
15405TIP3    H167630   2.322   0.915   0.558  1.9744  0.8646 -0.6375
15405TIP3    H267631   2.253   0.960   0.431 -0.0032 -0.0648  0.0839
15406TIP3   OH267632   1.327   6.310   5.377 -0.3284  0.1495 -0.3815
15406TIP3    H167633   1.406   6.265   5.406 -1.6565 -0.2391  2.7807
15406TIP3    H267634   1.307   6.271   5.292  1.6716 -1.2358 -0.2521
15407TIP3   OH267635   1.453   1.736   6.311  0.2823 -0.3123  0.1292
15407TIP3    H167636   1.371   1.783   6.300  0.3231 -0.1005  0.7145
15407TIP3    H267637   1.485   1.763   6.397  1.6942  0.7625 -0.7047
15408TIP3   OH267638   6.153   1.675   1.822  0.5291 -0.1358  0.2334
15408TIP3    H167639   6.178   1.748   1.765  1.5734 -1.0631 -0.5134
15408TIP3    H267640   6.196   1.696   1.906  1.6478 -0.3899 -0.2721
15409TIP3   OH267641   4.772   6.149  15.178 -0.2141  0.1389 -0.4880
15409TIP3    H167642   4.685   6.181  15.154 -0.7097 -0.1633  0.8593
15409TIP3    H267643   4.774   6.059  15.147 -0.3937  0.1360 -0.4928
15410TIP3   OH267644   0.209   1.428  13.213  0.1693 -0.0264 -0.0544
15410TIP3    H167645   0.285   1.486  13.205  0.5534 -0.5356 -0.1071
15410TIP3    H267646   0.246   1.345  13.244 -0.4796 -0.0081  0.7735
15411TIP3   OH267647   1.640   3.081  16.013 -0.1966 -0.1723  0.1683
15411TIP3    H167648   1.701   3.106  16.083  1.7365 -2.0129 -0.8022
15411TIP3    H267649   1.678   3.118  15.933 -0.2779 -1.4052 -0.4648
15412TIP3   OH267650   1.109   3.644  15.828  0.6467 -0.3471 -0.3015
15412TIP3    H167651   1.161   3.564  15.826  1.0761 -0.0746 -0.0794
15412TIP3    H267652   1.170   3.712  15.856  0.9661  0.5994 -3.1561
15413TIP3   OH267653   3.902   5.497  16.792 -0.4701  0.4357  0.0856
15413TIP3    H167654   3.877   5.463  16.707 -1.4614  1.3485  0.0000
15413TIP3    H267655   3.910   5.591  16.779  1.6400  0.3356  0.4619
15414TIP3   OH267656   5.785   4.301  14.186  0.0008 -0.0376  0.1413
15414TIP3    H167657   5.785   4.391  14.154  0.7972 -0.2565 -0.4823
15414TIP3    H267658   5.693   4.283  14.208 -0.3444  0.5533 -0.7930
15415TIP3   OH267659   2.961   6.133   5.317 -0.3482  0.7683 -0.1103
15415TIP3    H167660   2.999   6.163   5.234  1.0550 -2.8103 -0.8727
15415TIP3    H267661   2.979   6.039   5.318 -2.7148  0.2942  3.0487
15416TIP3   OH267662   6.079   0.230   5.384  0.1429 -0.2978  0.3633
15416TIP3    H167663   6.017   0.272   5.325  0.2672 -0.3816  0.1720
15416TIP3    H267664   6.032   0.220   5.467 -0.0099 -0.1257  0.2949
15417TIP3   OH267665   1.644   4.014   3.728  0.3901  0.3616 -0.3890
15417TIP3    H167666   1.550   3.999   3.731  0.4577 -0.0718 -0.4480
15417TIP3    H267667   1.674   3.995   3.817  0.5892 -0.6264 -0.6575
15418TIP3   OH267668   0.206   1.737   1.570 -0.1955 -0.3971  0.3494
15418TIP3    H167669   0.212   1.664   1.509 -1.4506 -1.8011  1.8463
15418TIP3    H267670   0.180   1.812   1.516  0.7930 -1.1193 -1.1496
15419TIP3   OH267671   4.852   4.109  14.228  0.0470  0.2589  0.0279
15419TIP3    H167672   4.833   4.146  14.141  0.5941  0.1005 -0.1627
15419TIP3    H267673   4.914   4.170  14.267  1.7575 -0.9678 -0.6952
15420TIP3   OH267674   5.365   1.393  11.195 -0.5782 -0.2342  0.3070
15420TIP3    H167675   5.339   1.481  11.221 -0.8874 -0.2746  0.1312
15420TIP3    H267676   5.374   1.398  11.099 -0.4734 -0.3615  0.3093
15421TIP3   OH267677   5.710   0.095   0.058  0.2849  0.1920  0.0213
15421TIP3    H167678   5.737   0.116  -0.032  2.1345  2.5851  1.0786
15421TIP3    H267679   5.635   0.151   0.075  2.7038  3.1872  1.4317
15422TIP3   OH267680   4.135   3.068  12.546  0.5401  0.2525 -0.4131
15422TIP3    H167681   4.163   3.059  12.637  0.5442  0.3951 -0.4008
15422TIP3    H267682   4.217   3.078  12.497  0.5069  0.7518 -0.3673
15423TIP3   OH267683   2.370   0.111  14.622 -0.1891 -0.3583  0.2899
15423TIP3    H167684   2.418   0.045  14.672  0.5720  0.1464  0.2454
15423TIP3    H267685   2.324   0.163  14.688  1.4734  0.8235  0.5412
15424TIP3   OH267686   4.105   4.198  12.484 -0.4366  0.0327 -0.0893
15424TIP3    H167687   4.190   4.207  12.440 -2.6781  1.2363 -4.4374
15424TIP3    H267688   4.079   4.287  12.504 -0.2989 -0.3995  2.2097
15425TIP3   OH267689   5.525   2.030  13.398  0.2892 -0.0410 -0.5299
15425TIP3    H167690   5.578   2.048  13.320  0.0842  0.7826 -0.4755
15425TIP3    H267691   5.588   1.997  13.462  0.6111  0.1775 -0.7321
15426TIP3   OH267692   3.818   5.556   2.666 -0.7376  0.3909 -0.5754
15426TIP3    H167693   3.839   5.577   2.575  1.3552 -0.2097 -0.2682
15426TIP3    H267694   3.739   5.503   2.661 -0.8403  0.6556 -2.0161
15427TIP3   OH267695   0.659   2.766   3.109 -1.3447  0.0536 -0.0152
15427TIP3    H167696   0.585   2.750   3.050 -1.7332 -0.5919  0.6408
15427TIP3    H267697   0.624   2.747   3.196 -1.2973  2.6464  0.6202
15428TIP3   OH267698   2.658   6.358  14.326  0.2520 -0.2605 -0.8662
15428TIP3    H167699   2.613   6.377  14.244  1.7430  3.0938 -0.9994
15428TIP3    H267700   2.594   6.380  14.394 -0.4623 -1.6031 -1.0899
15429TIP3   OH267701   2.365   2.524   1.343 -0.8195  0.0833  0.2022
15429TIP3    H167702   2.404   2.501   1.258 -0.6356  1.9382 -0.2554
15429TIP3    H267703   2.277   2.487   1.340  0.1944 -2.3944  0.4070
15430TIP3   OH267704   3.042   0.592   4.684  0.1693 -0.1467 -0.1041
15430TIP3    H167705   3.069   0.675   4.725  0.4480 -0.2513 -0.0766
15430TIP3    H267706   3.113   0.531   4.704  0.3374 -0.1826 -0.8020
15431TIP3   OH267707   5.966   3.186  12.163  0.2517 -0.3064 -0.1748
15431TIP3    H167708   5.973   3.095  12.192 -0.2948 -0.3061 -0.0400
15431TIP3    H267709   6.055   3.210  12.137  0.3045 -1.0320 -0.6672
15432TIP3   OH267710   5.003   6.502   4.610  0.3622  0.2959 -0.0861
15432TIP3    H167711   4.979   6.470   4.697 -1.6537 -0.2885 -0.8276
15432TIP3    H267712   4.947   6.579   4.597  0.7001  0.4190 -0.8212
15433TIP3   OH267713   5.690   1.509  15.089 -0.4998  0.0266  0.9860
15433TIP3    H167714   5.714   1.457  15.012  1.1829 -0.1992  1.6399
15433TIP3    H267715   5.632   1.577  15.054  2.0749  1.3590 -0.9119
15434TIP3   OH267716   2.654   1.369  15.907  0.3564  0.3061  0.3341
15434TIP3    H167717   2.730   1.311  15.902  0.4212  0.4890 -0.8997
15434TIP3    H267718   2.690   1.457  15.910  0.1935  0.3839 -0.0191
15435TIP3   OH267719   3.562   3.906   0.695  0.2240  0.1753 -0.8571
15435TIP3    H167720   3.528   3.984   0.740  0.7249 -0.3277  0.4030
15435TIP3    H267721   3.634   3.939   0.641  1.1195  0.4240  0.4798
15436TIP3   OH267722   6.121   4.201   1.383 -0.0316 -0.0199 -0.0629
15436TIP3    H167723   6.117   4.297   1.382 -1.2951 -0.0597  0.1985
15436TIP3    H267724   6.183   4.179   1.313 -1.4813  0.9108 -1.6882
15437TIP3   OH267725   5.455   2.350   1.474  0.0841  0.0345 -0.4652
15437TIP3    H167726   5.510   2.280   1.509  0.8699  1.0803  0.4315
15437TIP3    H267727   5.484   2.429   1.520 -1.5877  0.7548 -0.6040
15438TIP3   OH267728   0.560   5.180  14.280  0.5114  0.2705 -0.0926
15438TIP3    H167729   0.467   5.162  14.268  0.7400 -1.1103  0.0996
15438TIP3    H267730   0.574   5.263  14.235 -0.6029 -0.0150 -1.0035
15439TIP3   OH267731   4.259   0.983   2.876  0.4327 -0.5655  0.1105
15439TIP3    H167732   4.331   0.997   2.938  0.4899  1.9888 -0.4462
15439TIP3    H267733   4.298   0.930   2.806  1.5089 -0.0992  0.3334
15440TIP3   OH267734   3.619   4.084  13.585  0.1146 -0.0922  0.1008
15440TIP3    H167735   3.547   4.025  13.560 -0.6888  1.0683 -0.3810
15440TIP3    H267736   3.601   4.106  13.676 -0.1603  0.2046 -0.0217
15441TIP3   OH267737   4.100   3.930   1.547 -0.7775  0.3322 -0.6976
15441TIP3    H167738   4.066   4.003   1.599 -2.4139 -1.4262  0.7508
15441TIP3    H267739   4.172   3.894   1.599 -1.9606 -0.9855  0.0596
15442TIP3   OH267740   5.713   2.742  15.184  0.3170 -0.5304  0.2087
15442TIP3    H167741   5.753   2.667  15.140  0.1209 -0.9559  0.7533
15442TIP3    H267742   5.783   2.778  15.238  0.4005 -0.3438 -0.0242
15443TIP3   OH267743   6.048   4.780  16.279  0.3354  0.1807 -0.3510
15443TIP3    H167744   5.955   4.761  16.286  0.4135 -0.9972 -2.1935
15443TIP3    H267745   6.087   4.739  16.356 -0.7042  0.9186  0.5663
15444TIP3   OH267746   0.146   3.207   2.473  0.1377 -0.1672 -0.2925
15444TIP3    H167747   0.223   3.185   2.420 -0.3478 -3.1038  0.1655
15444TIP3    H267748   0.073   3.204   2.412  0.1134  0.7377 -0.3219
15445TIP3   OH267749   1.006   3.065  16.275 -0.3935  0.0137 -0.5850
15445TIP3    H167750   0.994   3.097  16.185  1.0592  0.4633 -0.6237
15445TIP3    H267751   1.067   2.992  16.267 -0.3738 -0.0365  0.0255
15446TIP3   OH267752   5.864   5.420  14.952  0.1789  0.1502 -0.4533
15446TIP3    H167753   5.938   5.361  14.961  0.4877  0.6870  0.6505
15446TIP3    H267754   5.876   5.462  14.867  0.8139 -0.1958 -0.5368
15447TIP3   OH267755   1.960   4.675  15.743  0.1340 -0.8666 -0.2011
15447TIP3    H167756   2.046   4.651  15.777  0.9168  1.3470 -0.5305
15447TIP3    H267757   1.977   4.706  15.653 -0.6528  1.6381  0.4617
15448TIP3   OH267758   0.903   5.488  11.110 -0.5876  0.7148  0.5030
15448TIP3    H167759   0.930   5.401  11.079  0.8216  1.1581  0.4488
15448TIP3    H267760   0.891   5.539  11.030  0.2394  1.0435  0.5845
15449TIP3   OH267761   1.675   1.341   3.543 -0.4512 -0.5670  0.5815
15449TIP3    H167762   1.590   1.332   3.499  0.0912  0.0274 -0.6237
15449TIP3    H267763   1.692   1.435   3.543 -0.3664 -0.5742  1.9506
15450TIP3   OH267764   0.327   6.243   3.058 -0.4616  0.3572  0.3944
15450TIP3    H167765   0.281   6.311   3.008 -1.1246  1.1287  2.0237
15450TIP3    H267766   0.384   6.201   2.994 -1.0528  1.5405 -0.9412
15451TIP3   OH267767   2.303   4.109   1.195  0.6554 -0.2964 -0.4667
15451TIP3    H167768   2.226   4.126   1.140 -0.3315 -1.9878  0.3493
15451TIP3    H267769   2.289   4.020   1.228  3.7223 -1.2614 -1.5615
15452TIP3   OH267770   0.774   3.256   2.264  0.1725  1.1357  0.0629
15452TIP3    H167771   0.788   3.341   2.306 -2.2798  1.1622  0.8928
15452TIP3    H267772   0.766   3.195   2.338 -0.2464  0.5345 -0.4784
15453TIP3   OH267773   6.385   3.637  10.556 -0.0924 -0.3189 -0.2104
15453TIP3    H167774   6.355   3.728  10.547  1.0511  0.2355  1.3146
15453TIP3    H267775   6.308   3.585  10.533 -0.7443  1.0333 -1.1849
15454TIP3   OH267776   0.845   4.720   4.737  0.3528  0.0192 -0.0040
15454TIP3    H167777   0.765   4.724   4.788 -0.6139  0.4091 -1.5288
15454TIP3    H267778   0.822   4.672   4.658  1.4681  0.5994 -0.7126
15455TIP3   OH267779   0.861   2.726   5.347  0.1469  0.0351 -0.4672
15455TIP3    H167780   0.819   2.811   5.362 -0.2553 -0.2920  0.2477
15455TIP3    H267781   0.851   2.678   5.429  0.6267 -0.6032 -0.7695
15456TIP3   OH267782   0.654   2.958   1.998 -0.1329  0.7172  0.7737
15456TIP3    H167783   0.562   2.944   2.021  0.1224 -1.0310  0.7963
15456TIP3    H267784   0.665   3.053   2.001 -1.7132  0.8939  1.6266
15457TIP3   OH267785   2.585   1.170   1.798 -0.3785  0.6363 -0.2122
15457TIP3    H167786   2.515   1.217   1.752 -1.0362  0.1566  0.2910
15457TIP3    H267787   2.663   1.224   1.783 -0.4858  0.2873 -2.2438
15458TIP3   OH267788   0.935   1.741  11.594  0.3679 -0.2971 -0.2883
15458TIP3    H167789   0.992   1.684  11.645  0.3227  0.3229  0.4684
15458TIP3    H267790   0.854   1.691  11.584  0.4385 -0.4906  0.1043
15459TIP3   OH267791   6.579   0.982  11.920  0.0161  0.1829  0.3769
15459TIP3    H167792   6.558   1.053  11.859 -1.7103 -0.4281  0.2220
15459TIP3    H267793   6.644   0.929  11.874 -1.6758 -0.5823 -1.1945
15460TIP3   OH267794   4.473   0.511  13.635  0.5126  0.2628 -0.0298
15460TIP3    H167795   4.414   0.489  13.707  2.2456 -0.4936  1.2262
15460TIP3    H267796   4.452   0.601  13.613 -2.9034 -0.7957 -1.4562
15461TIP3   OH267797   2.731   1.685  14.045  0.3328 -0.8845 -0.5613
15461TIP3    H167798   2.704   1.670  13.954  1.8230 -0.4269 -1.0909
15461TIP3    H267799   2.650   1.678  14.095 -0.5345 -1.0016 -1.9467
15462TIP3   OH267800   4.857   5.656   4.181 -0.0852  0.3885  0.2677
15462TIP3    H167801   4.827   5.747   4.188  0.0812  0.5585 -1.1188
15462TIP3    H267802   4.944   5.662   4.141 -0.6878 -0.4602 -1.2093
15463TIP3   OH267803   0.964   1.166   3.779 -0.2741  0.6079 -0.4381
15463TIP3    H167804   1.034   1.103   3.764 -1.8477 -0.7662 -2.1030
15463TIP3    H267805   0.909   1.161   3.701 -2.5774  1.2075  1.1011
15464TIP3   OH267806   6.027   2.200  11.868  0.2254  0.7514 -0.1326
15464TIP3    H167807   6.007   2.292  11.854  1.5864  1.1881  0.6519
15464TIP3    H267808   6.077   2.198  11.950  1.2834 -0.5373 -0.7811
15465TIP3   OH267809   3.614   5.943   2.114  0.3650  0.2930  0.1096
15465TIP3    H167810   3.596   6.037   2.115 -0.5544  0.1244  0.2059
15465TIP3    H267811   3.700   5.935   2.074  0.7819  1.2364  0.8038
15466TIP3   OH267812   5.641   5.171  15.392 -0.3375 -0.5413 -0.2262
15466TIP3    H167813   5.553   5.206  15.376  0.2180  0.3212 -1.4949
15466TIP3    H267814   5.691   5.247  15.422 -0.0283 -1.0293  0.4778
15467TIP3   OH267815   5.990   2.354  15.264  0.2100  0.2139 -0.3377
15467TIP3    H167816   6.075   2.362  15.308  0.4147  0.0859 -0.7172
15467TIP3    H267817   5.932   2.316  15.331  0.0119  1.9214  0.4906
15468TIP3   OH267818   3.525   3.938  12.157  0.0609 -0.1198 -0.1504
15468TIP3    H167819   3.574   3.859  12.135  1.0082 -0.0335  1.5267
15468TIP3    H267820   3.591   4.005  12.171 -0.6777  0.6828 -0.4205
15469TIP3   OH267821   3.989   2.791   5.284  0.5218 -0.1466  0.4341
15469TIP3    H167822   3.912   2.736   5.271 -0.2332  0.9776  0.0795
15469TIP3    H267823   4.002   2.793   5.379 -2.3803  2.9640  0.8732
15470TIP3   OH267824   5.802   0.207   1.624 -0.1911  0.4936  0.0917
15470TIP3    H167825   5.891   0.211   1.658 -0.4530 -0.0736  0.8348
15470TIP3    H267826   5.810   0.237   1.533  0.8981 -0.4775 -0.1310
15471TIP3   OH267827   4.894   6.154   5.005  0.1665 -0.3352 -0.4273
15471TIP3    H167828   4.855   6.237   4.980  1.2644  0.3751  0.1754
15471TIP3    H267829   4.821   6.101   5.037 -0.5215  0.4128 -0.7685
15472TIP3   OH267830   6.313   0.174   1.099 -0.2043 -0.1869 -0.0607
15472TIP3    H167831   6.400   0.202   1.070 -0.1242  0.0444  0.4008
15472TIP3    H267832   6.264   0.161   1.018 -0.4550  1.9308 -0.2846
15473TIP3   OH267833   3.435   4.315  12.366  0.4936 -0.1928  0.7146
15473TIP3    H167834   3.403   4.285  12.281  0.3510  1.2272  0.2450
15473TIP3    H267835   3.482   4.396  12.346  0.5162  0.1186  1.9822
15474TIP3   OH267836   1.133   1.874   5.276 -0.2370  0.3462 -0.1210
15474TIP3    H167837   1.189   1.924   5.335  0.0146 -0.1086  0.0296
15474TIP3    H267838   1.044   1.889   5.308 -0.0522 -0.3988  0.7540
15475TIP3   OH267839   4.508   2.110  10.852 -0.0660 -0.2430 -0.6383
15475TIP3    H167840   4.530   2.054  10.776 -1.4378  0.1313 -1.3141
15475TIP3    H267841   4.483   2.193  10.814  1.2656  0.6354  0.3484
15476TIP3   OH267842   4.382   6.448  16.482 -0.3618 -0.2105 -0.4048
15476TIP3    H167843   4.325   6.458  16.405  0.0022  0.8705 -0.5498
15476TIP3    H267844   4.464   6.415  16.447 -0.9816 -2.0526 -0.1619
15477TIP3   OH267845   0.744   3.603   0.070 -0.6833  0.1719 -0.5079
15477TIP3    H167846   0.656   3.636   0.089 -0.8808  0.2109 -1.4657
15477TIP3    H267847   0.759   3.627  -0.022 -0.2270 -1.0640 -0.7614
15478TIP3   OH267848   2.592   2.867  13.540  0.0065 -0.2144 -0.1396
15478TIP3    H167849   2.685   2.872  13.515 -0.7446  0.4713 -3.0362
15478TIP3    H267850   2.569   2.775  13.527 -0.3348  0.1057 -1.8329
15479TIP3   OH267851   0.761   3.688   6.150 -0.1613 -0.4428  0.2418
15479TIP3    H167852   0.833   3.634   6.184 -0.2014 -1.0253 -0.5826
15479TIP3    H267853   0.687   3.667   6.208  0.8381  1.6614  2.3279
15480TIP3   OH267854   3.697   2.545  16.683  0.3552  0.2920  0.0668
15480TIP3    H167855   3.721   2.629  16.723  0.6808 -0.1367  0.7804
15480TIP3    H267856   3.604   2.554  16.664  0.6344  1.2346 -0.9060
15481TIP3   OH267857   1.479   1.177   3.348  0.5143  0.3204 -0.4202
15481TIP3    H167858   1.533   1.146   3.275 -0.4336 -0.1802 -0.9213
15481TIP3    H267859   1.391   1.182   3.311 -0.0721 -0.5015  0.8663
15482TIP3   OH267860   0.142   6.296  16.480 -0.0821  0.2404 -0.3243
15482TIP3    H167861   0.098   6.265  16.560  1.2110  0.9841  0.6953
15482TIP3    H267862   0.134   6.392  16.485 -0.5429  0.2600 -1.4165
15483TIP3   OH267863   0.285   1.902  16.304  0.3280  0.2156 -0.1181
15483TIP3    H167864   0.339   1.823  16.298  2.4988  1.6529 -0.0840
15483TIP3    H267865   0.262   1.923  16.213  0.3465 -0.0591 -0.1846
15484TIP3   OH267866   6.765   5.545   2.935 -0.8460  0.7017  0.4419
15484TIP3    H167867   6.684   5.500   2.960 -0.4918  0.8054  1.8200
15484TIP3    H267868   6.792   5.591   3.014  0.7622  0.3801  0.0958
15485TIP3   OH267869   1.145   2.265   1.350 -0.4420 -0.0302  0.1415
15485TIP3    H167870   1.051   2.247   1.360 -0.8155  1.5911 -0.2627
15485TIP3    H267871   1.170   2.307   1.433 -0.1145 -0.2758  0.1675
15486TIP3   OH267872   3.109   4.930  17.175  0.0679  0.8202  0.0527
15486TIP3    H167873   3.160   5.000  17.216 -0.3313  1.6460 -0.8421
15486TIP3    H267874   3.022   4.968  17.163 -0.3685 -0.0975  0.2561
15487TIP3   OH267875   3.951   5.849  15.731 -0.2365 -0.3479 -0.0884
15487TIP3    H167876   3.905   5.918  15.781  0.4309 -0.8157  1.1943
15487TIP3    H267877   4.014   5.897  15.678 -0.9205  0.1581 -0.4619
15488TIP3   OH267878   1.399   4.589   0.579 -0.1669  0.2875  0.4027
15488TIP3    H167879   1.479   4.641   0.573 -0.5715  1.4330  3.9919
15488TIP3    H267880   1.427   4.507   0.621 -0.0175 -1.4534 -2.9005
15489TIP3   OH267881   5.266   5.498   2.276  0.3248  0.3871  0.1331
15489TIP3    H167882   5.243   5.437   2.206  1.1394  1.6211 -1.2519
15489TIP3    H267883   5.191   5.557   2.283  0.8961  1.2433 -0.8215
15490TIP3   OH267884   0.904   6.440   2.364 -0.2534 -0.2557 -0.0251
15490TIP3    H167885   0.864   6.494   2.432  1.4621 -0.0001  0.8164
15490TIP3    H267886   0.918   6.500   2.291 -4.1961 -1.0237 -1.5637
15491TIP3   OH267887   2.008   5.396   0.037 -0.3294 -0.2317 -0.7643
15491TIP3    H167888   2.022   5.367   0.127 -0.9397 -1.3269 -1.0156
15491TIP3    H267889   1.950   5.471   0.045  1.0519  0.7855 -0.1291
15492TIP3   OH267890   1.705   1.410   0.560  0.1138  0.2072  0.5027
15492TIP3    H167891   1.793   1.403   0.596  0.4240  0.2590 -0.2537
15492TIP3    H267892   1.717   1.442   0.471 -0.5785 -0.9813 -0.0415
15493TIP3   OH267893   5.453   0.366   6.610 -0.7923  0.5352  0.3817
15493TIP3    H167894   5.376   0.392   6.661 -0.7951  0.8798  0.2013
15493TIP3    H267895   5.458   0.271   6.621 -1.5964  0.4398 -0.0999
15494TIP3   OH267896   6.078   3.513  11.934  0.3155 -0.2809  0.0515
15494TIP3    H167897   6.126   3.479  11.859 -0.8783  1.3253 -1.5016
15494TIP3    H267898   5.998   3.460  11.937  0.1691 -0.0713 -0.0895
15495TIP3   OH267899   3.007   5.837  11.189 -0.0642 -0.2570 -0.0884
15495TIP3    H167900   3.068   5.816  11.118  0.6364  2.6959 -0.4249
15495TIP3    H267901   2.923   5.852  11.146 -0.0783 -0.2870 -0.0713
15496TIP3   OH267902   4.986   0.021  13.115 -0.4390 -0.4009  0.6546
15496TIP3    H167903   4.994  -0.060  13.164  0.6624  0.6330  2.2259
15496TIP3    H267904   5.075   0.041  13.086 -0.5117  0.8007  1.2116
15497TIP3   OH267905   4.204   5.169  13.304  0.0526 -0.2714 -0.4617
15497TIP3    H167906   4.265   5.095  13.303  0.2009 -0.2152  1.5585
15497TIP3    H267907   4.118   5.129  13.318 -0.0431 -0.1586 -0.7212
15498TIP3   OH267908   6.722   4.337   1.992  0.6018  0.2090 -0.0660
15498TIP3    H167909   6.779   4.415   1.990 -1.0581  1.4155 -1.0577
15498TIP3    H267910   6.670   4.348   2.072 -0.1075  0.4695 -0.5606
15499TIP3   OH267911   4.135   6.112   3.025 -0.5010  0.5512  0.1813
15499TIP3    H167912   4.193   6.057   3.077 -0.0551 -0.8777 -1.7498
15499TIP3    H267913   4.047   6.079   3.045 -0.1864 -1.5384 -1.6101
15500TIP3   OH267914   6.219   4.007   4.932  0.2245  0.5080 -0.3039
15500TIP3    H167915   6.162   4.084   4.926  0.1685  0.3900 -1.4588
15500TIP3    H267916   6.167   3.936   4.895  1.0429  0.3583 -1.1988
15501TIP3   OH267917   0.192   6.672   4.447 -0.1551 -0.0300  0.3909
15501TIP3    H167918   0.187   6.766   4.427 -0.6734  0.0954  1.0700
15501TIP3    H267919   0.272   6.642   4.405  0.6514  0.9718  1.1952
15502TIP3   OH267920   2.576   5.221  13.058 -0.0447  0.2619 -0.5226
15502TIP3    H167921   2.550   5.307  13.027  1.2761  0.6652 -0.5577
15502TIP3    H267922   2.541   5.215  13.147  0.4642  1.1218 -0.2623
15503TIP3   OH267923   5.454   5.762  15.368  0.0565  0.0717 -0.4211
15503TIP3    H167924   5.516   5.817  15.318 -0.0742  0.3873 -0.2400
15503TIP3    H267925   5.464   5.675  15.330  3.2062 -0.6686  1.9372
15504TIP3   OH267926   6.710   2.144  12.185  0.2495  0.0727  0.3159
15504TIP3    H167927   6.803   2.156  12.204  0.2291 -0.5694  0.8584
15504TIP3    H267928   6.708   2.093  12.104  0.3891 -0.6169  0.7357
15505TIP3   OH267929   5.497   5.357  13.041 -0.0953 -0.6226  0.3234
15505TIP3    H167930   5.433   5.401  13.097  0.3352 -0.3780  0.6246
15505TIP3    H267931   5.580   5.367  13.087  0.4223  0.4032 -0.8081
15506TIP3   OH267932   5.718   0.521   6.281 -0.3043 -0.0977 -0.2876
15506TIP3    H167933   5.774   0.560   6.348  0.9244 -0.5410 -1.0308
15506TIP3    H267934   5.765   0.442   6.254 -0.6683  0.1919 -1.8126
15507TIP3   OH267935   0.431   2.093   6.129 -0.5753 -0.3665  0.2081
15507TIP3    H167936   0.371   2.165   6.110 -0.0926  0.1388  0.5878
15507TIP3    H267937   0.379   2.032   6.181 -0.6331  0.2739  0.9087
15508TIP3   OH267938   4.861   1.533  13.217 -0.2638 -0.2617  0.7624
15508TIP3    H167939   4.839   1.511  13.127 -0.6391  0.8750  0.5791
15508TIP3    H267940   4.940   1.482  13.235 -2.4315 -3.7304  1.1440
15509TIP3   OH267941   4.252   5.362  11.372 -0.1738 -0.2251  0.6517
15509TIP3    H167942   4.314   5.433  11.355 -2.2259  1.3356 -0.5631
15509TIP3    H267943   4.209   5.347  11.288 -2.1718 -0.5778  1.7187
15510TIP3   OH267944   3.896   5.179   4.457 -0.1723  0.0817  0.2434
15510TIP3    H167945   3.985   5.153   4.434  0.1600  0.7425  0.7569
15510TIP3    H267946   3.867   5.114   4.521  0.3326  0.4684  0.8691
15511TIP3   OH267947   0.776   4.973   4.466 -0.5733 -0.0653 -0.1035
15511TIP3    H167948   0.792   5.066   4.451 -1.8481  0.6174  2.4242
15511TIP3    H267949   0.823   4.928   4.396 -0.4540  2.5093 -1.7173
15512TIP3   OH267950   5.530   2.465   3.913  0.2097  0.4342 -0.4044
15512TIP3    H167951   5.437   2.486   3.903  0.1837  0.4721 -0.0721
15512TIP3    H267952   5.531   2.377   3.951  0.3048  0.7859  0.4005
15513TIP3   OH267953   1.379   0.531  17.226 -0.1708  0.1749 -0.3137
15513TIP3    H167954   1.442   0.603  17.216  2.0045 -1.6120 -0.0489
15513TIP3    H267955   1.407   0.467  17.161 -2.7788  0.0226 -1.3249
15514TIP3   OH267956   1.331   4.633  13.370  0.1744 -0.3637 -0.0437
15514TIP3    H167957   1.357   4.549  13.407 -0.9825 -0.7877 -0.1839
15514TIP3    H267958   1.335   4.620  13.275 -1.1300 -0.6184 -0.0689
15515TIP3   OH267959   1.746   5.892  13.919 -0.2495 -0.2185 -0.6756
15515TIP3    H167960   1.778   5.802  13.912 -0.6282 -0.3718 -0.4046
15515TIP3    H267961   1.672   5.896  13.859 -0.1199 -0.0346 -0.8268
15516TIP3   OH267962   1.962   5.620  16.149  0.1838 -0.2946 -0.1602
15516TIP3    H167963   1.938   5.712  16.165  0.1225 -0.2912 -0.2724
15516TIP3    H267964   2.007   5.622  16.064  0.6457 -0.2909  0.0854
15517TIP3   OH267965   2.864   3.883  16.140  0.2627 -0.1356  0.3137
15517TIP3    H167966   2.811   3.805  16.121  1.4543 -0.7586 -0.5207
15517TIP3    H267967   2.916   3.896  16.061  0.7564  0.9695  0.8067
15518TIP3   OH267968   4.521   0.668  11.047 -0.0290 -0.3648 -0.1025
15518TIP3    H167969   4.569   0.618  11.113  1.1141 -1.5551 -1.8081
15518TIP3    H267970   4.462   0.605  11.006  0.6069 -0.0783 -1.4911
15519TIP3   OH267971   5.846   0.597  11.756 -0.1196 -0.3835  0.0086
15519TIP3    H167972   5.800   0.524  11.713  1.1583 -1.9026  1.1741
15519TIP3    H267973   5.825   0.673  11.702 -1.5800 -1.5858 -1.1717
15520TIP3   OH267974   5.724   1.581   5.180 -0.7622 -0.1222 -0.5884
15520TIP3    H167975   5.636   1.579   5.141 -0.4381  0.3741 -1.3590
15520TIP3    H267976   5.764   1.660   5.143 -0.4910  0.4193  0.8447
15521TIP3   OH267977   5.535   3.408  13.132 -0.0757  0.6612 -0.0468
15521TIP3    H167978   5.558   3.315  13.138 -2.5206  0.0679  0.4900
15521TIP3    H267979   5.610   3.454  13.170  2.3749 -0.9059 -2.7300
15522TIP3   OH267980   4.644   2.089  15.852 -0.4402 -0.6239 -0.5551
15522TIP3    H167981   4.578   2.158  15.841 -1.8642 -2.1598 -2.0409
15522TIP3    H267982   4.710   2.109  15.786  1.5533  1.9312  2.1023
15523TIP3   OH267983   0.853   5.524  14.538  0.1473  0.5004 -0.0153
15523TIP3    H167984   0.850   5.580  14.460 -0.0765 -1.3137 -1.3524
15523TIP3    H267985   0.785   5.459  14.523 -0.7404  0.8548  2.3094
15524TIP3   OH267986   4.806   0.107  16.788 -0.2301 -0.2399  0.2403
15524TIP3    H167987   4.764   0.061  16.861 -1.5380 -0.3354 -0.5615
15524TIP3    H267988   4.735   0.156  16.746  0.2210 -1.3650 -1.8946
15525TIP3   OH267989   0.334   5.928   5.404 -0.1531  0.2724  0.1123
15525TIP3    H167990   0.374   5.978   5.476 -0.4876  0.7009 -0.0016
15525TIP3    H267991   0.391   5.852   5.394 -0.4128 -0.0807  1.2047
15526TIP3   OH267992   0.030   5.634   6.012  0.0407 -0.1494  0.3499
15526TIP3    H167993  -0.032   5.592   5.954 -0.1406  1.7418 -0.8922
15526TIP3    H267994  -0.024   5.676   6.079 -0.1935  2.4681 -1.3727
15527TIP3   OH267995   3.110   2.570  14.866 -0.8005 -0.7545  0.5485
15527TIP3    H167996   3.156   2.501  14.818  1.6262  0.2000  1.4399
15527TIP3    H267997   3.132   2.555  14.958 -5.1852 -2.3971  1.4585
15528TIP3   OH267998   2.336   6.357  13.556 -0.4934 -0.2589  0.0298
15528TIP3    H167999   2.282   6.338  13.479  1.2719 -1.3227 -0.9856
15528TIP3    H268000   2.286   6.323  13.630 -1.4182 -0.8040 -0.8306
15529TIP3   OH268001   6.205   0.760   4.004 -0.2021 -0.2958 -0.0691
15529TIP3    H168002   6.293   0.799   4.007 -0.9879  1.5492 -0.2485
15529TIP3    H268003   6.176   0.775   3.914 -0.3699 -1.6905 -0.2575
15530TIP3   OH268004   4.517   0.496  14.917 -0.0026 -0.3972  0.1772
15530TIP3    H168005   4.568   0.438  14.861 -0.3536 -0.3026 -0.2383
15530TIP3    H268006   4.568   0.502  14.998 -0.1888 -1.6604  0.4016
15531TIP3   OH268007   6.055   1.010  14.492  0.3620  0.3836 -0.1465
15531TIP3    H168008   6.072   0.933  14.437  0.8408  1.4055 -1.4600
15531TIP3    H268009   6.135   1.061  14.486  0.1864  0.8016  1.0461
15532TIP3   OH268010   3.040   6.777  15.255  0.0985 -0.0579  0.3518
15532TIP3    H168011   3.005   6.716  15.191  0.3398  2.6027 -2.4241
15532TIP3    H268012   3.134   6.783  15.235  0.1873  0.7833  0.9401
15533TIP3   OH268013   4.820   4.011  15.062 -0.4306 -0.2640  0.0377
15533TIP3    H168014   4.743   4.068  15.058  0.0013  0.3912  0.6953
15533TIP3    H268015   4.843   4.010  15.155 -0.2362 -1.2584 -0.0163
15534TIP3   OH268016   1.881   0.788  15.743 -0.1208 -0.5674  0.1650
15534TIP3    H168017   1.914   0.818  15.659  1.4945  1.1555  1.3745
15534TIP3    H268018   1.794   0.827  15.751  0.5837  1.0566  0.2009
15535TIP3   OH268019   5.756   4.252   3.425 -0.1473  0.4957  0.1453
15535TIP3    H168020   5.785   4.251   3.334  0.0580  1.6173  0.1871
15535TIP3    H268021   5.837   4.264   3.476 -0.3639  0.8341  0.4178
15536TIP3   OH268022   1.484   4.132   3.229 -0.3950 -0.2355  0.2276
15536TIP3    H168023   1.536   4.183   3.166  0.6688 -1.3790  0.1437
15536TIP3    H268024   1.521   4.153   3.314  0.6530 -1.5017  0.1178
15537TIP3   OH268025   6.308   4.630  10.551  0.4154 -0.0471  0.1471
15537TIP3    H168026   6.323   4.538  10.527  0.1277 -0.1991  0.5401
15537TIP3    H268027   6.395   4.668  10.556  0.5708 -0.4640  0.6335
15538TIP3   OH268028   6.750   0.718   5.807 -0.5896 -0.5628  0.0310
15538TIP3    H168029   6.712   0.734   5.894 -1.6036  1.3725 -0.7360
15538TIP3    H268030   6.680   0.673   5.759 -1.1576  1.0525 -0.6977
15539TIP3   OH268031   3.814   0.815   1.348  0.3640 -0.3958 -0.2237
15539TIP3    H168032   3.740   0.796   1.291 -2.5589  2.6210  2.3614
15539TIP3    H268033   3.847   0.900   1.317 -1.4857  1.4472  2.6766
15540TIP3   OH268034   5.439   5.245   1.988  0.1004 -0.2701 -0.4434
15540TIP3    H168035   5.413   5.325   1.943  0.6286 -0.4038 -0.9849
15540TIP3    H268036   5.527   5.263   2.021 -0.8325  0.3593  1.8216
15541TIP3   OH268037   6.245   4.429   2.357  0.0157 -0.8155  0.2003
15541TIP3    H168038   6.216   4.519   2.342 -0.3489 -0.8986  0.4101
15541TIP3    H268039   6.248   4.420   2.452  0.7240 -0.8121  0.1804
15542TIP3   OH268040   1.312   1.973   4.229 -0.1014  0.2188 -0.3632
15542TIP3    H168041   1.269   1.888   4.231 -0.7412  0.5330 -0.5612
15542TIP3    H268042   1.262   2.027   4.290  2.1282 -0.3875  2.1129
15543TIP3   OH268043   3.873   3.414  15.576  0.2030 -0.0144  0.0557
15543TIP3    H168044   3.871   3.401  15.671  0.5853 -2.5353 -0.2505
15543TIP3    H268045   3.784   3.396  15.548  0.3146 -0.1859 -0.1836
15544TIP3   OH268046   4.548   6.782   6.641 -0.2873  0.3482  0.4297
15544TIP3    H168047   4.509   6.870   6.635 -1.2712 -0.0185  1.2736
15544TIP3    H268048   4.620   6.783   6.578 -4.4297 -0.4195 -4.6721
15545TIP3   OH268049   4.235   3.551  11.225  0.3602 -0.5024 -0.4229
15545TIP3    H168050   4.241   3.582  11.134 -1.3198  0.1354 -0.3349
15545TIP3    H268051   4.229   3.456  11.218 -1.2210 -0.3672 -1.0744
15546TIP3   OH268052   0.520   1.057  10.543  0.1737 -0.7718  0.2335
15546TIP3    H168053   0.589   1.122  10.562  0.4320 -0.4499 -1.7112
15546TIP3    H268054   0.546   0.980  10.593  2.3813 -0.9031 -1.0619
15547TIP3   OH268055   5.018   2.876  10.883 -0.0869  0.2106 -0.1782
15547TIP3    H168056   5.039   2.826  10.962  0.2230  1.1036  0.3126
15547TIP3    H268057   4.934   2.841  10.854  0.6703 -1.3905 -0.5026
15548TIP3   OH268058   3.017   5.276   4.687 -0.2201  0.3455  0.0874
15548TIP3    H168059   2.933   5.322   4.682 -0.4695 -0.2657 -1.7453
15548TIP3    H268060   3.007   5.201   4.629  1.2332 -0.3418  0.6869
15549TIP3   OH268061   2.054   2.439   3.302  0.8193  0.0067 -0.3729
15549TIP3    H168062   2.036   2.533   3.302  0.0619 -0.1273 -1.8459
15549TIP3    H268063   1.973   2.398   3.335  0.6027 -0.2179 -1.1743
15550TIP3   OH268064   5.149   6.337  11.026  0.1188  0.0647 -0.0005
15550TIP3    H168065   5.144   6.263  11.087 -0.1846  1.2171  1.3911
15550TIP3    H268066   5.185   6.409  11.077 -0.0932  1.0405 -1.1922
15551TIP3   OH268067   6.073   1.742  17.033 -0.7214  0.4943 -0.2266
15551TIP3    H168068   6.080   1.824  16.982 -0.7879  1.1235  0.7668
15551TIP3    H268069   5.980   1.720  17.030 -0.8031  0.7997  0.0403
15552TIP3   OH268070   0.441   0.570  16.865 -0.2918  0.1467  0.5127
15552TIP3    H168071   0.485   0.642  16.911 -0.2205  0.5547 -0.1926
15552TIP3    H268072   0.509   0.502  16.858 -0.7255 -0.5167  2.3226
15553TIP3   OH268073   4.938   0.269   4.047 -0.2652  0.0374  0.3146
15553TIP3    H168074   4.863   0.326   4.027  1.3834  1.2726 -2.6387
15553TIP3    H268075   4.970   0.301   4.131 -2.0747  0.5367  0.8498
15554TIP3   OH268076   5.030   5.409  16.629  0.4781 -0.0103  0.5280
15554TIP3    H168077   5.026   5.380  16.538  0.1543 -0.9975  0.8466
15554TIP3    H268078   4.998   5.499  16.627  0.1335 -0.1446 -0.2860
15555TIP3   OH268079   4.977   2.127   2.803  0.1859 -0.0308  0.1304
15555TIP3    H168080   4.889   2.154   2.777  0.6305  2.6641  1.2406
15555TIP3    H268081   4.971   2.032   2.815 -2.3251 -0.0037 -0.6673
15556TIP3   OH268082   2.641   6.047  14.072 -0.4556  0.2814 -0.4738
15556TIP3    H168083   2.636   5.986  13.998 -0.4719  0.7268 -0.8449
15556TIP3    H268084   2.652   6.132  14.031 -1.9104  0.7052  0.0041
15557TIP3   OH268085   2.333   1.542  11.688  0.4325 -0.0988  0.1147
15557TIP3    H168086   2.278   1.467  11.664 -1.0106  1.2481 -0.8811
15557TIP3    H268087   2.323   1.549  11.783 -0.9752  0.0098 -0.0276
15558TIP3   OH268088   6.030   1.264   3.041 -0.3131  0.4981  0.0002
15558TIP3    H168089   6.020   1.200   2.971  2.7007 -2.5872  2.2040
15558TIP3    H268090   5.947   1.260   3.090 -0.6418 -0.7851 -0.6546
15559TIP3   OH268091   4.206   3.436   5.134 -0.2804  0.1379 -0.0255
15559TIP3    H168092   4.246   3.518   5.164 -0.6013  0.6396 -0.9501
15559TIP3    H268093   4.277   3.372   5.137  0.5143  0.9378 -1.3009
15560TIP3   OH268094   1.166   3.978   5.922 -0.3620  0.0832 -0.2505
15560TIP3    H168095   1.215   4.021   5.852  0.3711 -0.1329  0.1287
15560TIP3    H268096   1.233   3.938   5.978 -0.7394  2.4306  2.0228
15561TIP3   OH268097   4.751   5.199   0.292  0.4956 -0.1343 -0.3681
15561TIP3    H168098   4.842   5.204   0.260  0.1840 -1.0963 -1.4394
15561TIP3    H268099   4.723   5.110   0.269 -0.9044  0.3540 -0.5501
15562TIP3   OH268100   2.029   6.012  11.906 -0.2861  0.2138  0.5044
15562TIP3    H168101   1.963   5.942  11.904 -0.2443  0.1042  2.3345
15562TIP3    H268102   2.112   5.965  11.916 -0.1463  0.4682  0.5291
15563TIP3   OH268103   2.328   6.514  12.967  0.0129 -0.2397  0.8105
15563TIP3    H168104   2.241   6.479  12.948 -0.1114  0.5613 -0.1074
15563TIP3    H268105   2.311   6.602  13.001  0.5796  0.9356 -1.8478
15564TIP3   OH268106   3.389   5.209   1.749 -0.7471  0.1043  0.2546
15564TIP3    H168107   3.382   5.291   1.798  1.4737 -0.0988  0.9750
15564TIP3    H268108   3.456   5.227   1.682 -2.3822 -0.2180 -1.5076
15565TIP3   OH268109   0.844   6.073  15.470  0.2496 -0.0103 -0.0913
15565TIP3    H168110   0.765   6.116  15.439 -0.2872 -1.1128 -0.2801
15565TIP3    H268111   0.830   5.980  15.452 -0.0327 -0.7108  3.3989
15566TIP3   OH268112   2.487   3.920  16.941  0.6422 -0.5804 -0.0675
15566TIP3    H168113   2.562   3.920  17.000 -0.7545 -0.6602  1.7657
15566TIP3    H268114   2.496   3.840  16.889  1.2667 -1.1167  0.8620
15567TIP3   OH268115   3.646   0.614   0.384 -1.0332  0.0993  0.2394
15567TIP3    H168116   3.574   0.551   0.386 -1.3971  0.5520  1.8180
15567TIP3    H268117   3.721   0.565   0.419 -0.4018 -0.5314 -1.8763
15568TIP3   OH268118   5.630   2.729   3.041 -0.2089 -0.1615  0.9050
15568TIP3    H168119   5.545   2.687   3.060 -0.2239  0.3384  1.9707
15568TIP3    H268120   5.617   2.771   2.957 -1.3911  0.8481  1.5763
15569TIP3   OH268121   2.070   0.518   2.730 -0.3052  0.0645  0.2681
15569TIP3    H168122   2.092   0.551   2.643  3.1558  0.6803  1.2902
15569TIP3    H268123   1.975   0.525   2.735 -0.5294  0.5071 -3.2481
15570TIP3   OH268124   0.198   1.370   5.969  0.5718 -0.1348 -0.0925
15570TIP3    H168125   0.180   1.425   5.893 -0.0881 -0.2387 -0.0152
15570TIP3    H268126   0.292   1.356   5.967  0.5707 -0.0369 -0.8218
15571TIP3   OH268127   2.767   0.643  17.171 -0.0402 -0.2789 -0.0731
15571TIP3    H168128   2.858   0.643  17.200  0.0637  1.0731 -0.3779
15571TIP3    H268129   2.767   0.587  17.093  0.6508  0.1603 -0.3983
15572TIP3   OH268130   4.080   3.264   4.917  0.4210 -0.2455  0.0718
15572TIP3    H168131   4.161   3.291   4.961  1.5696 -0.3223 -1.9049
15572TIP3    H268132   4.102   3.180   4.877 -0.2404  0.2917 -1.4773
15573TIP3   OH268133   0.364   0.648   4.141 -0.1574 -0.2444 -0.0999
15573TIP3    H168134   0.378   0.625   4.049 -1.2280  3.0549 -1.1717
15573TIP3    H268135   0.274   0.681   4.144  0.2564  0.7730  1.8756
15574TIP3   OH268136   3.044   3.273   1.551 -1.0283  0.7837  0.1048
15574TIP3    H168137   3.076   3.333   1.618 -1.4452  1.7825 -0.5778
15574TIP3    H268138   3.083   3.189   1.574 -0.4114  1.3149  1.0558
15575TIP3   OH268139   0.420   1.130   2.526 -0.0878  0.0315  0.8432
15575TIP3    H168140   0.505   1.165   2.553  0.5920  0.6258 -1.8661
15575TIP3    H268141   0.441   1.045   2.486 -0.6429  0.4558 -0.3970
15576TIP3   OH268142   0.689   0.791  11.855  0.3773  0.3056 -0.2825
15576TIP3    H168143   0.605   0.775  11.813  0.0976  0.8754  0.0612
15576TIP3    H268144   0.683   0.747  11.939  0.7310 -0.3549 -0.5982
15577TIP3   OH268145   3.797   3.417  12.397  0.4519  0.1281  0.2258
15577TIP3    H168146   3.729   3.353  12.372  0.7795 -0.0188 -0.2970
15577TIP3    H268147   3.755   3.472  12.462  0.2899 -0.8771  0.9798
15578TIP3   OH268148   0.911   1.092   0.082 -0.3971  0.3759  0.2101
15578TIP3    H168149   0.828   1.128   0.049 -0.9422 -0.2708  0.8466
15578TIP3    H268150   0.937   1.028   0.016 -1.1081 -0.3937  0.6758
15579TIP3   OH268151   4.920   3.606  17.148 -0.1813 -0.3259 -0.2007
15579TIP3    H168152   4.891   3.661  17.220 -2.8475 -2.0330  0.0722
15579TIP3    H268153   4.993   3.655  17.109 -1.1078  2.3812  1.3191
15580TIP3   OH268154   4.311   0.172   0.467 -0.0235  0.1038  0.1013
15580TIP3    H168155   4.349   0.213   0.545 -2.1660 -0.9315  1.7588
15580TIP3    H268156   4.367   0.096   0.451  2.9455  2.5792 -1.9735
15581TIP3   OH268157   1.999   1.112  13.665 -0.6185 -0.2952  0.3356
15581TIP3    H168158   2.087   1.098  13.629  0.3652  0.7515  2.2694
15581TIP3    H268159   1.940   1.081  13.596  1.2555 -0.9672 -1.0138
15582TIP3   OH268160   6.268   3.013  15.677 -0.4446  0.6552  0.0137
15582TIP3    H168161   6.244   2.929  15.638  0.6531  0.0180  0.6802
15582TIP3    H268162   6.209   3.023  15.752  0.3300 -0.1889  0.7536
15583TIP3   OH268163   3.979   3.449  12.750  0.1461  0.1249  0.4848
15583TIP3    H168164   3.958   3.543  12.753  0.3471  0.2596 -1.5531
15583TIP3    H268165   3.897   3.406  12.771 -0.6498  0.7457 -1.2516
15584TIP3   OH268166   5.673   6.305   0.590  0.4412  0.4830 -0.6314
15584TIP3    H168167   5.750   6.277   0.541  0.4065  1.0464 -1.0150
15584TIP3    H268168   5.602   6.305   0.525  0.4173  1.3313 -0.6226
15585TIP3   OH268169   4.637   1.770   6.278  0.6072 -0.4608 -0.0738
15585TIP3    H168170   4.570   1.702   6.267  0.7840 -0.4089 -1.6986
15585TIP3    H268171   4.592   1.851   6.251  0.5239  0.0178  1.4421
15586TIP3   OH268172   4.615   4.993   3.324  0.2875  0.0666 -0.1691
15586TIP3    H168173   4.676   4.924   3.298 -0.4530 -0.8328  0.4687
15586TIP3    H268174   4.639   5.014   3.414 -1.4117 -1.5121  0.7046
15587TIP3   OH268175   2.325   0.361   5.460  0.0183 -0.7739 -0.4481
15587TIP3    H168176   2.375   0.398   5.533 -1.5963 -1.1555  0.8715
15587TIP3    H268177   2.238   0.400   5.468 -1.0943 -3.1974 -0.2829
15588TIP3   OH268178   1.797   2.444   3.607  0.7334  0.0785  0.5032
15588TIP3    H168179   1.840   2.368   3.645  2.1739  0.9251  0.6457
15588TIP3    H268180   1.860   2.516   3.620  0.5889  0.7276 -1.9995
15589TIP3   OH268181   4.208   2.426   0.533 -0.0672 -0.3965  0.1533
15589TIP3    H168182   4.116   2.422   0.559 -0.5909  1.2925 -1.2982
15589TIP3    H268183   4.227   2.520   0.528  1.7600 -0.7320  0.5140
15590TIP3   OH268184   2.237   0.132   4.497 -0.0845 -0.7644 -0.8300
15590TIP3    H168185   2.142   0.138   4.505 -0.1625  1.6533 -2.7038
15590TIP3    H268186   2.271   0.165   4.580 -0.8950  2.0630 -1.5779
15591TIP3   OH268187   2.763   2.170   5.621 -0.0311 -0.1062 -0.6014
15591TIP3    H168188   2.844   2.148   5.574 -0.4105 -0.4553 -1.0962
15591TIP3    H268189   2.732   2.087   5.655  0.0625  0.0984 -0.0083
15592TIP3   OH268190   2.770   3.418   5.673 -0.1362 -0.3695  0.0616
15592TIP3    H168191   2.793   3.511   5.672 -1.6983  0.0363 -2.0565
15592TIP3    H268192   2.697   3.413   5.735 -1.9080  0.3508 -1.8889
15593TIP3   OH268193   1.885   5.455   5.302  0.1160  0.2468 -0.2463
15593TIP3    H168194   1.940   5.399   5.358 -2.5795 -1.2007  1.0804
15593TIP3    H268195   1.834   5.507   5.364 -0.7479  0.8248 -1.4311
15594TIP3   OH268196   0.419   3.858  14.279 -0.1530 -0.1277 -0.1022
15594TIP3    H168197   0.507   3.841  14.246  0.5052  0.9522  1.0465
15594TIP3    H268198   0.365   3.789  14.241  0.9771 -0.1672 -1.6939
15595TIP3   OH268199   5.255   3.185  15.683  0.2063  0.0752  0.0624
15595TIP3    H168200   5.306   3.134  15.746 -0.1424 -1.9107 -1.1976
15595TIP3    H268201   5.173   3.204  15.729  0.0718 -1.0933  0.3478
15596TIP3   OH268202   2.104   2.691   4.363  0.1609  0.0714  0.3152
15596TIP3    H168203   2.044   2.619   4.385 -1.2603  1.5467  1.4287
15596TIP3    H268204   2.166   2.653   4.302 -0.9586 -1.9428  0.3933
15597TIP3   OH268205   1.417   5.661  16.761  0.2081 -0.2539 -0.3130
15597TIP3    H168206   1.361   5.720  16.811  1.5541  0.8626 -0.1049
15597TIP3    H268207   1.445   5.712  16.685  1.4876 -0.5587 -0.0631
15598TIP3   OH268208   6.763   5.822   4.806 -0.6668  0.1418  0.1437
15598TIP3    H168209   6.709   5.853   4.734 -0.2815 -1.1335 -0.7141
15598TIP3    H268210   6.720   5.741   4.834 -0.5865  0.4157  1.0908
15599TIP3   OH268211   1.637   5.202   4.235 -0.5280  0.5389  0.1007
15599TIP3    H168212   1.558   5.253   4.249  0.0764  1.0719  1.7615
15599TIP3    H268213   1.654   5.159   4.320  1.0473  0.5988 -0.1552
15600TIP3   OH268214   0.163   3.993  14.066  0.0503 -0.0796  0.1408
15600TIP3    H168215   0.101   3.962  14.000  0.0327 -1.1940  0.6684
15600TIP3    H268216   0.163   3.925  14.133  2.1363 -0.2700 -0.0387
15601TIP3   OH268217   4.469   2.458  13.933 -0.0016 -0.5203  0.3104
15601TIP3    H168218   4.479   2.550  13.912  0.8963 -0.4879  0.8729
15601TIP3    H268219   4.376   2.439  13.917  0.2339 -0.0001 -1.6612
15602TIP3   OH268220   1.931   3.119   2.778 -0.1416  0.0555 -0.6069
15602TIP3    H168221   1.893   3.101   2.692  0.9596  0.5218 -1.1935
15602TIP3    H268222   1.874   3.186   2.816 -1.6719 -1.4260 -0.2258
15603TIP3   OH268223   1.077   4.570  11.082  0.3459  0.3741 -0.5386
15603TIP3    H168224   0.984   4.592  11.076 -0.4177 -2.5695 -0.2506
15603TIP3    H268225   1.105   4.561  10.992 -0.4201 -1.6709 -0.5936
15604TIP3   OH268226   4.103   6.438   3.581 -0.3554  0.3647  0.3583
15604TIP3    H168227   4.121   6.521   3.625 -1.0386  0.7384 -0.0607
15604TIP3    H268228   4.051   6.388   3.644 -0.6994  0.6060  0.2673
15605TIP3   OH268229   1.908   5.523  13.084 -0.0999 -0.1333  0.1105
15605TIP3    H168230   1.971   5.556  13.148 -0.2195 -3.8418  2.3038
15605TIP3    H268231   1.829   5.505  13.135 -0.9922 -0.9048 -1.5070
15606TIP3   OH268232   2.446   6.065  15.380  0.4532  0.4690  0.0923
15606TIP3    H168233   2.457   6.160  15.380 -0.7570  0.6218 -0.1930
15606TIP3    H268234   2.515   6.032  15.438  0.7259  1.5396  0.3749
15607TIP3   OH268235   3.232   4.200  11.763 -0.6696  0.1123 -0.2227
15607TIP3    H168236   3.222   4.254  11.842  0.2949 -0.3097  0.1914
15607TIP3    H268237   3.253   4.263  11.694  1.4250  0.1952  0.4537
15608TIP3   OH268238   4.851   0.962   1.245 -0.2775  0.2258 -0.1586
15608TIP3    H168239   4.912   0.890   1.227 -1.0158 -0.2475 -0.8120
15608TIP3    H268240   4.891   1.039   1.205  0.1500  0.0312 -0.1107
15609TIP3   OH268241   5.937   3.836   5.144 -0.3169  0.2144  0.4327
15609TIP3    H168242   5.896   3.914   5.180  1.0603  0.6368  1.1177
15609TIP3    H268243   5.878   3.764   5.169 -1.4646  0.9779 -0.0088
15610TIP3   OH268244   2.640   5.455  16.202  0.1599  0.4339  0.0631
15610TIP3    H168245   2.702   5.383  16.201  1.1617  1.2931 -1.9584
15610TIP3    H268246   2.691   5.531  16.174 -1.3393  1.5536  0.2827
15611TIP3   OH268247   1.727   0.817   1.175  0.3234 -0.0913 -0.3427
15611TIP3    H168248   1.649   0.800   1.123  0.2453 -0.5315 -0.0799
15611TIP3    H268249   1.765   0.896   1.136 -0.8526  0.7633  0.2350
15612TIP3   OH268250   5.468   3.579  11.294  0.2123  0.4321 -0.2557
15612TIP3    H168251   5.558   3.608  11.280 -0.5121  2.9060 -0.0219
15612TIP3    H268252   5.415   3.655  11.272 -1.6445  0.2273  3.2125
15613TIP3   OH268253   1.346   2.284  15.528  0.4411 -0.1427 -0.0457
15613TIP3    H168254   1.339   2.220  15.457 -0.7193 -0.9118  0.7448
15613TIP3    H268255   1.328   2.369  15.486 -0.1419 -0.5809 -0.6995
15614TIP3   OH268256   6.201   2.801   0.669 -0.0517 -0.2955 -0.7849
15614TIP3    H168257   6.148   2.733   0.712 -0.9560 -0.6452 -2.4113
15614TIP3    H268258   6.139   2.872   0.652  0.7593  0.7138  0.3411
15615TIP3   OH268259   3.930   3.761   5.759 -0.4796 -0.6792 -0.0565
15615TIP3    H168260   4.003   3.817   5.731 -0.3871  0.0673  1.6172
15615TIP3    H268261   3.853   3.800   5.718 -0.0664 -0.9246 -1.0810
15616TIP3   OH268262   6.234   0.553   2.673 -0.1749 -0.1801 -0.1689
15616TIP3    H168263   6.311   0.505   2.642 -0.4939 -0.8152  0.0067
15616TIP3    H268264   6.268   0.612   2.740  0.0207 -1.1581  0.6085
15617TIP3   OH268265   1.178   0.138  13.853 -0.0311  0.3768  0.5258
15617TIP3    H168266   1.216   0.151  13.940  1.4598  1.9600 -0.3409
15617TIP3    H268267   1.088   0.110  13.871 -0.4713  2.9437  2.5751
15618TIP3   OH268268   3.918   2.893  13.987 -0.1683  0.1763  0.0854
15618TIP3    H168269   3.844   2.924  13.935  0.9579 -0.4036 -1.9033
15618TIP3    H268270   3.882   2.824  14.042 -0.9137 -0.8166 -1.6163
15619TIP3   OH268271   3.832   0.504   6.420  0.2793  0.2636 -0.1499
15619TIP3    H168272   3.850   0.596   6.441 -0.0481  0.5167 -0.9371
15619TIP3    H268273   3.768   0.476   6.486  0.8631  0.4040  0.4853
15620TIP3   OH268274   3.506   4.933   2.916  0.2616  0.1481 -0.4618
15620TIP3    H168275   3.475   4.937   2.825  0.5941 -0.2996 -0.5963
15620TIP3    H268276   3.600   4.954   2.910  0.0127  1.3997 -0.0693
15621TIP3   OH268277   4.886   0.780   1.817  0.3473 -0.2784 -0.1801
15621TIP3    H168278   4.962   0.756   1.869  0.8479 -2.4639 -1.8200
15621TIP3    H268279   4.880   0.711   1.750 -3.0955 -0.2166 -0.0551
15622TIP3   OH268280   2.459   0.992  10.871 -0.0538 -0.3073 -0.1227
15622TIP3    H168281   2.443   0.910  10.824 -0.3133  0.4374 -1.3396
15622TIP3    H268282   2.416   1.059  10.818 -4.0301  0.0608  3.3243
15623TIP3   OH268283   3.729   2.898   0.256  0.1160  0.2156 -0.3194
15623TIP3    H168284   3.723   2.941   0.341  0.9842  0.6935 -0.4937
15623TIP3    H268285   3.774   2.816   0.273 -0.2532  0.0283 -0.2264
15624TIP3   OH268286   2.687   5.626   3.510  0.1025  0.0677 -0.0026
15624TIP3    H168287   2.665   5.564   3.441  0.0099 -0.7847  0.7859
15624TIP3    H268288   2.622   5.610   3.579 -0.6164  1.8011 -0.2454
15625TIP3   OH268289   6.665   3.421   2.591  0.9095  0.0600 -0.2954
15625TIP3    H168290   6.688   3.364   2.664  1.7523 -0.3740 -0.8934
15625TIP3    H268291   6.654   3.362   2.516 -0.1299  0.4759 -0.4908
15626TIP3   OH268292   5.559   0.056  14.805  0.1171  0.3080  0.6805
15626TIP3    H168293   5.596   0.015  14.727 -0.2538  0.0976  0.6165
15626TIP3    H268294   5.513   0.134  14.773 -2.5627 -1.3760  0.3361
15627TIP3   OH268295   3.833   4.187   4.751  0.3581  0.3350  0.2426
15627TIP3    H168296   3.847   4.272   4.792  0.7287  0.3754  0.0310
15627TIP3    H268297   3.918   4.144   4.752 -0.0084 -0.4015  1.1537
15628TIP3   OH268298   1.476   0.083   5.181  0.8368  0.0063  0.0471
15628TIP3    H168299   1.433   0.083   5.266  0.5736 -0.8966 -0.0806
15628TIP3    H268300   1.510   0.172   5.171 -0.2262  0.4834  0.5442
15629TIP3   OH268301   2.638   3.594  13.594  0.4926 -0.4288  0.1956
15629TIP3    H168302   2.670   3.547  13.517 -0.7279  0.2951 -0.7734
15629TIP3    H268303   2.641   3.686  13.568 -1.2948 -0.2781  0.4783
15630TIP3   OH268304   0.425   0.497   3.050 -0.4896  0.0171 -0.4273
15630TIP3    H168305   0.376   0.579   3.056 -2.4706 -1.1671  0.1471
15630TIP3    H268306   0.503   0.512   3.103 -2.0648  0.6952  1.7641
15631TIP3   OH268307   5.614   6.613   6.670 -0.3995 -0.0480 -0.2333
15631TIP3    H168308   5.574   6.599   6.585  0.7906  1.5503 -1.0775
15631TIP3    H268309   5.571   6.550   6.728 -2.7004  0.2980 -1.5360
15632TIP3   OH268310   0.652   2.928   5.402  0.0730 -0.1972 -0.5917
15632TIP3    H168311   0.672   3.010   5.356 -0.3259 -0.3726 -1.0795
15632TIP3    H268312   0.582   2.888   5.350 -0.5217 -0.2951  0.2873
15633TIP3   OH268313   3.822   3.479   2.652 -0.8845 -0.3787 -0.0701
15633TIP3    H168314   3.742   3.530   2.649 -0.0749  0.8536 -1.8669
15633TIP3    H268315   3.804   3.408   2.714 -2.1432  1.8790  2.2157
15634TIP3   OH268316   4.357   4.363  12.417 -0.1646  0.2518 -0.5014
15634TIP3    H168317   4.428   4.366  12.480  0.3499 -0.4838 -1.0353
15634TIP3    H268318   4.365   4.277  12.376 -2.9678 -0.8981  1.2711
15635TIP3   OH268319   4.835   1.870   4.774  0.7317 -0.3805 -0.0434
15635TIP3    H168320   4.924   1.903   4.786  1.3089 -0.9486 -2.5700
15635TIP3    H268321   4.827   1.856   4.680 -2.6660  1.4267 -0.0930
15636TIP3   OH268322   4.803   2.175  12.276 -0.0637 -0.1267 -0.0567
15636TIP3    H168323   4.756   2.209  12.199  0.9145 -2.8223 -1.9145
15636TIP3    H268324   4.737   2.174  12.345 -0.9364  2.4892 -0.7668
15637TIP3   OH268325   4.879   5.348   2.946  0.1032 -0.1743 -0.4979
15637TIP3    H168326   4.788   5.333   2.974  0.7717 -0.2065  1.7446
15637TIP3    H268327   4.931   5.295   3.005  1.7880  2.2691  0.2765
15638TIP3   OH268328   1.596   1.406  15.678  0.0657 -0.1794 -0.1655
15638TIP3    H168329   1.606   1.478  15.615  0.5043  0.1098  0.2386
15638TIP3    H268330   1.641   1.436  15.757 -0.8660 -0.3705  0.4350
15639TIP3   OH268331   1.204   5.291   3.053 -0.2911  0.9445  0.0764
15639TIP3    H168332   1.294   5.298   3.022 -0.4963  0.0044 -0.7409
15639TIP3    H268333   1.210   5.305   3.148  0.6042  1.6947 -0.0868
15640TIP3   OH268334   2.173   3.641   2.859  0.4098 -0.4085 -0.2045
15640TIP3    H168335   2.236   3.657   2.929  2.2515  1.1059 -2.1298
15640TIP3    H268336   2.177   3.546   2.844  2.7680 -0.2546 -0.7335
15641TIP3   OH268337   4.150   5.576   5.052  0.2761 -0.5323 -0.1009
15641TIP3    H168338   4.109   5.604   4.970 -1.9579  0.4173  1.3017
15641TIP3    H268339   4.211   5.506   5.026  0.9736  1.0083 -2.7783
15642TIP3   OH268340   0.222   1.159   1.237 -0.3232  0.2977  0.1193
15642TIP3    H168341   0.186   1.241   1.204 -0.4517 -0.0004 -0.4894
15642TIP3    H268342   0.210   1.097   1.165 -0.8369 -0.4236  0.8264
15643TIP3   OH268343   0.053   3.164   5.018 -0.1745  0.5207 -0.2383
15643TIP3    H168344   0.111   3.239   5.030 -0.4146  0.9533 -1.6272
15643TIP3    H268345  -0.000   3.161   5.097  1.8533  0.0000  1.1496
15644TIP3   OH268346   2.052   5.414  12.617 -0.1296  0.2439  0.1293
15644TIP3    H168347   2.006   5.486  12.662  0.1974  0.3065  0.3630
15644TIP3    H268348   2.099   5.457  12.546 -1.7109 -0.0141 -1.1126
15645TIP3   OH268349   5.883   1.374   5.036  0.0749 -0.0697 -0.4869
15645TIP3    H168350   5.843   1.453   5.073 -0.1785 -1.2249  1.7748
15645TIP3    H268351   5.854   1.303   5.094 -0.1073 -1.9044 -2.7763
15646TIP3   OH268352   3.986   4.129   2.222 -0.2222  0.0139 -0.1135
15646TIP3    H168353   4.008   4.185   2.148  0.6266  1.1738  0.9782
15646TIP3    H268354   3.927   4.183   2.275  2.4630  0.8413  2.1535
15647TIP3   OH268355   3.684   5.260   1.290  0.4708 -1.0573  0.2772
15647TIP3    H168356   3.778   5.247   1.302  0.4578 -1.3738  0.0416
15647TIP3    H268357   3.673   5.269   1.195  0.2236 -1.3169  0.2836
15648TIP3   OH268358   5.086   0.234   1.721 -0.0380  0.2624 -0.1462
15648TIP3    H168359   5.108   0.271   1.636  1.3622 -0.1388  0.0279
15648TIP3    H268360   5.058   0.309   1.773 -1.1580  0.4718 -1.0356
15649TIP3   OH268361   0.892   2.539   4.670 -0.2437 -0.4899  0.2759
15649TIP3    H168362   0.843   2.620   4.687 -0.6222 -0.5598 -0.4845
15649TIP3    H268363   0.867   2.514   4.582 -0.8165 -1.9237  0.8386
15650TIP3   OH268364   3.567   0.770  15.041 -0.4795 -0.7118  0.1278
15650TIP3    H168365   3.585   0.847  14.987 -1.9353 -1.1919 -1.0769
15650TIP3    H268366   3.521   0.805  15.117 -1.4672 -0.4212 -0.5930
15651TIP3   OH268367   3.802   5.711  11.382 -0.3053  0.4751  0.0043
15651TIP3    H168368   3.825   5.647  11.315  0.7385 -0.6784  1.4219
15651TIP3    H268369   3.708   5.726  11.370 -0.3628 -0.5945 -0.9729
15652TIP3   OH268370   2.922   2.128  11.673  0.0996  0.3578 -0.0513
15652TIP3    H168371   2.860   2.138  11.745 -0.4845 -1.5597 -0.2724
15652TIP3    H268372   2.907   2.205  11.617 -1.3958  0.4033  0.4101
15653TIP3   OH268373   5.287   1.894  11.614 -0.1494 -0.4207 -0.3418
15653TIP3    H168374   5.355   1.836  11.579  0.4112  0.0006  0.0418
15653TIP3    H268375   5.210   1.838  11.624  0.4081 -1.1099  0.0855
15654TIP3   OH268376   3.842   1.709   0.189 -0.0657 -0.1688 -0.1331
15654TIP3    H168377   3.931   1.722   0.157 -0.0651 -2.4348 -1.1550
15654TIP3    H268378   3.851   1.707   0.285  0.3831  3.4503 -0.0230
15655TIP3   OH268379   6.423   4.244  10.870 -0.4010  0.0465 -0.1269
15655TIP3    H168380   6.416   4.222  10.777  0.7722  0.3866 -0.3098
15655TIP3    H268381   6.435   4.339  10.871  0.1138 -0.0234  0.3396
15656TIP3   OH268382   1.498   2.240  14.017 -0.4322  0.1742  0.3841
15656TIP3    H168383   1.581   2.239  14.065 -1.6805  0.2510  2.6260
15656TIP3    H268384   1.467   2.330  14.025 -1.7056 -0.3312  1.3258
15657TIP3   OH268385   5.685   3.146  11.585 -0.3620  0.5250 -0.0534
15657TIP3    H168386   5.680   3.126  11.678 -0.3573  2.1856  0.3195
15657TIP3    H268387   5.766   3.195  11.575  0.2591 -0.6991 -1.1423
15658TIP3   OH268388   1.826   2.077   2.623 -0.7685  0.2623 -0.2123
15658TIP3    H168389   1.904   2.131   2.637 -0.2793  0.2027 -2.5348
15658TIP3    H268390   1.765   2.106   2.691  0.1266  2.5148 -0.3164
15659TIP3   OH268391   5.369   2.099   5.023 -0.0421 -0.3717 -0.2953
15659TIP3    H168392   5.320   2.018   5.032  0.5279 -0.7372 -0.4837
15659TIP3    H268393   5.417   2.089   4.941 -0.5486  0.4595 -0.6969
15660TIP3   OH268394   0.901   6.221   3.376  0.7376 -0.2826 -0.3950
15660TIP3    H168395   0.889   6.152   3.442 -0.2495  0.3339  0.0746
15660TIP3    H268396   0.823   6.216   3.321 -0.4107  1.9065  0.9875
15661TIP3   OH268397   0.850   0.309   5.691  0.1492 -0.0883  0.3498
15661TIP3    H168398   0.775   0.369   5.694 -0.1873 -0.5228  0.7047
15661TIP3    H268399   0.912   0.346   5.754  0.7539  0.9496 -0.8348
15662TIP3   OH268400   6.000   0.773  15.423 -0.1566 -0.0102  0.3575
15662TIP3    H168401   6.064   0.702  15.419 -0.2694 -0.1433  0.8532
15662TIP3    H268402   5.973   0.775  15.515 -0.9234  0.0039  0.1283
15663TIP3   OH268403   0.628   0.027  16.528  0.5040  0.1333  0.1717
15663TIP3    H168404   0.633   0.076  16.610 -0.5586 -1.4108  1.1988
15663TIP3    H268405   0.554   0.065  16.481  0.3085  0.1716  0.5127
15664TIP3   OH268406   5.263   6.358  12.560 -0.0964 -0.6869  0.2624
15664TIP3    H168407   5.287   6.339  12.469  0.6575 -2.3085  0.7960
15664TIP3    H268408   5.196   6.427  12.552 -1.3483 -2.0518 -1.6157
15665TIP3   OH268409   5.185   6.090  13.592  0.6501  0.1268  0.1827
15665TIP3    H168410   5.234   6.107  13.512  2.6936 -1.1105  1.1336
15665TIP3    H268411   5.221   6.008  13.626 -3.2399 -1.7222  0.0442
15666TIP3   OH268412   2.234   0.199  12.251 -0.3709 -0.0669 -0.4827
15666TIP3    H168413   2.149   0.227  12.219 -0.0770  1.2054 -0.1659
15666TIP3    H268414   2.217   0.163  12.338 -0.6114  0.0078 -0.4992
15667TIP3   OH268415   1.575   2.400  12.417 -0.2177 -0.2117  0.4147
15667TIP3    H168416   1.566   2.495  12.413  0.6348 -0.1061  0.8791
15667TIP3    H268417   1.652   2.386  12.471  1.4443 -1.1104 -2.1155
15668TIP3   OH268418   4.841   4.814   4.490  0.0919 -0.1792 -0.0722
15668TIP3    H168419   4.911   4.814   4.556 -0.5567 -0.0579  0.6255
15668TIP3    H268420   4.763   4.842   4.538 -0.5983 -1.0450 -0.6817
15669TIP3   OH268421   2.428   5.987  10.916  0.1152  0.3476  0.2683
15669TIP3    H168422   2.440   6.076  10.883 -0.3834 -0.0238 -0.9583
15669TIP3    H268423   2.364   5.949  10.856  1.6094 -1.3852 -0.2682
15670TIP3   OH268424   2.275   2.985  14.543  0.2374  0.4789 -0.5270
15670TIP3    H168425   2.365   2.953  14.543  0.4340  0.8536  2.7517
15670TIP3    H268426   2.283   3.080  14.546 -0.2508  0.4737  1.1869
15671TIP3   OH268427   2.235   4.972  14.510 -0.0719  0.6091 -0.1289
15671TIP3    H168428   2.256   4.941  14.598 -1.1459  0.9604  0.2632
15671TIP3    H268429   2.302   5.037  14.490 -0.4983  1.3742  0.9060
15672TIP3   OH268430   6.327   0.243  16.905 -0.1735  0.2304  0.6512
15672TIP3    H168431   6.286   0.179  16.846  0.8798  0.3021 -0.1903
15672TIP3    H268432   6.409   0.201  16.933 -0.3765  0.4502  1.5823
15673TIP3   OH268433   3.511   3.351  11.691  0.3197 -0.0496 -0.1570
15673TIP3    H168434   3.490   3.429  11.743  1.2647  0.2474 -0.2003
15673TIP3    H268435   3.496   3.278  11.751 -0.5783  0.1665 -0.1167
15674TIP3   OH268436   6.731   2.271  13.151 -0.4983  0.1137 -0.0595
15674TIP3    H168437   6.707   2.363  13.157  1.6478  0.8033 -1.6264
15674TIP3    H268438   6.720   2.249  13.059  2.1837 -0.2730 -0.3143
15675TIP3   OH268439   1.178   4.813  11.419 -0.5376  0.2491 -0.0079
15675TIP3    H168440   1.273   4.808  11.424 -0.7001 -0.7075  2.4752
15675TIP3    H268441   1.147   4.731  11.458 -2.3908  0.6979 -0.4897
15676TIP3   OH268442   4.273   0.162  16.949  0.6115  0.6111 -0.6693
15676TIP3    H168443   4.181   0.156  16.923  0.7548 -0.1585 -0.9962
15676TIP3    H268444   4.318   0.196  16.872  0.8718 -0.6633 -1.0773
15677TIP3   OH268445   3.765   4.446  12.114 -0.5110 -0.3767  0.2926
15677TIP3    H168446   3.701   4.516  12.100 -0.0837  0.3803  1.9912
15677TIP3    H268447   3.849   4.487  12.096 -0.3130 -0.6576  0.5873
15678TIP3   OH268448   1.768   4.091  13.511  0.1024 -0.0582  0.0519
15678TIP3    H168449   1.821   4.155  13.558 -0.2475  1.4781 -1.5898
15678TIP3    H268450   1.807   4.086  13.424  0.1881 -2.1869  0.1736
15679TIP3   OH268451   0.075   0.966  13.141 -0.0575  0.2858  0.6033
15679TIP3    H168452   0.137   0.907  13.184 -0.4273 -0.7209 -0.2181
15679TIP3    H268453   0.117   1.052  13.145  0.8772 -0.1863  1.0641
15680TIP3   OH268454   4.537   6.419  15.401 -0.4802  0.3508 -0.1042
15680TIP3    H168455   4.513   6.327  15.404  0.4246  0.1601  1.7699
15680TIP3    H268456   4.594   6.426  15.324 -1.3199 -0.4412 -0.8122
15681TIP3   OH268457   5.988   4.196   2.716  0.0316 -0.0407  0.1733
15681TIP3    H168458   5.980   4.270   2.655  0.7834 -0.3800 -0.3376
15681TIP3    H268459   6.073   4.158   2.696 -0.8492 -1.7717 -0.3714
15682TIP3   OH268460   4.302   2.815  15.692  0.6327  0.6865  0.6160
15682TIP3    H168461   4.323   2.850  15.605 -0.2443  0.0856  0.1434
15682TIP3    H268462   4.383   2.775  15.722  1.2324  1.8296  0.5267
15683TIP3   OH268463   5.398   6.492   4.098 -0.2290  0.1618 -0.1379
15683TIP3    H168464   5.426   6.414   4.146  0.6864 -0.4105 -1.5642
15683TIP3    H268465   5.472   6.512   4.041 -0.2821  2.3369  0.5150
15684TIP3   OH268466   5.989   2.531  16.987 -0.0998  0.3678 -0.2114
15684TIP3    H168467   5.977   2.626  16.978  0.7267  0.7129  1.8615
15684TIP3    H268468   6.055   2.522  17.057 -1.1041 -1.7437  0.5084
15685TIP3   OH268469   0.093   0.253  15.930  0.0976 -0.5579  0.0481
15685TIP3    H168470   0.030   0.181  15.935 -0.4850 -0.0122  0.7875
15685TIP3    H268471   0.177   0.210  15.914 -0.1587 -1.4459  0.9908
15686TIP3   OH268472   5.833   5.218   0.259 -0.5798  0.0173  0.0577
15686TIP3    H168473   5.827   5.284   0.329  0.7263 -0.3454  0.5416
15686TIP3    H268474   5.753   5.229   0.208 -1.3999  0.5131  1.4198
15687TIP3   OH268475   0.416   4.684  13.400  0.3659 -0.1332 -0.2029
15687TIP3    H168476   0.493   4.632  13.377  0.9616  1.3046 -1.5683
15687TIP3    H268477   0.441   4.730  13.479  0.6606 -0.1806 -0.2697
15688TIP3   OH268478   4.294   1.743   3.637  0.4258 -0.0452 -0.4401
15688TIP3    H168479   4.221   1.690   3.667 -0.3034  1.3541  0.3011
15688TIP3    H268480   4.301   1.725   3.544 -0.9467 -0.1073 -0.5389
15689TIP3   OH268481   2.700   3.719  11.733 -0.1602 -0.5331  0.1078
15689TIP3    H168482   2.755   3.713  11.812 -1.6866 -0.4852  1.1922
15689TIP3    H268483   2.610   3.712  11.766 -0.8586  0.5711 -1.5279
15690TIP3   OH268484   0.157   0.646  14.434 -0.5173  0.2041 -0.1719
15690TIP3    H168485   0.134   0.688  14.517  0.4519 -1.8400  1.1745
15690TIP3    H268486   0.073   0.614  14.400 -0.8589  0.6468  0.2433
15691TIP3   OH268487   5.258   1.849  13.892 -0.0698  1.0522 -0.4087
15691TIP3    H168488   5.337   1.848  13.837  0.4477  2.9660  0.2671
15691TIP3    H268489   5.223   1.937  13.882 -2.4901  0.0582 -1.1549
15692TIP3   OH268490   0.643   4.417  11.638 -0.0554 -0.2084 -0.2585
15692TIP3    H168491   0.644   4.351  11.707  1.8632 -0.3046 -0.3616
15692TIP3    H268492   0.594   4.490  11.675 -0.7334 -1.0148  0.4676
15693TIP3   OH268493   2.069   6.001   3.170 -0.5660  0.3391  0.2427
15693TIP3    H168494   2.148   6.025   3.218 -0.3628  0.0673  0.0463
15693TIP3    H268495   2.077   5.907   3.155 -0.3533  0.5076 -0.8052
15694TIP3   OH268496   1.853   5.410  15.976 -0.3080  0.5299 -0.2036
15694TIP3    H168497   1.871   5.321  16.007 -0.8086  0.4203 -0.2243
15694TIP3    H268498   1.818   5.456  16.052 -2.9035 -0.1414 -0.9286
15695TIP3   OH268499   0.849   5.072  12.824  0.4603 -0.0243  0.2937
15695TIP3    H168500   0.841   5.066  12.919  0.3261 -1.5020  0.2043
15695TIP3    H268501   0.944   5.074  12.808  0.4750  1.2550  0.5039
15696TIP3   OH268502   3.200   3.603  14.745  0.1642 -0.4508  0.7025
15696TIP3    H168503   3.245   3.687  14.750 -0.9534  0.2204 -0.2238
15696TIP3    H268504   3.181   3.581  14.837  0.8311  0.0937  0.9761
15697TIP3   OH268505   4.738   1.188  17.020  0.5319  0.6648  0.2446
15697TIP3    H168506   4.810   1.159  17.075  0.4348  1.7358  0.9466
15697TIP3    H268507   4.671   1.218  17.082  0.1145  1.1499 -0.4333
15698TIP3   OH268508   5.780   1.169  12.161 -0.1788 -0.1949  0.5322
15698TIP3    H168509   5.792   1.201  12.072 -2.0020  0.9916  0.6887
15698TIP3    H268510   5.717   1.097  12.153 -0.4303 -0.0144  0.8813
15699TIP3   OH268511   2.586   1.414   5.990  0.7804  0.0380 -0.1804
15699TIP3    H168512   2.571   1.449   6.078  1.3685  0.9289 -0.4278
15699TIP3    H268513   2.681   1.415   5.980  0.8904 -2.8155  0.2715
15700TIP3   OH268514   4.782   0.554  14.742  0.3447  0.0828  0.0155
15700TIP3    H168515   4.855   0.582  14.687 -0.8184  0.4197 -1.3680
15700TIP3    H268516   4.733   0.634  14.759 -0.1868 -0.2874  0.2187
15701TIP3   OH268517   1.972   0.172   0.295  0.2267  0.0886 -0.3420
15701TIP3    H168518   1.949   0.079   0.292 -0.3666  0.1433  1.7250
15701TIP3    H268519   1.913   0.210   0.361  1.5903  1.5835  0.0616
15702TIP3   OH268520   3.157   2.368  15.106 -0.6565  0.2788  0.0665
15702TIP3    H168521   3.234   2.415  15.073 -0.3937  1.4182  2.2052
15702TIP3    H268522   3.109   2.434  15.156 -0.7170 -1.5046  2.4229
15703TIP3   OH268523   5.115   3.781   6.162 -0.3732  0.0995  0.2800
15703TIP3    H168524   5.186   3.717   6.166  0.0795  0.5522 -0.3926
15703TIP3    H268525   5.054   3.753   6.229 -0.5883 -1.5308 -0.5808
15704TIP3   OH268526   3.350   5.822   5.084 -0.4936  0.2389 -0.1048
15704TIP3    H168527   3.346   5.762   5.158  1.0800  1.0823  0.6845
15704TIP3    H268528   3.259   5.848   5.069 -0.8638 -0.1868  1.3277
15705TIP3   OH268529   5.547   0.019   5.940  0.4495 -0.2502  0.1012
15705TIP3    H168530   5.565   0.055   6.027 -0.9007 -0.3258  0.4116
15705TIP3    H268531   5.502   0.090   5.893 -1.3577 -1.1791  0.4013
15706TIP3   OH268532   1.243   1.451  15.749 -0.1504  0.2446 -0.3390
15706TIP3    H168533   1.253   1.499  15.667 -2.9835 -0.4130 -1.1343
15706TIP3    H268534   1.187   1.507  15.803 -0.9598 -0.7631 -0.1179
15707TIP3   OH268535   5.484   0.519  12.212  0.3370  0.1960 -0.5462
15707TIP3    H168536   5.442   0.561  12.287  1.1875  1.0769 -0.5631
15707TIP3    H268537   5.506   0.591  12.153  1.5217 -0.2956 -0.7125
15708TIP3   OH268538   2.629   5.725  16.460 -0.3637 -0.2066 -0.5320
15708TIP3    H168539   2.691   5.652  16.464 -1.2543 -0.9544 -0.0876
15708TIP3    H268540   2.554   5.691  16.412 -1.6564 -0.2700  1.4531
15709TIP3   OH268541   0.096   1.951  13.472  0.4105 -0.1813 -0.4920
15709TIP3    H168542   0.076   1.914  13.386 -2.1625 -0.3454  0.1352
15709TIP3    H268543   0.036   2.025  13.480 -0.3748 -1.0589  1.7822
15710TIP3   OH268544   1.359   4.754  15.822 -0.0988  0.2480 -0.1766
15710TIP3    H168545   1.417   4.755  15.746 -0.7245  0.8223 -0.6450
15710TIP3    H268546   1.405   4.807  15.888  1.0907 -1.3695  0.3482
15711TIP3   OH268547   0.106   3.965  10.418 -0.2364 -0.1344 -0.2365
15711TIP3    H168548   0.162   3.889  10.404  0.6208  0.4127  0.1180
15711TIP3    H268549   0.026   3.946  10.370 -0.3369 -1.5957  0.4865
15712TIP3   OH268550   2.753   6.739  12.070  0.2005  0.1411  0.1087
15712TIP3    H168551   2.782   6.696  12.150 -1.0391 -0.0747  0.4562
15712TIP3    H268552   2.772   6.676  12.000  0.3759 -0.0759  0.3539
15713TIP3   OH268553   2.220   0.631  15.207 -0.1275 -0.0817  0.6525
15713TIP3    H168554   2.243   0.540  15.188  2.4372  0.9786 -1.5705
15713TIP3    H268555   2.281   0.656  15.277  0.2957  0.4256  0.1031
15714TIP3   OH268556   3.784   0.961  11.517 -0.7034 -0.6033  0.1034
15714TIP3    H168557   3.814   0.870  11.522 -0.0130 -0.4018 -0.3187
15714TIP3    H268558   3.791   0.984  11.425  0.6823  0.3916  0.4442
15715TIP3   OH268559   1.678   1.007  16.668  0.5728 -0.3009  0.4356
15715TIP3    H168560   1.646   1.085  16.714 -1.1661  1.6634 -3.8288
15715TIP3    H268561   1.773   1.011  16.677  0.4090  1.5048  1.5563
15716TIP3   OH268562   2.636   2.203   3.008 -0.3323  0.6807 -0.3094
15716TIP3    H168563   2.601   2.231   2.924 -1.1199 -0.9099 -0.5152
15716TIP3    H268564   2.699   2.134   2.987  0.3559  1.1003  0.3257
15717TIP3   OH268565   1.471   2.626   0.467 -0.5622 -0.4796 -0.4979
15717TIP3    H168566   1.552   2.578   0.452 -0.2391  0.1040 -0.6568
15717TIP3    H268567   1.463   2.683   0.390  0.3407  1.4937  0.8008
15718TIP3   OH268568   1.329   2.139  16.942 -0.1169 -0.1795  0.3699
15718TIP3    H168569   1.249   2.099  16.974  0.4067 -1.1110  0.5367
15718TIP3    H268570   1.392   2.066  16.936  0.7813  0.5767  0.4713
15719TIP3   OH268571   0.776   1.994   3.885  0.3282 -1.0611  0.1507
15719TIP3    H168572   0.823   1.950   3.956  0.1776 -0.9101  0.3445
15719TIP3    H268573   0.791   2.087   3.900  1.1439 -1.0654 -0.6020
15720TIP3   OH268574   3.567   0.220  16.999  0.3043  0.2371  0.0046
15720TIP3    H168575   3.577   0.215  17.094 -0.0331  2.9158  0.2141
15720TIP3    H268576   3.514   0.298  16.984 -0.0150 -0.3844 -2.3878
15721TIP3   OH268577   1.750   5.051   0.075  0.7999  0.2751  0.5706
15721TIP3    H168578   1.763   4.969   0.122 -0.4703  0.4524  1.2435
15721TIP3    H268579   1.800   5.116   0.124  0.1833  0.2877  1.1893
15722TIP3   OH268580   2.152   5.569  10.370 -0.3571  0.2976 -0.8492
15722TIP3    H168581   2.081   5.633  10.371 -0.6360  0.0775  2.7858
15722TIP3    H268582   2.109   5.487  10.346 -1.4326  0.1674  1.3062
15723TIP3   OH268583   0.912   0.583   3.772  0.0931 -0.0595  0.0746
15723TIP3    H168584   0.873   0.509   3.818  0.3009  0.2062  0.6878
15723TIP3    H268585   0.847   0.608   3.706 -0.5897  0.1206  0.8141
15724TIP3   OH268586   6.454   4.046   4.412 -0.1095 -0.1701 -0.0755
15724TIP3    H168587   6.369   4.024   4.375  1.3030 -2.1293 -2.3113
15724TIP3    H268588   6.437   4.062   4.505 -2.7195 -1.6489 -0.2686
15725TIP3   OH268589   1.298   6.017  11.676  0.0842 -0.3006 -0.4221
15725TIP3    H168590   1.245   5.938  11.664  1.0228 -1.2322  1.4291
15725TIP3    H268591   1.384   5.995  11.641  0.6149 -0.4231  0.9433
15726TIP3   OH268592   5.389   0.948   3.939 -0.1924 -0.0013 -0.0588
15726TIP3    H168593   5.341   0.998   3.873 -0.8178  1.7267  1.6732
15726TIP3    H268594   5.481   0.967   3.920 -0.4288  2.1069  0.7824
15727TIP3   OH268595   6.515   4.490   1.162  0.1253 -0.0151  0.0265
15727TIP3    H168596   6.561   4.409   1.184  0.1611 -0.7136 -2.4104
15727TIP3    H268597   6.505   4.536   1.245  0.4836 -2.3265  1.3864
15728TIP3   OH268598   6.285   4.050  11.242  0.5423  0.0088 -0.4613
15728TIP3    H168599   6.234   4.086  11.314 -0.0999 -0.5178 -0.6534
15728TIP3    H268600   6.337   3.980  11.282  0.6799  0.1548 -0.3827
15729TIP3   OH268601   4.794   6.692  16.371  0.4042  0.4506 -0.2989
15729TIP3    H168602   4.807   6.663  16.281 -0.1430 -0.4808 -0.0870
15729TIP3    H268603   4.699   6.689  16.384  0.5477 -0.3766  0.6139
15730TIP3   OH268604   6.448   4.745   1.851  0.0003 -0.6105  0.1615
15730TIP3    H168605   6.533   4.767   1.889 -0.2179 -0.7182  0.7142
15730TIP3    H268606   6.386   4.758   1.922 -0.6399  0.9095 -0.6336
15731TIP3   OH268607   0.224   5.808  14.015  0.6629 -0.0342  0.0203
15731TIP3    H168608   0.250   5.741  14.078 -0.2623  0.1683  0.6287
15731TIP3    H268609   0.282   5.882  14.033 -0.2998  0.4030  1.3385
15732TIP3   OH268610   0.862   0.009  14.244 -0.2406  0.2326  0.0307
15732TIP3    H168611   0.770   0.024  14.222  0.2033  2.4283 -0.3533
15732TIP3    H268612   0.866   0.022  14.339 -0.3341  0.0723  0.0564
15733TIP3   OH268613   4.343   3.730  12.879 -0.1277  0.8023 -0.5804
15733TIP3    H168614   4.341   3.732  12.975  0.6747  0.3387 -0.5442
15733TIP3    H268615   4.291   3.805  12.852 -1.7597 -0.0337  0.2070
15734TIP3   OH268616   5.289   4.435  12.787  0.3390 -0.4271 -0.0260
15734TIP3    H168617   5.336   4.416  12.868  0.6078  1.1559  0.2199
15734TIP3    H268618   5.270   4.529  12.792 -2.3360 -0.9195 -0.3946
15735TIP3   OH268619   1.889   1.678   2.038  1.0731  0.0783 -0.0567
15735TIP3    H168620   1.940   1.724   2.104 -1.1693  0.7304  1.3006
15735TIP3    H268621   1.870   1.745   1.971  3.2594 -0.5566 -1.3380
15736TIP3   OH268622   1.416   5.786   3.786  0.4739 -0.4883 -0.3244
15736TIP3    H168623   1.352   5.804   3.855  0.6762  0.5111 -0.3766
15736TIP3    H268624   1.365   5.746   3.716  0.2611 -1.4837  0.3861
15737TIP3   OH268625   0.185   2.117   5.581 -0.2190 -0.1071  0.4135
15737TIP3    H168626   0.193   2.143   5.672 -0.9488  2.0555 -0.1269
15737TIP3    H268627   0.231   2.185   5.532  0.0727 -1.1831 -0.8577
15738TIP3   OH268628   2.137   0.150  15.311  0.1351  0.4109 -0.1141
15738TIP3    H168629   2.167   0.063  15.341 -0.7556  0.2168  0.2120
15738TIP3    H268630   2.205   0.178  15.250  0.3854 -0.5643 -0.2953
15739TIP3   OH268631   5.160   1.599  16.525  0.4076 -0.1792 -0.2216
15739TIP3    H168632   5.185   1.516  16.484  2.1928  0.2879 -0.0844
15739TIP3    H268633   5.194   1.667  16.468 -0.6995  0.4847 -0.1207
15740TIP3   OH268634   5.454   4.888   3.747 -0.1166 -0.1224  0.4939
15740TIP3    H168635   5.403   4.966   3.724 -0.0720 -0.7533 -1.8426
15740TIP3    H268636   5.543   4.921   3.758  0.3826 -0.1694 -2.9358
15741TIP3   OH268637   5.306   5.219  12.435 -0.2932 -0.1893 -0.7717
15741TIP3    H168638   5.225   5.270  12.438  0.6948  1.3428  0.7291
15741TIP3    H268639   5.277   5.128  12.437 -2.0218  0.3321 -1.4823
15742TIP3   OH268640   4.162   1.654   1.508 -0.0764  0.2313  0.2624
15742TIP3    H168641   4.212   1.592   1.561  1.8227  1.7513  0.2799
15742TIP3    H268642   4.195   1.642   1.419 -0.2121  0.7011  0.1459
15743TIP3   OH268643   3.704   4.196  11.226  0.2059  0.2548 -0.1386
15743TIP3    H168644   3.776   4.185  11.289 -1.9613 -0.3622  2.3536
15743TIP3    H268645   3.686   4.290  11.226  0.6400  0.3356 -0.3002
15744TIP3   OH268646   0.181   6.758  14.514 -0.4273  0.6697  0.4376
15744TIP3    H168647   0.101   6.788  14.471 -0.1120  0.5659 -0.2202
15744TIP3    H268648   0.166   6.665  14.531 -0.6789  0.7821  0.8480
15745TIP3   OH268649   2.825   5.876   3.534 -0.3819 -0.2142  0.6749
15745TIP3    H168650   2.762   5.808   3.510 -0.4615 -0.5034  1.7044
15745TIP3    H268651   2.796   5.908   3.619  1.6573 -1.3651  1.8595
15746TIP3   OH268652   3.890   5.534  16.312  0.1597 -0.0513  0.0734
15746TIP3    H168653   3.852   5.621  16.301 -1.1979 -0.5938  0.3406
15746TIP3    H268654   3.957   5.546  16.379  0.3111  0.8861 -0.2400
15747TIP3   OH268655   4.894   0.562   2.910  0.4057  0.4019  0.1646
15747TIP3    H168656   4.908   0.477   2.953 -1.0013 -0.1158 -0.3909
15747TIP3    H268657   4.813   0.595   2.949  0.8911  1.4563  0.2988
15748TIP3   OH268658   4.058   5.431   3.922  0.1114 -0.2421 -0.0525
15748TIP3    H168659   3.977   5.458   3.967  1.0705  2.0528  0.3873
15748TIP3    H268660   4.040   5.446   3.829 -0.3757 -0.8653 -0.0597
15749TIP3   OH268661   2.511   5.989   3.996 -0.6539  0.5654 -0.2868
15749TIP3    H168662   2.598   5.993   4.037 -0.5889 -2.9158  0.0229
15749TIP3    H268663   2.452   6.024   4.063  0.2949  1.3489  0.1557
15750TIP3   OH268664   4.112   0.887   4.056 -0.5918 -0.4810 -0.4909
15750TIP3    H168665   4.018   0.903   4.057 -0.2212  1.9669  1.0265
15750TIP3    H268666   4.145   0.945   3.986 -0.0901 -0.4488 -0.2318
15751TIP3   OH268667   4.873   5.998   1.141 -0.8227 -0.1772  0.4306
15751TIP3    H168668   4.786   6.011   1.179 -0.4666  1.7372  0.6681
15751TIP3    H268669   4.933   6.009   1.215 -0.1652  2.8464 -0.4944
15752TIP3   OH268670   1.508   6.578   0.864 -0.1812 -0.1103  0.2375
15752TIP3    H168671   1.494   6.503   0.922  1.2241 -0.4805  0.1257
15752TIP3    H268672   1.586   6.621   0.898 -0.9257  1.2449  0.2281
15753TIP3   OH268673   5.928   4.237  13.040 -0.3781  0.0550  0.0840
15753TIP3    H168674   6.006   4.235  13.097 -0.5883  1.5024  0.4390
15753TIP3    H268675   5.951   4.299  12.971 -0.6451 -0.6878 -0.6865
15754TIP3   OH268676   1.339   3.083  16.755  0.0794  0.3337 -0.1064
15754TIP3    H168677   1.405   3.057  16.690 -1.7951 -2.5904 -0.9450
15754TIP3    H268678   1.270   3.125  16.704 -0.1034  0.6137  0.3661
15755TIP3   OH268679   4.629   6.072  14.849  0.3889 -0.0131  0.2481
15755TIP3    H168680   4.536   6.054  14.832 -0.0303  0.7478  1.7219
15755TIP3    H268681   4.633   6.166  14.865  1.3041 -0.1760  0.9871
15756TIP3   OH268682   0.436   5.705  10.723  0.2727 -0.0839 -1.3554
15756TIP3    H168683   0.415   5.795  10.696  0.3710  0.5968  0.7234
15756TIP3    H268684   0.522   5.688  10.683 -0.8955 -0.2428 -3.9151
15757TIP3   OH268685   2.661   1.454  16.216  0.1737  0.2942  0.2602
15757TIP3    H168686   2.756   1.447  16.207  0.1968 -1.2653  1.4555
15757TIP3    H268687   2.631   1.490  16.133  1.4074 -3.2023 -1.8190
15758TIP3   OH268688   5.775   5.954   2.638 -0.1960 -0.3885 -0.1081
15758TIP3    H168689   5.758   5.884   2.575 -0.3536 -0.4176 -0.0311
15758TIP3    H268690   5.703   5.949   2.700  0.8528 -1.4669  1.0667
15759TIP3   OH268691   0.561   4.734   5.644 -0.0933  0.1308 -0.1848
15759TIP3    H168692   0.483   4.783   5.668 -0.3972  0.3982 -1.7078
15759TIP3    H268693   0.632   4.799   5.649  0.0645 -0.1238  1.2426
15760TIP3   OH268694   2.459   0.756  16.741 -0.0888  0.4373  0.4009
15760TIP3    H168695   2.496   0.844  16.736  0.9991 -0.0009  0.6192
15760TIP3    H268696   2.480   0.726  16.830 -0.7026  0.0675  0.4275
15761TIP3   OH268697   0.386   5.557  12.238  0.1937 -0.3068  1.1420
15761TIP3    H168698   0.316   5.612  12.202  1.5067  0.0974 -0.9109
15761TIP3    H268699   0.340   5.481  12.275 -1.3905  0.4139  0.7181
15762TIP3   OH268700   1.299   3.275  15.350 -0.8052  0.5414  0.3151
15762TIP3    H168701   1.255   3.277  15.435 -0.8628  0.2229  0.2952
15762TIP3    H268702   1.281   3.188  15.316  1.2433 -0.2066  1.0410
15763TIP3   OH268703   0.739   5.278   4.331 -1.0079 -0.4381  0.0400
15763TIP3    H168704   0.802   5.315   4.393 -0.1580 -0.4752 -0.7802
15763TIP3    H268705   0.658   5.326   4.347 -0.4373  0.4618  0.2907
15764TIP3   OH268706   0.831   5.712  17.087  0.1273 -0.3764 -0.0648
15764TIP3    H168707   0.891   5.752  17.026 -1.4432  0.4187 -1.1181
15764TIP3    H268708   0.837   5.765  17.166  0.8177 -0.3325 -0.1430
15765TIP3   OH268709   2.966   0.012   4.502  0.1216 -0.1587  0.2205
15765TIP3    H168710   3.047  -0.030   4.474  0.4502  0.1044  0.7636
15765TIP3    H268711   2.990   0.060   4.581 -0.0297  1.8688 -0.9337
15766TIP3   OH268712   4.420   3.174  15.339  0.2309  0.1439 -0.7087
15766TIP3    H168713   4.386   3.251  15.295  1.2969  1.8116  1.2978
15766TIP3    H268714   4.467   3.125  15.271 -1.2782  0.7251 -2.2024
15767TIP3   OH268715   1.148   0.445  16.317 -0.2545 -0.2954  0.2695
15767TIP3    H168716   1.186   0.530  16.296  0.0287 -1.0148 -2.2586
15767TIP3    H268717   1.220   0.395  16.357  0.0802  0.0132  0.0511
15768TIP3   OH268718   2.876   4.162  13.087  0.2869 -0.1452 -0.4052
15768TIP3    H168719   2.936   4.092  13.063 -0.8569 -1.3547  0.1898
15768TIP3    H268720   2.828   4.128  13.163 -0.4655  1.1780 -0.2617
15769TIP3   OH268721   0.902   5.598   2.000  0.4667  0.5953 -0.3059
15769TIP3    H168722   0.812   5.591   1.967  0.5271  0.1681 -0.3782
15769TIP3    H268723   0.932   5.684   1.968  0.2389  0.5454 -0.6600
15770TIP3   OH268724   6.055   4.572  11.206  0.4718 -0.1652 -0.1721
15770TIP3    H168725   6.131   4.629  11.210  0.4426 -0.3047  4.0379
15770TIP3    H268726   5.985   4.622  11.247 -0.3512 -2.0508  0.7667
15771TIP3   OH268727   4.602   3.947   3.301 -0.1508  0.4958  0.1977
15771TIP3    H168728   4.609   3.878   3.235  1.5235  1.4581 -0.6535
15771TIP3    H268729   4.690   3.954   3.338 -0.8126  0.7405  1.7651
15772TIP3   OH268730   1.971   1.708  12.688  0.2448  0.0996  0.0746
15772TIP3    H168731   1.974   1.770  12.761  0.6263 -1.4451  1.3846
15772TIP3    H268732   1.915   1.751  12.623 -0.6635  1.1828  1.5405
15773TIP3   OH268733   0.315   3.328  11.717 -0.4145  0.2269  0.7413
15773TIP3    H168734   0.330   3.309  11.624 -0.2839  1.4956  0.4914
15773TIP3    H268735   0.383   3.278  11.763 -0.3252 -0.2121  0.1341
15774TIP3   OH268736   4.764   1.868   3.720  0.4063  0.2815 -0.0052
15774TIP3    H168737   4.774   1.949   3.770  0.6076 -1.0012  2.0772
15774TIP3    H268738   4.679   1.878   3.677  0.6178  1.7740 -0.1081
15775TIP3   OH268739   0.277   3.323  14.813 -0.0384 -0.0827  0.5240
15775TIP3    H168740   0.350   3.386  14.813 -0.9253  0.9697 -0.6835
15775TIP3    H268741   0.201   3.375  14.789 -1.1314 -1.2696  1.3630
15776TIP3   OH268742   2.875   0.381   5.051  0.2045  0.0099  0.1303
15776TIP3    H168743   2.839   0.448   5.109 -0.1168 -0.3001  0.2911
15776TIP3    H268744   2.800   0.352   4.998 -0.4831 -2.7334  2.4632
15777TIP3   OH268745   6.641   3.313  13.278 -0.6819 -0.4078 -0.1162
15777TIP3    H168746   6.672   3.356  13.198  1.5199 -2.5055 -0.4316
15777TIP3    H268747   6.697   3.347  13.347  0.4311 -2.0280 -0.2121
15778TIP3   OH268748   1.762   4.299   5.489 -0.0061 -0.2718  0.3859
15778TIP3    H168749   1.855   4.294   5.466  0.0266 -0.2160  0.5034
15778TIP3    H268750   1.726   4.214   5.464  0.2562 -0.6020  1.1241
15779TIP3   OH268751   2.112   4.458   2.184 -0.8703  0.2543  0.2748
15779TIP3    H168752   2.030   4.506   2.196  0.5179  3.0165 -0.8085
15779TIP3    H268753   2.149   4.493   2.103  2.6503  1.0483  2.0926
15780TIP3   OH268754   6.068   3.355   5.408  0.2821  0.3282 -0.2496
15780TIP3    H168755   6.002   3.321   5.348 -0.3892  0.2899  0.4943
15780TIP3    H268756   6.135   3.286   5.412 -0.7415 -0.6253  0.7309
15781TIP3   OH268757   4.275   2.995  12.778 -0.3914  0.0525  0.2129
15781TIP3    H168758   4.332   2.959  12.710 -1.1291  0.4581 -0.6244
15781TIP3    H268759   4.248   2.919  12.829  1.3869 -0.0717  0.9982
15782TIP3   OH268760   4.749   0.959   0.527 -0.1834 -0.3211  0.1719
15782TIP3    H168761   4.786   1.008   0.454 -1.2288  0.1991 -0.0083
15782TIP3    H268762   4.687   1.019   0.568  0.9568 -0.3223  1.9725
15783TIP3   OH268763   4.696   0.967   1.013 -0.3444 -0.9754  0.4687
15783TIP3    H168764   4.731   0.886   0.976 -0.4703 -0.5829 -0.5360
15783TIP3    H268765   4.722   0.964   1.105 -1.1147 -2.5731  0.6535
15784TIP3   OH268766   1.819   6.152  13.955  0.1769  0.1197  0.4715
15784TIP3    H168767   1.797   6.155  14.048 -1.9965  1.7032 -0.0643
15784TIP3    H268768   1.768   6.079  13.921  0.8033 -0.3201  0.4704
15785TIP3   OH268769   0.645   5.280  10.741 -0.7059  0.4281  0.6132
15785TIP3    H168770   0.686   5.312  10.660 -1.9813 -0.7509 -0.5159
15785TIP3    H268771   0.640   5.358  10.797  1.6206  0.9301  0.1821
15786TIP3   OH268772   1.598   3.015  12.440  0.0696 -0.0381 -0.3258
15786TIP3    H168773   1.514   2.969  12.437 -0.0682  0.0839  1.1380
15786TIP3    H268774   1.598   3.058  12.526  0.5001  2.1228 -1.3709
15787TIP3   OH268775   3.592   4.967   5.570 -0.3801  0.4649  0.0633
15787TIP3    H168776   3.532   5.038   5.549 -0.0499  0.8025  0.2523
15787TIP3    H268777   3.644   4.955   5.490 -1.5215 -0.6614 -0.5249
15788TIP3   OH268778   4.292   6.261  13.513 -0.1340  0.5081  0.1169
15788TIP3    H168779   4.334   6.336  13.471  0.3946  0.6262  0.8551
15788TIP3    H268780   4.223   6.235  13.452  0.6117  0.6881 -0.8262
15789TIP3   OH268781   6.646   3.733   0.983  0.0108 -0.7334  0.0392
15789TIP3    H168782   6.653   3.679   0.905 -2.4112 -0.9166 -0.1020
15789TIP3    H268783   6.603   3.813   0.954  0.6335 -0.0804  0.8691
15790TIP3   OH268784   5.221   2.605   2.045  0.4313  0.3060 -0.3152
15790TIP3    H168785   5.308   2.633   2.016  1.3383 -1.0207  1.0166
15790TIP3    H268786   5.222   2.616   2.140  0.2762 -2.6046  0.0803
15791TIP3   OH268787   3.968   6.675   3.050 -0.1944  0.3158 -0.2080
15791TIP3    H168788   3.924   6.739   3.107 -1.1031  1.4306 -2.1071
15791TIP3    H268789   3.899   6.645   2.991  1.1253  0.5657 -1.9154
15792TIP3   OH268790   6.197   4.316   4.424  0.8529 -0.2920  0.4841
15792TIP3    H168791   6.202   4.288   4.515  0.7306 -0.9425  0.2918
15792TIP3    H268792   6.287   4.335   4.399  1.0571 -1.4567  0.3197
15793TIP3   OH268793   1.913   5.809  16.592 -0.0818 -0.1973  0.1533
15793TIP3    H168794   1.991   5.764  16.625 -0.6973 -1.2451  0.1950
15793TIP3    H268795   1.892   5.874  16.660 -0.0891 -0.8940  0.8267
15794TIP3   OH268796   0.541   0.270  14.296  0.3457  0.0831  0.3665
15794TIP3    H168797   0.467   0.282  14.355 -0.1146  1.3754 -0.4586
15794TIP3    H268798   0.584   0.356  14.293  0.1467  0.1563 -1.4361
15795TIP3   OH268799   1.897   1.450   1.878 -0.3723 -0.2541 -0.2899
15795TIP3    H168800   1.900   1.506   1.955 -0.7837  1.9579 -1.8458
15795TIP3    H268801   1.804   1.444   1.855 -0.0364  1.4700 -2.2669
15796TIP3   OH268802   3.916   4.458   0.762 -0.3388 -0.8874 -0.1487
15796TIP3    H168803   3.837   4.501   0.796  0.2381 -0.9087  1.2512
15796TIP3    H268804   3.978   4.461   0.835  0.8697 -1.0949 -1.1578
15797TIP3   OH268805   6.160   3.474  16.413 -0.4481  0.0236  0.4936
15797TIP3    H168806   6.128   3.462  16.324  2.0258 -0.1204 -0.4150
15797TIP3    H268807   6.165   3.569  16.424 -2.0175  0.0639  0.9713
15798TIP3   OH268808   2.324   6.541   4.908 -0.1083  0.0964 -0.2347
15798TIP3    H168809   2.397   6.588   4.867  0.3385  0.1905  0.6598
15798TIP3    H268810   2.355   6.451   4.916  0.9613  0.6822  2.5931
15799TIP3   OH268811   4.693   3.303  16.229 -0.3286 -0.5879  0.4729
15799TIP3    H168812   4.635   3.298  16.153  0.7225 -0.5775 -0.3301
15799TIP3    H268813   4.675   3.222  16.278 -0.6653 -0.8177 -0.0212
15800TIP3   OH268814   0.712   1.257  10.636 -0.4295 -0.1614 -0.4131
15800TIP3    H168815   0.792   1.308  10.641 -0.4652 -0.1492  0.0712
15800TIP3    H268816   0.719   1.194  10.707 -0.5126 -0.6492 -0.8354
15801TIP3   OH268817   6.459   5.552   6.134  0.5280 -0.1957  0.0424
15801TIP3    H168818   6.466   5.532   6.040  1.7185  0.7245 -0.0887
15801TIP3    H268819   6.389   5.618   6.139 -0.0666 -0.8159 -0.1044
15802TIP3   OH268820   4.517   2.409   4.096  0.5717 -0.6687  0.0306
15802TIP3    H168821   4.523   2.408   4.192  1.2865 -1.6425 -0.0125
15802TIP3    H268822   4.512   2.317   4.072  0.6569 -0.4354 -0.8905
15803TIP3   OH268823   6.699   4.315  11.074  0.5771 -0.1413  0.3467
15803TIP3    H168824   6.610   4.314  11.109  0.1930 -1.5230 -0.6371
15803TIP3    H268825   6.715   4.224  11.049  2.0146  0.2398 -0.1218
15804TIP3   OH268826   3.717   2.150   4.132 -0.4490  0.1725 -0.6727
15804TIP3    H168827   3.753   2.231   4.096  1.4592 -0.2268  0.3206
15804TIP3    H268828   3.792   2.091   4.141 -1.4590 -0.9423  0.6867
15805TIP3   OH268829   1.394   0.276   1.999 -0.6463  0.0587  0.4575
15805TIP3    H168830   1.304   0.291   2.029 -0.6006  1.7871 -0.2015
15805TIP3    H268831   1.434   0.363   1.998  0.4603 -0.4438 -1.0864
15806TIP3   OH268832   2.664   0.154  14.021  1.1245  0.5301 -0.1697
15806TIP3    H168833   2.666   0.061  14.043  1.5478  0.7678  0.8533
15806TIP3    H268834   2.582   0.187  14.059  1.2012  0.6679 -0.1217
15807TIP3   OH268835   5.188   2.405   0.296 -0.7477  0.6994  0.0469
15807TIP3    H168836   5.156   2.370   0.379  0.0716 -3.1817 -1.1704
15807TIP3    H268837   5.125   2.373   0.231 -0.5204  2.3896 -1.0304
15808TIP3   OH268838   2.673   5.566   2.613 -0.2219 -0.0420 -0.0367
15808TIP3    H168839   2.640   5.655   2.620  0.7901  0.4041 -0.8421
15808TIP3    H268840   2.724   5.552   2.693  0.0434  0.2787 -0.1508
15809TIP3   OH268841   3.361   1.798   1.120 -0.1560 -0.2445  0.1077
15809TIP3    H168842   3.308   1.724   1.092  1.2021 -1.5993  1.0779
15809TIP3    H268843   3.401   1.831   1.040  0.8806 -1.8527 -0.0415
15810TIP3   OH268844   4.988   4.386   2.419  0.2434 -0.6410  0.2187
15810TIP3    H168845   5.007   4.445   2.346 -0.5942 -1.3136 -0.5614
15810TIP3    H268846   4.980   4.443   2.495 -0.2975  0.2333 -0.4857
15811TIP3   OH268847   6.555   6.755   5.236  0.4064  0.0139  0.4641
15811TIP3    H168848   6.527   6.664   5.236  2.6918 -0.7316  0.2185
15811TIP3    H268849   6.474   6.806   5.229 -0.9764 -1.9588  1.7458
15812TIP3   OH268850   2.923   3.629  12.736  0.5589  0.2755  0.7143
15812TIP3    H168851   3.001   3.602  12.784  0.1909 -0.5009  0.8938
15812TIP3    H268852   2.870   3.549  12.729  0.3062  0.5224 -0.4015
15813TIP3   OH268853   5.607   5.315   0.126  0.5275 -0.0126 -0.1243
15813TIP3    H168854   5.529   5.296   0.179  1.5527 -3.8099  0.2191
15813TIP3    H268855   5.607   5.410   0.116 -2.4414  0.3531  2.4567
15814TIP3   OH268856   0.609   1.930   0.466 -0.0153 -0.0841 -0.3772
15814TIP3    H168857   0.584   1.917   0.375  0.1910 -0.7818 -0.3331
15814TIP3    H268858   0.526   1.940   0.512 -0.1721 -1.1290 -0.4272
15815TIP3   OH268859   2.106   0.829   0.289  0.2933  0.1999  0.1912
15815TIP3    H168860   2.047   0.809   0.216 -3.6055  1.1807  2.9163
15815TIP3    H268861   2.118   0.744   0.333  1.1787 -0.0511 -0.5192
15816TIP3   OH268862   2.968   3.141  11.659  0.0097  0.1875 -0.1424
15816TIP3    H168863   2.932   3.080  11.723 -2.2409 -0.0846 -1.6175
15816TIP3    H268864   3.012   3.208  11.712 -1.8750  0.0177  1.6906
15817TIP3   OH268865   5.348   3.576   0.603  0.4503  0.5162 -0.2412
15817TIP3    H168866   5.405   3.500   0.597 -1.8932 -1.3886  1.0168
15817TIP3    H268867   5.399   3.641   0.651  1.3056 -1.4180  1.5170
15818TIP3   OH268868   3.086   1.954   4.408 -0.0289 -0.4249 -0.0189
15818TIP3    H168869   3.147   1.884   4.432 -0.4205 -0.2859  1.4674
15818TIP3    H268870   3.010   1.939   4.465  1.1934  3.1395  2.7556
15819TIP3   OH268871   3.813   0.757  14.246 -0.1602 -0.8108 -0.1564
15819TIP3    H168872   3.847   0.766  14.335 -0.1985 -2.2174  0.0121
15819TIP3    H268873   3.890   0.753  14.191 -0.1493  0.8921 -0.2800
15820TIP3   OH268874   4.036   5.993   5.603 -0.3092  0.3304  0.6606
15820TIP3    H168875   3.946   5.962   5.606 -0.4317  0.6505  0.3461
15820TIP3    H268876   4.035   6.074   5.654 -0.3867  0.7970 -0.0792
15821TIP3   OH268877   1.170   2.056   4.491 -0.0082 -0.1386  0.1913
15821TIP3    H168878   1.142   1.965   4.504 -0.8372  0.2280  1.0169
15821TIP3    H268879   1.090   2.102   4.467  0.8154 -0.0615 -2.6297
15822TIP3   OH268880   1.541   4.733  13.664  0.4822 -0.2512  0.3316
15822TIP3    H168881   1.592   4.734  13.583  1.7462 -1.5954  1.0815
15822TIP3    H268882   1.576   4.658  13.713  1.4700  2.0326  3.2201
15823TIP3   OH268883   2.851   3.832  15.666  0.5203 -0.2473 -0.1931
15823TIP3    H168884   2.776   3.851  15.609  0.9906  0.3164 -0.6351
15823TIP3    H268885   2.877   3.743  15.643  0.1023 -0.3695 -0.1821
15824TIP3   OH268886   4.810   2.697  10.823  0.1828 -0.1280 -0.3901
15824TIP3    H168887   4.835   2.612  10.860  1.5104  0.5679  0.3382
15824TIP3    H268888   4.833   2.691  10.730 -1.5614 -1.2536 -0.7894
15825TIP3   OH268889   5.511   6.168  16.388  0.1701 -0.2958 -0.7925
15825TIP3    H168890   5.581   6.182  16.324  0.6138 -0.2008 -0.2880
15825TIP3    H268891   5.485   6.256  16.415  1.5769 -0.3693  0.8715
15826TIP3   OH268892   5.318   1.390  14.983  0.3615 -0.6464 -0.5279
15826TIP3    H168893   5.265   1.315  15.010  0.7359 -0.9239 -0.5654
15826TIP3    H268894   5.254   1.453  14.949 -0.0895 -0.4246  0.6914
15827TIP3   OH268895   4.992   2.696   5.825 -0.2365  0.5726 -0.1999
15827TIP3    H168896   5.077   2.721   5.863 -0.0612  0.9913 -0.8651
15827TIP3    H268897   4.993   2.733   5.737 -1.1360  0.6207 -0.1943
15828TIP3   OH268898   4.784   5.902  12.775 -0.2043  0.2115 -0.3469
15828TIP3    H168899   4.815   5.812  12.786  0.1679  0.1796 -1.5888
15828TIP3    H268900   4.757   5.929  12.863  2.3700 -0.1266  0.5948
15829TIP3   OH268901   3.870   3.160  16.926 -0.2012 -0.1338 -0.5218
15829TIP3    H168902   3.881   3.186  16.834  1.6487  1.6662  0.1854
15829TIP3    H268903   3.931   3.088  16.938 -2.7384 -2.5420 -1.5115
15830TIP3   OH268904   2.892   0.468  15.313 -0.3684  0.3273  0.5225
15830TIP3    H168905   2.905   0.395  15.374 -2.6145  0.9763  1.8506
15830TIP3    H268906   2.946   0.539  15.349  2.6824 -0.9510 -1.3767
15831TIP3   OH268907   0.273   3.416   3.907  0.1580 -0.1374  0.6291
15831TIP3    H168908   0.348   3.436   3.962 -0.2251 -0.8479  1.4177
15831TIP3    H268909   0.202   3.394   3.968 -0.4229 -0.3923 -0.1185
15832TIP3   OH268910   2.515   6.673   2.250 -0.6226 -0.4771 -0.3535
15832TIP3    H168911   2.429   6.714   2.246 -0.2424  0.5140  1.4714
15832TIP3    H268912   2.568   6.724   2.188 -1.1176 -0.5778 -0.8690
15833TIP3   OH268913   3.555   1.425  11.900  0.0949 -0.1588 -0.3073
15833TIP3    H168914   3.477   1.397  11.852  0.5176 -1.2252 -0.3816
15833TIP3    H268915   3.538   1.516  11.922 -1.3051 -0.4643 -0.0788
15834TIP3   OH268916   2.030   1.504  14.252 -0.4592 -0.3596  0.6675
15834TIP3    H168917   1.947   1.543  14.280  0.5012  1.1962  1.4020
15834TIP3    H268918   2.070   1.472  14.332  0.2619  0.0819  0.4856
15835TIP3   OH268919   0.750   5.455   2.687 -0.5074  0.1268 -1.0176
15835TIP3    H168920   0.767   5.383   2.627  2.9486 -0.6015  0.6744
15835TIP3    H268921   0.798   5.431   2.767 -1.6186  2.9548  0.5769
15836TIP3   OH268922   2.111   6.592  13.355  0.2502 -0.2491  0.3191
15836TIP3    H168923   2.069   6.620  13.273  0.1984  0.5232  0.6029
15836TIP3    H268924   2.088   6.500  13.363  0.4705 -0.3935 -0.6732
15837TIP3   OH268925   4.956   6.061   5.776 -0.1172 -0.0181 -0.6704
15837TIP3    H168926   4.922   5.971   5.782 -0.1964  0.1412  2.4803
15837TIP3    H268927   4.987   6.080   5.865  0.7896  2.7487 -1.5322
15838TIP3   OH268928   2.599   2.282  12.635 -0.4860 -0.2461 -0.0609
15838TIP3    H168929   2.521   2.237  12.669 -0.0252 -0.9836  0.0430
15838TIP3    H268930   2.599   2.262  12.542 -0.8227  0.3668 -0.1938
15839TIP3   OH268931   3.868   2.681  13.789 -0.1311 -0.1944 -0.0011
15839TIP3    H168932   3.884   2.611  13.725  0.2722  0.6437 -0.8313
15839TIP3    H268933   3.804   2.738  13.747 -1.0712 -0.4904  1.0030
15840TIP3   OH268934   0.910   2.949   3.561  0.4703 -0.3867 -0.1653
15840TIP3    H168935   0.870   3.009   3.498 -0.8326 -1.0593  0.0119
15840TIP3    H268936   0.859   2.869   3.554  0.0787 -0.3646  2.0185
15841TIP3   OH268937   6.597   5.171  17.019 -0.0299  0.3042  0.0089
15841TIP3    H168938   6.556   5.218  16.946 -0.0866 -0.9531 -0.7693
15841TIP3    H268939   6.653   5.237  17.061  1.3690  0.5624 -2.2168
15842TIP3   OH268940   4.023   3.974  13.290 -0.0376 -0.1849 -0.4463
15842TIP3    H168941   4.043   4.052  13.238  1.1031 -1.1557 -1.5085
15842TIP3    H268942   4.094   3.913  13.269 -0.0690 -0.9287  1.5643
15843TIP3   OH268943   4.150   6.635  15.532 -0.0399 -0.4732 -0.2688
15843TIP3    H168944   4.106   6.702  15.480  2.0403  0.7342 -0.5082
15843TIP3    H268945   4.202   6.585  15.469  2.4683  0.9747  0.5868
15844TIP3   OH268946   1.418   3.348  16.796 -0.1146 -0.1334 -0.3556
15844TIP3    H168947   1.505   3.350  16.756 -0.2200  1.6325 -0.5196
15844TIP3    H268948   1.403   3.256  16.817  1.4410 -0.5612 -1.1042
15845TIP3   OH268949   0.932   6.313  11.639 -0.8794  0.1943 -0.1299
15845TIP3    H168950   0.849   6.305  11.592 -0.5238  0.6431 -0.8290
15845TIP3    H268951   0.958   6.404  11.627 -0.4826  0.1580  0.4356
15846TIP3   OH268952   3.664   6.415   0.649 -0.4017  0.3509  0.0789
15846TIP3    H168953   3.753   6.422   0.683  0.4457  0.7013 -2.1065
15846TIP3    H268954   3.651   6.495   0.598 -1.7050 -0.0127 -0.1935
15847TIP3   OH268955   5.711   5.599  17.031  0.0756  0.9234  0.3765
15847TIP3    H168956   5.746   5.641  17.109 -1.1013  0.7176  1.0160
15847TIP3    H268957   5.740   5.655  16.959  2.1572  0.4925  0.8222
15848TIP3   OH268958   0.914   5.886   5.037 -0.0976 -0.2599 -0.8006
15848TIP3    H168959   0.925   5.839   4.955 -0.5064  0.0644 -1.0456
15848TIP3    H268960   0.820   5.878   5.056  0.0406 -0.5621 -0.2290
15849TIP3   OH268961   0.750   2.082   1.528 -0.2147  0.2211  0.6837
15849TIP3    H168962   0.754   2.059   1.621  2.6482 -0.7867  0.3830
15849TIP3    H268963   0.805   2.161   1.520 -1.6103  1.1492  0.0616
15850TIP3   OH268964   0.403   4.227   2.495 -0.3181 -0.4066  0.5025
15850TIP3    H168965   0.404   4.279   2.575  2.1725 -0.9862  0.8602
15850TIP3    H268966   0.448   4.282   2.430  2.3782 -2.0994  0.9003
15851TIP3   OH268967   3.862   3.082   5.071 -0.3444  0.0609 -0.2508
15851TIP3    H168968   3.781   3.113   5.031 -1.0351 -2.0530 -0.5977
15851TIP3    H268969   3.877   2.996   5.031  0.2054 -1.1002  2.2933
15852TIP3   OH268970   4.372   2.032  15.555  0.1526 -0.4724 -0.8107
15852TIP3    H168971   4.394   1.946  15.591  0.5152 -1.3385 -3.0226
15852TIP3    H268972   4.453   2.082  15.560  0.5559 -1.0342 -1.6490
15853TIP3   OH268973   0.954   5.145  12.163  0.1069 -0.1074 -0.1396
15853TIP3    H168974   0.945   5.238  12.142  2.3695  0.5667  1.7344
15853TIP3    H268975   0.872   5.123  12.207 -0.3989  1.0169 -0.4935
15854TIP3   OH268976   2.178   3.532   4.437  0.2828  0.2590 -0.2302
15854TIP3    H168977   2.089   3.565   4.453  0.2386  0.3064 -0.5717
15854TIP3    H268978   2.235   3.604   4.464  0.1361  1.2512 -2.5224
15855TIP3   OH268979   5.786   3.345  10.262  0.7491 -0.2738  0.1218
15855TIP3    H168980   5.861   3.293  10.291  0.8921 -1.0282 -1.5040
15855TIP3    H268981   5.738   3.286  10.204  0.2939  1.0411 -0.8547
15856TIP3   OH268982   6.031   4.156   5.808  0.3034 -0.2892  0.4284
15856TIP3    H168983   6.047   4.241   5.766 -3.1818 -0.2279 -0.9417
15856TIP3    H268984   5.967   4.174   5.876 -0.3256 -1.7896  0.2500
15857TIP3   OH268985   4.845   6.036  14.639 -0.3555  0.2167 -0.4949
15857TIP3    H168986   4.778   6.027  14.706  1.6052 -2.0047  1.2331
15857TIP3    H268987   4.920   6.074  14.685  0.6725 -0.3893 -1.6565
15858TIP3   OH268988   5.314   4.205   5.630 -0.0048 -0.1231 -0.6301
15858TIP3    H168989   5.260   4.271   5.587 -1.3229  1.0902  2.7406
15858TIP3    H268990   5.398   4.210   5.584 -0.2056  3.6680 -0.7882
15859TIP3   OH268991   4.133   0.187   1.084  0.2615 -0.0570 -0.0543
15859TIP3    H168992   4.078   0.198   1.007  1.4647 -0.1599 -0.9324
15859TIP3    H268993   4.103   0.104   1.122  2.2984 -2.0503 -2.6275
15860TIP3   OH268994   3.726   5.397   4.843  0.0962 -0.0050 -0.6710
15860TIP3    H168995   3.664   5.425   4.910 -0.3249 -0.2717 -0.9468
15860TIP3    H268996   3.674   5.344   4.783  0.4581  0.2755 -1.2357
15861TIP3   OH268997   0.839   3.552  13.498 -0.3444 -0.6007  0.3020
15861TIP3    H168998   0.876   3.625  13.549 -2.7944  0.6344  0.3975
15861TIP3    H268999   0.879   3.561  13.412 -0.7324  0.9893  0.2605
15862TIP3   OH269000   3.298   5.094  12.989  0.1316 -0.1888 -0.6709
15862TIP3    H169001   3.303   5.189  12.999  0.4737 -0.3197  0.4429
15862TIP3    H269002   3.292   5.060  13.078  1.0988 -1.2736 -1.0001
15863TIP3   OH269003   5.767   2.827   0.980  0.3084  0.2881 -0.2952
15863TIP3    H169004   5.771   2.794   0.890 -1.2059  1.2412 -0.7191
15863TIP3    H269005   5.703   2.898   0.978  0.2915  0.3656  1.5244
15864TIP3   OH269006   5.880   4.806  11.239 -0.6044 -0.1896 -0.3135
15864TIP3    H169007   5.850   4.893  11.264  0.6712 -0.5042  2.4060
15864TIP3    H269008   5.918   4.818  11.152 -0.9868  1.8499 -0.2142
15865TIP3   OH269009   3.865   6.531   4.678  0.3444 -0.3665  0.2416
15865TIP3    H169010   3.840   6.523   4.586 -2.6254  0.1103  0.9821
15865TIP3    H269011   3.946   6.480   4.685  0.6684 -0.3148 -2.6403
15866TIP3   OH269012   6.484   0.235  14.718 -0.0684  0.4431 -0.0798
15866TIP3    H169013   6.530   0.171  14.664  0.1526  2.0254 -1.8260
15866TIP3    H269014   6.449   0.298  14.655 -3.0552  0.3000  1.3562
15867TIP3   OH269015   0.367   5.141   4.127 -0.7948 -0.1435  0.2431
15867TIP3    H169016   0.428   5.080   4.169 -1.0946 -0.3690  0.3507
15867TIP3    H269017   0.314   5.176   4.198 -0.9469 -0.1237  0.1200
15868TIP3   OH269018   2.858   0.300   0.064  0.3467 -0.2802  0.9249
15868TIP3    H169019   2.868   0.246  -0.014  1.4891 -0.8327  1.4527
15868TIP3    H269020   2.790   0.255   0.115 -0.6771  0.2882  0.0936
15869TIP3   OH269021   6.302   3.267  16.220 -0.1236  0.1115  0.9703
15869TIP3    H169022   6.278   3.324  16.293 -1.7209 -0.3933  0.8781
15869TIP3    H269023   6.252   3.186  16.236  0.0746 -0.2716 -0.2842
15870TIP3   OH269024   1.049   0.891   5.284 -0.2319 -0.5415 -0.0740
15870TIP3    H169025   1.110   0.826   5.248  0.4578 -0.0837  0.2475
15870TIP3    H269026   0.983   0.903   5.216  1.4453  0.8338 -1.5159
15871TIP3   OH269027   3.561   2.841   5.813  0.4359  0.3388  0.1519
15871TIP3    H169028   3.589   2.853   5.904  2.0729  1.5172 -0.4939
15871TIP3    H269029   3.466   2.835   5.818  0.5870 -0.8674  2.0774
15872TIP3   OH269030   0.777   2.717   3.534  0.0296  0.2597 -0.0527
15872TIP3    H169031   0.688   2.704   3.501  1.2503 -1.2689 -2.9609
15872TIP3    H269032   0.792   2.643   3.593 -0.6974  0.6719  0.6643
15873TIP3   OH269033   6.374   2.763   1.842  0.1371  0.4587 -0.3967
15873TIP3    H169034   6.393   2.818   1.918  1.1680  0.1704 -0.4411
15873TIP3    H269035   6.385   2.822   1.767  0.0752  0.4895 -0.3824
15874TIP3   OH269036   0.822   3.583  15.856 -0.2319  0.3353  0.1180
15874TIP3    H169037   0.911   3.608  15.832  1.6762 -3.6718  2.4903
15874TIP3    H269038   0.815   3.605  15.949 -1.9048  1.0185 -0.1516
15875TIP3   OH269039   3.651   2.306   4.834  0.3598  0.7456 -0.4767
15875TIP3    H169040   3.590   2.378   4.851 -0.7116 -0.8502  2.6812
15875TIP3    H269041   3.736   2.349   4.823 -0.4510  2.5677  0.1417
15876TIP3   OH269042   3.360   1.089   4.147 -0.0115  0.4872 -0.4722
15876TIP3    H169043   3.311   1.135   4.079 -2.1575 -0.2256  0.5501
15876TIP3    H269044   3.343   1.138   4.227 -1.1899 -1.2524  0.3729
15877TIP3   OH269045   4.271   5.574   0.135 -0.1480 -0.1014  0.2562
15877TIP3    H169046   4.178   5.596   0.135  0.0805  0.8899 -1.0919
15877TIP3    H269047   4.309   5.631   0.202 -0.5169 -0.5681  0.8682
15878TIP3   OH269048   1.332   0.814  12.060 -0.1184 -0.8841 -0.4924
15878TIP3    H169049   1.316   0.732  12.107 -0.4079 -0.0147  0.9762
15878TIP3    H269050   1.283   0.806  11.979  0.4554 -2.4608 -0.6986
15879TIP3   OH269051   1.506   5.841   1.794 -0.1947 -0.2341  0.0831
15879TIP3    H169052   1.446   5.810   1.862  0.4799 -1.3176  0.2020
15879TIP3    H269053   1.555   5.763   1.768  1.5386  0.7265  0.3799
15880TIP3   OH269054   3.839   4.161   3.123  0.4187 -0.3264 -0.2038
15880TIP3    H169055   3.901   4.163   3.196 -1.5276 -0.5847  1.4828
15880TIP3    H269056   3.754   4.178   3.163 -0.5977  0.1588 -2.5122
15881TIP3   OH269057   5.567   3.368  11.468  0.5810  0.3434 -0.0353
15881TIP3    H169058   5.584   3.281  11.504 -0.2372  0.3171  0.3061
15881TIP3    H269059   5.608   3.428  11.530  1.1087  0.2077 -0.2493
15882TIP3   OH269060   1.492   0.794  16.651  0.1386  0.2768 -0.0328
15882TIP3    H169061   1.487   0.783  16.746  0.7104  1.3805  0.1398
15882TIP3    H269062   1.560   0.861  16.638 -1.5759  1.8881 -1.0820
15883TIP3   OH269063   4.142   3.124   6.329 -0.6103 -0.0662  0.1943
15883TIP3    H169064   4.080   3.089   6.393 -2.5101  2.4118 -0.2052
15883TIP3    H269065   4.112   3.090   6.245 -0.9862  0.4991  0.0941
15884TIP3   OH269066   5.695   2.545  15.732  0.1925  0.7922  0.0208
15884TIP3    H169067   5.753   2.586  15.669 -0.2645  1.3766 -0.0154
15884TIP3    H269068   5.608   2.551  15.693  0.0959 -0.0418  0.0952
15885TIP3   OH269069   0.112   6.627   0.514 -0.4827 -0.3764 -0.1744
15885TIP3    H169070   0.168   6.656   0.441  1.7203 -1.2853  1.0982
15885TIP3    H269071   0.070   6.707   0.546 -1.5631  0.0204 -2.4858
15886TIP3   OH269072   2.743   0.268  16.795  0.5457  0.0214 -0.2475
15886TIP3    H169073   2.824   0.217  16.796 -0.2576 -1.2801 -0.3927
15886TIP3    H269074   2.688   0.226  16.861  0.0650  1.0372  0.0026
15887TIP3   OH269075   3.959   5.446   5.259 -0.3463 -0.1918  0.3243
15887TIP3    H169076   3.871   5.440   5.221 -0.4583 -0.6650  0.6474
15887TIP3    H269077   4.017   5.461   5.184 -0.5868 -0.9214 -0.0132
15888TIP3   OH269078   0.732   2.701  17.160 -0.8482 -0.4834 -0.0037
15888TIP3    H169079   0.648   2.746  17.170 -0.3249  0.5328 -0.2108
15888TIP3    H269080   0.718   2.616  17.202 -1.9513 -0.2840  0.0478
15889TIP3   OH269081   4.099   0.945  13.534 -0.2557 -0.1707 -0.1844
15889TIP3    H169082   4.181   0.896  13.532 -0.4904 -0.6125  0.8377
15889TIP3    H269083   4.031   0.878  13.528 -0.5490  0.2439 -1.7940
15890TIP3   OH269084   5.006   6.339  12.986  0.6245 -0.2821 -0.6061
15890TIP3    H169085   4.916   6.365  12.963  0.3032 -0.9998 -0.1911
15890TIP3    H269086   5.030   6.276  12.919  0.9709  0.2165 -0.9505
15891TIP3   OH269087   2.684   3.411  15.694 -0.2046  0.2364  0.1212
15891TIP3    H169088   2.688   3.491  15.642  0.2591  0.1627  0.0458
15891TIP3    H269089   2.616   3.359  15.652 -0.1685  0.3839 -0.1198
15892TIP3   OH269090   5.785   4.225   1.352  0.0306  0.1761  0.0729
15892TIP3    H169091   5.827   4.142   1.332 -0.6108 -0.2057  0.2991
15892TIP3    H269092   5.756   4.259   1.267  0.4293  0.2406 -0.0352
15893TIP3   OH269093   0.185   2.975   5.773  0.2659  0.8807  0.2673
15893TIP3    H169094   0.267   2.971   5.823  1.0548 -0.0914 -1.0756
15893TIP3    H269095   0.206   2.933   5.690 -2.1468 -1.2017  0.6474
15894TIP3   OH269096   6.651   4.113   4.152  0.0297 -0.6272  0.4130
15894TIP3    H169097   6.629   4.093   4.243  0.7902  0.0487  0.7461
15894TIP3    H269098   6.742   4.142   4.155  0.5687 -2.1190 -0.7685
15895TIP3   OH269099   1.300   2.325   1.570  0.3637  0.2550 -0.6673
15895TIP3    H169100   1.343   2.401   1.611  0.4746  0.4527 -1.1449
15895TIP3    H269101   1.372   2.273   1.534  0.6276 -2.1596  3.0936
15896TIP3   OH269102   0.438   0.793  12.264 -0.0101  0.0644 -0.4193
15896TIP3    H169103   0.433   0.871  12.208 -5.2574 -0.2504 -0.7126
15896TIP3    H269104   0.450   0.829  12.352  3.4229  0.8327 -1.1591
15897TIP3   OH269105   5.001   2.599   3.797  0.2526 -0.1515 -0.1209
15897TIP3    H169106   5.027   2.518   3.751 -0.5835  0.5780 -1.9375
15897TIP3    H269107   5.062   2.665   3.765 -0.5623  0.4473 -0.4516
15898TIP3   OH269108   1.111   1.995  16.127 -0.4596  0.0866  0.1556
15898TIP3    H169109   1.196   1.969  16.163  0.2252  1.1380 -0.6889
15898TIP3    H269110   1.047   1.949  16.181  0.6616 -1.1881  0.4145
15899TIP3   OH269111   5.997   6.026   5.729  0.2948  0.0914  0.0799
15899TIP3    H169112   5.927   5.961   5.736  0.8114 -0.4847 -0.0758
15899TIP3    H269113   6.003   6.064   5.816  0.5604 -0.6634  0.3953
15900TIP3   OH269114   5.352   2.975  14.898 -0.5740  0.1744  0.1867
15900TIP3    H169115   5.374   3.068  14.887  1.7846 -0.5077 -1.0907
15900TIP3    H269116   5.420   2.941  14.956 -0.3151 -1.1852 -0.9134
15901TIP3   OH269117   4.936   3.975   0.981 -0.2113 -0.3538 -0.2783
15901TIP3    H169118   5.030   3.967   0.997 -0.2385  1.2941  0.7497
15901TIP3    H269119   4.895   3.924   1.052 -0.1586  1.8774  1.4200
15902TIP3   OH269120   1.050   5.411  13.529  0.6366 -0.1160  0.6760
15902TIP3    H169121   1.017   5.501  13.525 -0.1144 -0.3886  0.7587
15902TIP3    H269122   1.135   5.419  13.573 -0.3835  0.2894  2.6165
15903TIP3   OH269123   2.624   4.707   4.480  0.0501  0.0527  0.0656
15903TIP3    H169124   2.580   4.792   4.474  1.2577  0.6111 -0.9603
15903TIP3    H269125   2.691   4.718   4.548 -0.3873 -0.3624  0.5770
15904TIP3   OH269126   1.228   2.897   2.723 -0.3711  0.4638  0.0823
15904TIP3    H169127   1.221   2.884   2.629  1.7816  1.0021 -0.1909
15904TIP3    H269128   1.270   2.817   2.755 -2.9007 -0.5829  0.8998
15905TIP3   OH269129   5.844   0.273   1.341  0.0863  0.0042  0.0033
15905TIP3    H169130   5.935   0.264   1.313 -0.4126 -0.3909 -1.4950
15905TIP3    H269131   5.793   0.275   1.260 -1.2173  0.5446  0.8155
15906TIP3   OH269132   5.059   4.157  13.073  0.5144 -0.2261  0.0723
15906TIP3    H169133   4.976   4.145  13.027  1.8734  0.4048 -2.6176
15906TIP3    H269134   5.072   4.075  13.121 -0.9114 -0.9064 -0.6717
15907TIP3   OH269135   4.640   2.838  11.391 -0.2274  0.1559  0.3662
15907TIP3    H169136   4.605   2.918  11.352 -0.3710 -0.2411 -0.3248
15907TIP3    H269137   4.562   2.784  11.410  0.0292 -1.2308 -2.2649
15908TIP3   OH269138   1.009   4.088  12.597  0.2454  0.7253  0.0929
15908TIP3    H169139   0.951   4.142  12.543  1.5237 -0.6035 -2.7321
15908TIP3    H269140   0.974   3.999  12.588  1.5015  0.2243 -0.0039
15909TIP3   OH269141   6.466   4.957   1.281  0.9357  0.1123  0.0374
15909TIP3    H169142   6.520   4.902   1.224 -0.9448  0.3836 -2.0473
15909TIP3    H269143   6.527   5.024   1.312  2.0773 -0.2438 -1.3516
15910TIP3   OH269144   0.270   3.044   4.860 -0.4378 -0.3379  0.0444
15910TIP3    H169145   0.248   3.087   4.778  1.9017  1.4909  0.3291
15910TIP3    H269146   0.192   3.057   4.915 -1.2601  0.1182 -1.1969
15911TIP3   OH269147   0.133   5.047   4.003 -0.1658  0.2262 -0.5129
15911TIP3    H169148   0.163   4.958   3.984  0.9213  0.0095  1.9767
15911TIP3    H269149   0.208   5.089   4.045 -1.5305  1.4562  0.7756
15912TIP3   OH269150   4.196   3.960   3.991  0.0632  0.3541  0.0261
15912TIP3    H169151   4.251   4.036   4.010  0.7485 -0.0051 -0.4793
15912TIP3    H269152   4.144   3.987   3.916 -0.7143  0.8183  0.7194
15913TIP3   OH269153   0.402   2.877  14.684 -0.5398 -0.1477  0.1197
15913TIP3    H169154   0.394   2.924  14.602 -2.0622 -0.0095  0.3272
15913TIP3    H269155   0.311   2.859  14.711 -0.0463 -1.0878  1.2407
15914TIP3   OH269156   1.731   5.353   5.092  0.0566  0.0678  0.1104
15914TIP3    H169157   1.643   5.391   5.098 -0.3934 -1.1703  1.6478
15914TIP3    H269158   1.779   5.391   5.166  0.2117 -0.7825  0.4532
15915TIP3   OH269159   0.940   3.896   3.534  0.4384 -0.0557 -0.4738
15915TIP3    H169160   0.918   3.982   3.499  0.8074  0.1748 -0.1400
15915TIP3    H269161   1.034   3.888   3.522  0.3184 -0.6585 -1.0463
15916TIP3   OH269162   1.251   3.073   0.241 -0.6286 -0.1684  0.3229
15916TIP3    H169163   1.230   3.074   0.335 -0.5311 -2.3506  0.3752
15916TIP3    H269164   1.175   3.031   0.200 -1.1845  1.8009 -0.7346
15917TIP3   OH269165   2.189   0.188  14.326  0.5294 -0.1565  0.9121
15917TIP3    H169166   2.106   0.213  14.366 -0.0140 -0.3950 -0.0365
15917TIP3    H269167   2.212   0.105  14.367  0.6833  0.2765  1.7175
15918TIP3   OH269168   6.598   2.207  11.781  0.1613 -0.0950 -0.4627
15918TIP3    H169169   6.653   2.281  11.807 -0.3076  0.6859 -1.6266
15918TIP3    H269170   6.660   2.138  11.757  0.6387  0.6257 -1.3417
15919TIP3   OH269171   4.773   6.322   2.042  0.3463  0.3076  0.0625
15919TIP3    H169172   4.708   6.295   2.107 -1.2117  0.7057 -1.2970
15919TIP3    H269173   4.788   6.415   2.060 -2.3450  1.1973 -1.9879
15920TIP3   OH269174   3.123   1.715   5.128 -0.1020  0.1022 -0.6709
15920TIP3    H169175   3.186   1.743   5.195 -0.8009 -1.9496  0.8825
15920TIP3    H269176   3.048   1.773   5.140 -0.5305 -0.7342  0.8659
15921TIP3   OH269177   0.435   0.171  17.085 -0.8965  1.2804 -0.1755
15921TIP3    H169178   0.414   0.260  17.112 -0.8391  0.7375  1.7611
15921TIP3    H269179   0.518   0.151  17.130 -0.8558  0.2858 -0.6720
15922TIP3   OH269180   0.068   3.994  13.496 -0.1476 -0.6038 -0.3106
15922TIP3    H169181   0.017   4.020  13.419  2.2223  0.6560 -1.5355
15922TIP3    H269182   0.119   3.918  13.467  1.1640  0.2094 -0.2007
15923TIP3   OH269183   6.122   2.126   5.752  0.5345 -0.4771 -0.0327
15923TIP3    H169184   6.133   2.192   5.820 -0.2641 -0.1045 -0.2653
15923TIP3    H269185   6.036   2.144   5.714  0.7316 -1.0324 -0.7575
15924TIP3   OH269186   2.024   5.170   5.804  0.2620  0.0549  0.0277
15924TIP3    H169187   1.984   5.252   5.831  0.8674  0.4025 -0.1290
15924TIP3    H269188   2.118   5.190   5.797  0.4989 -0.8065  0.6247
15925TIP3   OH269189   5.775   3.166  16.269  0.2509  0.0298 -0.3298
15925TIP3    H169190   5.848   3.183  16.209  0.3224  1.2254  0.0882
15925TIP3    H269191   5.715   3.111  16.219  0.1512  1.2876 -1.6088
15926TIP3   OH269192   4.276   2.251  10.714  0.2434 -0.2112  0.6784
15926TIP3    H169193   4.208   2.307  10.677  0.7872  0.0336  0.0312
15926TIP3    H269194   4.351   2.263  10.655  1.0269 -0.0425  1.7083
15927TIP3   OH269195   1.997   2.508  14.086 -0.0580  0.0826 -0.3512
15927TIP3    H169196   1.902   2.518  14.089 -0.0586 -0.0081 -0.0973
15927TIP3    H269197   2.023   2.497  14.177 -0.1860 -3.3500 -0.6635
15928TIP3   OH269198   2.465   1.677  13.527  0.1541 -0.2254 -0.0110
15928TIP3    H169199   2.536   1.615  13.542  0.5780  0.3391  0.3098
15928TIP3    H269200   2.394   1.645  13.583  0.3385 -0.4652  0.0884
15929TIP3   OH269201   5.753   3.280   2.365 -0.3527 -0.4099  0.2237
15929TIP3    H169202   5.735   3.233   2.446  2.0706  0.1828  1.1416
15929TIP3    H269203   5.840   3.251   2.338 -1.3521 -1.0339 -2.4986
15930TIP3   OH269204   0.415   3.794  15.205 -0.2845 -0.1756  0.7182
15930TIP3    H169205   0.451   3.861  15.147 -3.4232 -0.0508 -1.2281
15930TIP3    H269206   0.326   3.824  15.224 -0.7419 -2.3355  2.2290
15931TIP3   OH269207   6.491   3.070  15.093 -0.1844 -0.1700  0.0080
15931TIP3    H169208   6.563   3.047  15.152 -1.0731  0.8714  1.5600
15931TIP3    H269209   6.417   3.087  15.152 -1.6224 -0.9210 -1.5311
15932TIP3   OH269210   5.515   5.030  16.342 -0.1896 -0.3759  0.1923
15932TIP3    H169211   5.513   4.988  16.428  0.5622  0.7446  0.7705
15932TIP3    H269212   5.608   5.036  16.320 -0.3156  0.4678 -0.1331
15933TIP3   OH269213   6.056   2.412   1.885 -0.1847  0.3159 -0.2323
15933TIP3    H169214   5.975   2.424   1.836 -0.4001  1.4076  0.3808
15933TIP3    H269215   6.091   2.500   1.895 -0.2516  0.1401  1.7322
15934TIP3   OH269216   1.822   6.143   4.675  0.4330  0.1960  0.2915
15934TIP3    H169217   1.745   6.086   4.668 -0.0375  0.6429  1.6448
15934TIP3    H269218   1.855   6.128   4.764  0.8236  1.3821  0.3592
15935TIP3   OH269219   1.748   3.944   5.061 -0.2198 -0.0245  0.3161
15935TIP3    H169220   1.654   3.941   5.078 -0.6089 -0.0372 -1.7381
15935TIP3    H269221   1.777   3.853   5.073 -0.7035 -0.2602 -0.2640
15936TIP3   OH269222   0.240   5.495  13.624 -0.0789  0.4674 -0.1742
15936TIP3    H169223   0.335   5.506  13.623  0.0544 -0.6765  0.0257
15936TIP3    H269224   0.215   5.511  13.715  0.1923 -1.5363  0.2527
15937TIP3   OH269225   0.695   3.108  15.773 -0.0982 -0.1856 -0.1196
15937TIP3    H169226   0.765   3.095  15.708 -1.1434  2.3353 -1.8221
15937TIP3    H269227   0.706   3.198  15.803 -1.0069 -0.6230  1.5953
15938TIP3   OH269228   5.219   1.205   5.886 -0.2859  0.3685  0.8020
15938TIP3    H169229   5.278   1.280   5.889  0.6612 -0.3812  1.1002
15938TIP3    H269230   5.134   1.243   5.865 -0.2524  1.7896  3.0123
15939TIP3   OH269231   5.097   1.766   0.385  0.7360 -0.2927  0.2166
15939TIP3    H169232   5.172   1.742   0.329  0.2414 -1.6975  0.1261
15939TIP3    H269233   5.129   1.839   0.438  2.1806 -0.8790  0.1833
15940TIP3   OH269234   0.828   3.880  15.970  0.3668 -0.1923  0.1061
15940TIP3    H169235   0.920   3.880  15.944  0.4746 -1.2661  0.4673
15940TIP3    H269236   0.795   3.966  15.941  1.5329  0.2963  0.1955
15941TIP3   OH269237   5.225   2.328  11.061 -0.0244 -0.0794 -0.2362
15941TIP3    H169238   5.241   2.239  11.030  0.4235  0.0109 -0.2763
15941TIP3    H269239   5.278   2.336  11.141  1.5024  0.7788 -1.3044
15942TIP3   OH269240   4.159   1.185  13.394 -0.2915 -0.0743 -0.1886
15942TIP3    H169241   4.176   1.104  13.442 -2.0646 -0.9482 -0.9963
15942TIP3    H269242   4.231   1.190  13.330  1.5408  0.6043  1.8781
15943TIP3   OH269243   4.581   2.475   2.574  0.1457  0.1995  1.0014
15943TIP3    H169244   4.579   2.555   2.522 -1.8389 -0.0649  0.6110
15943TIP3    H269245   4.574   2.405   2.509  0.1179 -0.2235  1.4575
15944TIP3   OH269246   3.602   5.870  15.327 -0.1430 -0.2299 -0.2882
15944TIP3    H169247   3.598   5.792  15.383  1.4809  0.8871  1.4599
15944TIP3    H269248   3.600   5.836  15.238  0.5335 -2.2822  0.4540
15945TIP3   OH269249   0.437   3.196   5.102 -0.2471  0.1654  0.0228
15945TIP3    H169250   0.447   3.268   5.039  0.5907  1.1513  1.2706
15945TIP3    H269251   0.352   3.211   5.143 -0.0006  0.5360  0.3983
15946TIP3   OH269252   2.476   3.558  16.184  0.4225 -0.4134 -0.1280
15946TIP3    H169253   2.394   3.572  16.135  0.1083  0.0401  0.5285
15946TIP3    H269254   2.508   3.473  16.153 -0.0978 -0.4114 -0.6731
15947TIP3   OH269255   6.651   2.987  11.110 -0.6247  0.3880  0.4842
15947TIP3    H169256   6.595   2.914  11.083 -0.1349  1.1984 -2.9148
15947TIP3    H269257   6.603   3.065  11.083  0.3749  1.2144  1.0860
15948TIP3   OH269258   0.761   6.394   5.503  0.3625  0.6652  0.0638
15948TIP3    H169259   0.685   6.359   5.456 -0.2534  2.1781 -0.0938
15948TIP3    H269260   0.803   6.317   5.542 -0.6850 -0.2923 -0.6765
15949TIP3   OH269261   3.881   0.129   1.778  0.6743  0.2109 -0.1925
15949TIP3    H169262   3.810   0.162   1.723  0.6762  0.0966 -0.2647
15949TIP3    H269263   3.869   0.172   1.862 -0.5531 -1.1945  0.3651
15950TIP3   OH269264   6.327   5.132   0.507  0.0474 -0.1891 -0.1362
15950TIP3    H169265   6.238   5.142   0.471  0.5279  1.1992 -0.9684
15950TIP3    H269266   6.366   5.219   0.497  0.5573 -0.0559  2.8107
15951TIP3   OH269267   1.398   0.228   1.330  0.0906  0.1683  1.0074
15951TIP3    H169268   1.334   0.199   1.265 -0.0843  3.4614 -0.3822
15951TIP3    H269269   1.346   0.274   1.396  0.5630 -0.8264  2.0748
15952TIP3   OH269270   5.152   0.330  17.056 -0.5548 -0.0064 -0.3884
15952TIP3    H169271   5.105   0.397  17.006 -0.2708  0.8004  0.4338
15952TIP3    H269272   5.130   0.347  17.147  1.0624  0.1582 -0.0243
15953TIP3   OH269273   2.092   5.868   5.100 -0.0208 -0.2786 -0.1995
15953TIP3    H169274   2.050   5.945   5.138  0.0552 -1.0481  1.5052
15953TIP3    H269275   2.186   5.883   5.115  0.0605 -0.2366 -0.7573
15954TIP3   OH269276   1.581   4.241  14.243  0.1970 -0.5710  0.0435
15954TIP3    H169277   1.570   4.202  14.330  0.7085 -1.5154 -0.3070
15954TIP3    H269278   1.612   4.169  14.188  0.3913  0.1451 -0.8023
15955TIP3   OH269279   3.651   5.709  17.014  0.3662  0.2236 -0.2087
15955TIP3    H169280   3.719   5.656  17.055 -1.5228 -2.6108 -0.5892
15955TIP3    H269281   3.687   5.798  17.010  3.4968 -0.9840  0.7162
15956TIP3   OH269282   4.262   2.489   1.234 -0.4240  0.0163  0.2561
15956TIP3    H169283   4.180   2.461   1.194  0.6665 -1.3741 -1.0579
15956TIP3    H269284   4.246   2.579   1.261 -2.8341 -0.6645  1.3092
15957TIP3   OH269285   6.486   6.041  15.538 -0.1490 -0.6460 -0.4378
15957TIP3    H169286   6.403   6.082  15.564  0.9082  0.9895  0.4143
15957TIP3    H269287   6.536   6.112  15.498  0.7887 -1.6803 -1.1326
15958TIP3   OH269288   3.985   5.385  12.744 -0.1082 -0.7928  0.4879
15958TIP3    H169289   3.963   5.295  12.769  0.5511 -0.4994  2.1652
15958TIP3    H269290   4.079   5.393  12.763  0.6241 -0.7755 -2.7950
15959TIP3   OH269291   4.614   1.027   2.170 -0.0914  0.1186  0.6284
15959TIP3    H169292   4.590   0.977   2.092  0.1209 -0.5222  0.9643
15959TIP3    H269293   4.539   1.017   2.228  0.9202 -1.8859  1.6785
15960TIP3   OH269294   3.023   0.101   1.228 -0.3783 -0.0777  0.2660
15960TIP3    H169295   3.119   0.106   1.219 -0.6224  2.0005 -1.5484
15960TIP3    H269296   2.999   0.018   1.186  0.4980  0.0729 -0.5534
15961TIP3   OH269297   2.910   5.529   5.367  0.1582  0.0825 -0.3868
15961TIP3    H169298   2.997   5.490   5.375  0.2564  0.5889  1.0721
15961TIP3    H269299   2.858   5.489   5.437 -0.5366  0.4430 -0.6815
15962TIP3   OH269300   0.726   1.462   0.064 -0.0181  0.0343  0.5555
15962TIP3    H169301   0.796   1.466   0.129  1.5307 -0.1883 -1.0771
15962TIP3    H269302   0.704   1.553   0.047  1.8583  0.2233 -1.0124
15963TIP3   OH269303   5.591   5.177   3.531  0.1793 -0.0651  0.4236
15963TIP3    H169304   5.572   5.250   3.472 -0.9136 -0.9889 -0.4027
15963TIP3    H269305   5.525   5.184   3.600 -0.7041 -0.9348 -0.2990
15964TIP3   OH269306   2.598   3.061  10.725  0.6653  0.2549  0.3926
15964TIP3    H169307   2.674   3.118  10.726  0.2853  0.7612  0.3739
15964TIP3    H269308   2.524   3.117  10.749  0.3413 -0.2962  0.7225
15965TIP3   OH269309   6.198   4.438  10.276 -0.8060  0.6145 -0.0987
15965TIP3    H169310   6.118   4.390  10.297 -0.4473 -0.0157 -0.1347
15965TIP3    H269311   6.266   4.394  10.327 -0.2926  0.4039 -0.9550
15966TIP3   OH269312   2.158   3.357   1.339  0.0582 -0.3578  0.1147
15966TIP3    H169313   2.164   3.341   1.433  0.6023  1.8981  0.5021
15966TIP3    H269314   2.160   3.452   1.331 -1.1317 -0.4899 -2.1210
15967TIP3   OH269315   1.044   6.771   1.279 -0.0143 -1.0249  0.5209
15967TIP3    H169316   0.961   6.738   1.312  0.2342 -1.4340  0.7451
15967TIP3    H269317   1.058   6.722   1.197 -0.8980  0.3801 -0.4939
15968TIP3   OH269318   0.156   3.932  16.573  0.8423 -0.3329 -0.0046
15968TIP3    H169319   0.143   3.999  16.506 -4.1218 -1.3187 -0.2068
15968TIP3    H269320   0.144   3.977  16.656 -2.7648 -0.8689 -0.1456
15969TIP3   OH269321   5.958   1.298  14.258  0.4426 -0.4429  0.5228
15969TIP3    H169322   6.042   1.304  14.213 -0.3422  1.1955 -0.8262
15969TIP3    H269323   5.912   1.227  14.212  0.8105 -0.8415  0.7697
15970TIP3   OH269324   5.251   1.482   2.413  0.4066 -0.2083  0.1125
15970TIP3    H169325   5.295   1.397   2.404  0.1558 -0.5616  2.0334
15970TIP3    H269326   5.295   1.538   2.350 -0.2216 -2.0819 -2.0769
15971TIP3   OH269327   2.846   6.559  13.835 -0.0926  0.2093  0.0756
15971TIP3    H169328   2.850   6.651  13.809  1.4582  0.0365 -0.3256
15971TIP3    H269329   2.912   6.516  13.781  0.0018 -0.9394  1.0966
15972TIP3   OH269330   6.357   0.745  11.453 -0.1490  0.0035  0.0250
15972TIP3    H169331   6.303   0.676  11.493  0.2906 -0.0778  0.4770
15972TIP3    H269332   6.349   0.819  11.513 -0.2604  0.1997 -0.2316
15973TIP3   OH269333   3.099   3.937   1.275 -0.6614  0.0200  0.3891
15973TIP3    H169334   3.118   3.990   1.197  0.9474 -0.0641  0.6875
15973TIP3    H269335   3.102   4.001   1.347  0.6489 -0.3339  0.6762
15974TIP3   OH269336   2.664   0.552  15.648 -0.3477 -0.0107 -0.0547
15974TIP3    H169337   2.599   0.483  15.641 -0.2328 -0.0771 -0.4635
15974TIP3    H269338   2.673   0.567  15.742 -2.2313  1.2188 -0.0456
15975TIP3   OH269339   3.263   4.603  14.421  0.0472 -0.0631 -0.4468
15975TIP3    H169340   3.175   4.564  14.416 -0.8424  1.9021 -0.6443
15975TIP3    H269341   3.307   4.572  14.342 -1.0307  0.2132 -1.1759
15976TIP3   OH269342   1.302   2.414   0.234  1.0134  0.4788 -0.6309
15976TIP3    H169343   1.351   2.458   0.304  1.2461  0.7267 -0.9482
15976TIP3    H269344   1.224   2.380   0.278  0.9905  0.9249 -0.3164
15977TIP3   OH269345   2.040   0.537   5.030  0.3700  0.6445  0.6168
15977TIP3    H169346   1.968   0.575   4.979  1.0049  1.6747  0.4791
15977TIP3    H269347   2.116   0.591   5.008  0.6420  1.1646  2.7122
15978TIP3   OH269348   2.429   4.596   1.441 -0.7862  0.2006 -0.0490
15978TIP3    H169349   2.462   4.661   1.379  0.5526 -0.6387 -0.2369
15978TIP3    H269350   2.402   4.522   1.386  0.6685 -0.6601  0.3796
15979TIP3   OH269351   1.910   1.322  12.942  0.3715 -0.7625 -0.3282
15979TIP3    H169352   1.913   1.309  12.847  0.4909 -0.4394 -0.3684
15979TIP3    H269353   1.871   1.409  12.954  0.6731 -0.6573 -0.0925
15980TIP3   OH269354   0.704   2.840   5.683  0.2049 -0.5300  0.5590
15980TIP3    H169355   0.705   2.837   5.587 -1.5583 -0.0462  0.5188
15980TIP3    H269356   0.625   2.793   5.708 -0.3482  0.9988  1.7114
15981TIP3   OH269357   5.076   2.727  16.102  0.7215  0.2358 -0.3125
15981TIP3    H169358   5.027   2.685  16.031 -0.2114 -0.9660  1.0024
15981TIP3    H269359   5.015   2.792  16.137  0.2032 -0.9699  1.0552
15982TIP3   OH269360   2.344   3.026   5.998 -0.3583 -0.1675  0.1942
15982TIP3    H169361   2.385   3.038   6.083 -1.1153 -2.6187  0.9464
15982TIP3    H269362   2.418   3.019   5.937  0.1832  1.5664  0.6076
15983TIP3   OH269363   1.359   4.422  13.537  0.3917 -0.3544 -0.4244
15983TIP3    H169364   1.325   4.468  13.613 -0.3342  1.0365 -1.5855
15983TIP3    H269365   1.398   4.342  13.573 -0.9528 -0.2560  1.2725
15984TIP3   OH269366   1.051   3.716   0.673 -0.0715 -0.5725  0.0340
15984TIP3    H169367   1.097   3.678   0.598 -0.4072  0.4815 -0.7211
15984TIP3    H269368   1.011   3.641   0.717  1.8713 -1.4447  0.3742
15985TIP3   OH269369   6.763   6.175  15.877  0.0979  0.5821  0.2368
15985TIP3    H169370   6.801   6.259  15.904  0.3541  0.0496  1.5744
15985TIP3    H269371   6.838   6.123  15.849  0.0308  0.5140  0.1839
15986TIP3   OH269372   5.232   0.904   6.563 -0.3272 -0.5209 -0.0611
15986TIP3    H169373   5.183   0.928   6.642 -1.3872 -0.3316 -0.7609
15986TIP3    H269374   5.237   0.808   6.567 -1.1875 -0.5739 -0.2376
15987TIP3   OH269375   2.235   3.523  15.080  0.7023  0.0335  0.7071
15987TIP3    H169376   2.296   3.565  15.141 -0.1593 -1.7619  2.8714
15987TIP3    H269377   2.226   3.434  15.113 -0.4699 -0.7301 -1.5815
15988TIP3   OH269378   3.524   5.790  11.491  0.3735 -0.1182 -0.1690
15988TIP3    H169379   3.447   5.839  11.520 -0.6308 -1.4658 -0.5125
15988TIP3    H269380   3.593   5.814  11.554 -0.4615  0.6806  0.4535
15989TIP3   OH269381   2.753   5.549   2.906  0.1061 -0.4438 -0.2937
15989TIP3    H169382   2.845   5.575   2.906 -0.5012  1.8845 -0.0522
15989TIP3    H269383   2.720   5.577   2.992 -1.1973  0.2134 -0.9849
15990TIP3   OH269384   3.910   0.376   2.278 -0.4637 -0.5047 -0.1684
15990TIP3    H169385   3.906   0.366   2.183 -2.2130 -0.7831 -0.0760
15990TIP3    H269386   3.854   0.307   2.312 -2.1869  1.3880  0.9598
15991TIP3   OH269387   4.369   6.564   0.027  0.1298  0.1233  0.1636
15991TIP3    H169388   4.319   6.646   0.027  0.2003  0.1699 -0.6098
15991TIP3    H269389   4.426   6.571  -0.049  0.0604 -0.6915  0.0396
15992TIP3   OH269390   2.397   3.654  14.902  0.2482  0.3664 -0.0615
15992TIP3    H169391   2.355   3.644  14.816  1.1060  0.8793 -0.5410
15992TIP3    H269392   2.334   3.617  14.963 -0.2164 -0.3233 -0.9486
15993TIP3   OH269393   2.832   6.620   5.324  0.2316 -0.0340 -0.2020
15993TIP3    H169394   2.746   6.596   5.360 -0.1503  1.5106 -0.0849
15993TIP3    H269395   2.813   6.678   5.251  1.2431  2.1185  1.2003
15994TIP3   OH269396   2.991   3.964  15.901 -0.2274 -0.3601  0.1448
15994TIP3    H169397   2.954   3.944  15.815 -0.0278  0.7981 -0.2238
15994TIP3    H269398   3.038   4.047  15.889  0.8718 -0.8192  1.0647
15995TIP3   OH269399   0.342   5.340  11.517  0.8184 -0.3860 -0.3340
15995TIP3    H169400   0.338   5.346  11.612  1.2835 -0.9964 -0.2683
15995TIP3    H269401   0.333   5.246  11.498 -2.2745  0.0268 -1.0508
15996TIP3   OH269402   2.184   0.353   5.210  0.4904 -0.5710  0.0215
15996TIP3    H169403   2.117   0.403   5.164 -0.7638 -0.3028  2.1208
15996TIP3    H269404   2.220   0.413   5.275  0.9042 -1.5295  0.7045
15997TIP3   OH269405   5.372   0.615   1.521  0.3359  0.1361  0.0303
15997TIP3    H169406   5.419   0.535   1.546 -0.3065 -0.2064  0.1561
15997TIP3    H269407   5.441   0.679   1.505  0.8676 -0.5312 -0.3819
15998TIP3   OH269408   4.179   4.311   3.524  0.0009 -0.1427  0.2355
15998TIP3    H169409   4.228   4.238   3.485 -0.3609 -0.7683  0.9365
15998TIP3    H269410   4.225   4.389   3.493 -1.2943 -0.5280 -2.8748
15999TIP3   OH269411   1.516   6.594  13.400 -0.0261 -0.1455  0.3594
15999TIP3    H169412   1.600   6.634  13.422 -0.2358 -1.2186  3.3267
15999TIP3    H269413   1.454   6.667  13.401  0.8184  0.6329 -1.7378
16000TIP3   OH269414   2.943   1.147  11.577 -1.1055 -0.1900  0.0150
16000TIP3    H169415   3.026   1.186  11.604 -2.0373  1.1561  1.0322
16000TIP3    H269416   2.944   1.151  11.482 -0.0908 -0.0196  0.0258
16001TIP3   OH269417   4.720   6.482  11.800 -0.7011  0.5677  0.1926
16001TIP3    H169418   4.657   6.554  11.797 -1.2068  0.0987 -1.0650
16001TIP3    H269419   4.696   6.432  11.878  1.0075  2.9238  2.3017
16002TIP3   OH269420   4.707   3.604   5.583  0.3458  0.3625  0.2236
16002TIP3    H169421   4.792   3.569   5.608  0.5504 -0.6784 -1.8272
16002TIP3    H269422   4.720   3.698   5.578  1.0971  0.3052  0.9117
16003TIP3   OH269423   2.067   4.626  13.876 -0.2220 -0.3366  0.0401
16003TIP3    H169424   2.046   4.701  13.932  1.8074  0.4860 -0.2565
16003TIP3    H269425   2.158   4.606  13.895 -0.0396 -1.2293 -1.6257
16004TIP3   OH269426   5.177   4.821  11.105  0.2433 -0.4337 -0.1290
16004TIP3    H169427   5.121   4.875  11.050 -2.1347 -2.6262  0.0572
16004TIP3    H269428   5.257   4.810  11.054 -0.2391  1.1466 -1.2478
16005TIP3   OH269429   0.916   1.059  12.554 -0.5551  0.2150  0.0842
16005TIP3    H169430   0.876   1.033  12.471  0.9308  1.2894 -0.9944
16005TIP3    H269431   0.863   1.015  12.620 -1.3639 -1.2145 -1.4487
16006TIP3   OH269432   5.486   0.851  11.443 -0.0923  0.1380  0.3553
16006TIP3    H169433   5.419   0.919  11.451 -0.2626 -0.1339  1.2401
16006TIP3    H269434   5.501   0.843  11.349 -0.1034  1.3752  0.2481
16007TIP3   OH269435   5.868   0.956   5.356 -0.1283  0.4547  0.3070
16007TIP3    H169436   5.833   0.879   5.402 -1.2076  0.0466 -1.1711
16007TIP3    H269437   5.953   0.971   5.398 -0.9799 -0.0279  2.2829
16008TIP3   OH269438   2.625   1.313   0.644 -0.3306 -0.1609 -0.0790
16008TIP3    H169439   2.704   1.301   0.697 -0.4278 -0.9780 -0.1159
16008TIP3    H269440   2.555   1.323   0.708 -0.4801 -1.3570 -0.0381
16009TIP3   OH269441   2.774   1.975   1.280  0.2595  0.0593  0.2471
16009TIP3    H169442   2.716   1.997   1.353 -0.2879 -2.0365  0.4642
16009TIP3    H269443   2.859   2.010   1.306 -0.1311  0.1024  1.4953
16010TIP3   OH269444   2.972   6.688   2.752  0.8460 -0.0995  0.7645
16010TIP3    H169445   2.938   6.656   2.835 -0.6432  0.8329  0.5475
16010TIP3    H269446   2.927   6.635   2.686  1.2971 -0.1900  0.5275
16011TIP3   OH269447   5.463   4.076   6.122  0.3670  0.0995  0.4628
16011TIP3    H169448   5.551   4.064   6.089  0.5198  1.4080  0.3757
16011TIP3    H269449   5.472   4.075   6.217  0.4910  0.3586  0.4526
16012TIP3   OH269450   5.016   5.196  14.983 -1.0099  0.3959 -0.3353
16012TIP3    H169451   4.951   5.231  15.044 -0.6218 -0.9376  0.8406
16012TIP3    H269452   5.043   5.113  15.020  0.0662  0.0905 -1.7448
16013TIP3   OH269453   3.434   6.326  13.408 -0.0017  1.2799 -0.1805
16013TIP3    H169454   3.419   6.418  13.385  0.4372  1.2458 -0.6089
16013TIP3    H269455   3.518   6.304  13.368 -1.3571 -0.0733 -2.4369
16014TIP3   OH269456   4.632   2.970   0.372 -0.0313 -0.2498  0.1222
16014TIP3    H169457   4.634   3.056   0.330 -2.0172  1.2876  2.9568
16014TIP3    H269458   4.722   2.939   0.369  0.7226  1.9402 -0.9201
16015TIP3   OH269459   0.311   1.373  11.799  0.4990 -0.9674 -0.5247
16015TIP3    H169460   0.389   1.357  11.745  1.6843 -0.9726  1.1630
16015TIP3    H269461   0.344   1.422  11.874 -0.9934 -1.7697  0.6607
16016TIP3   OH269462   3.657   2.824  16.149  0.0577 -0.3171 -0.0697
16016TIP3    H169463   3.591   2.801  16.215  0.3364 -0.1641  0.2655
16016TIP3    H269464   3.729   2.764  16.166 -0.3297 -1.0480 -0.9760
16017TIP3   OH269465   5.961   1.787  16.613  0.0074  0.2254 -0.0047
16017TIP3    H169466   5.978   1.849  16.542 -0.0447  0.8725  0.5409
16017TIP3    H269467   6.048   1.760  16.643  0.0293 -0.2236 -0.4599
16018TIP3   OH269468   5.951   5.957   4.933  0.5716  0.3482 -0.3501
16018TIP3    H169469   6.031   5.990   4.973  0.3581  1.3703 -0.7363
16018TIP3    H269470   5.973   5.943   4.841  1.4785 -3.4150  0.3595
16019TIP3   OH269471   2.460   5.533   5.530  0.2841  0.4060  0.0838
16019TIP3    H169472   2.528   5.466   5.534 -0.8976 -0.7783  0.5811
16019TIP3    H269473   2.505   5.611   5.497  1.6093 -0.7072 -0.7777
16020TIP3   OH269474   1.049   6.739   5.103  0.3902 -0.2603  0.3390
16020TIP3    H169475   1.134   6.699   5.087  1.0185  1.8431 -1.9117
16020TIP3    H269476   1.026   6.780   5.020 -1.9276  0.8409  1.4776
16021TIP3   OH269477   2.687   1.290   2.297 -0.1210 -0.6051 -0.3635
16021TIP3    H169478   2.766   1.269   2.345  0.6510  0.9805 -0.8814
16021TIP3    H269479   2.690   1.235   2.219  1.8707  1.3066 -1.7190
16022TIP3   OH269480   3.327   2.121   0.207 -0.4852 -0.4443 -0.0328
16022TIP3    H169481   3.304   2.133   0.299 -2.8060 -2.3756 -0.3111
16022TIP3    H269482   3.248   2.087   0.167  0.7022 -0.2583 -2.6377
16023TIP3   OH269483   5.724   6.782  15.301 -0.5842 -0.0793  0.4748
16023TIP3    H169484   5.672   6.797  15.380 -1.5623  2.1031 -0.5337
16023TIP3    H269485   5.663   6.745  15.238 -0.8487  1.9950 -0.5442
16024TIP3   OH269486   3.396   1.176   5.928 -0.4716  0.2439  0.3836
16024TIP3    H169487   3.313   1.169   5.975 -0.6692 -1.2992 -0.1503
16024TIP3    H269488   3.386   1.253   5.872 -2.0571 -0.6668 -0.6291
16025TIP3   OH269489   4.654   4.474   2.553  0.2214 -0.4829  0.1785
16025TIP3    H169490   4.617   4.561   2.565 -0.5534 -0.8337  0.3237
16025TIP3    H269491   4.698   4.456   2.636 -1.6511 -1.2118  1.0300
16026TIP3   OH269492   4.796   1.929  14.845 -0.0684 -0.1451  0.0359
16026TIP3    H169493   4.819   1.958  14.757  0.4639 -2.0450 -0.4710
16026TIP3    H269494   4.837   1.993  14.903 -1.4613  1.8269 -1.1084
16027TIP3   OH269495   4.163   0.925  14.598  0.2219  0.1286  0.5211
16027TIP3    H169496   4.168   0.927  14.694 -0.4660  1.4284  0.5495
16027TIP3    H269497   4.230   0.987  14.569 -0.0732  0.2997  0.1917
16028TIP3   OH269498   3.523   1.592  14.946  0.0132  0.3127  0.4417
16028TIP3    H169499   3.522   1.517  14.885 -0.7519  0.3413  0.4151
16028TIP3    H269500   3.615   1.602  14.969  0.5974  1.4720 -2.1678
16029TIP3   OH269501   2.869   2.271   4.932  0.0955  0.1214  0.1923
16029TIP3    H169502   2.837   2.297   4.846 -0.3580  0.2425  0.3979
16029TIP3    H269503   2.922   2.193   4.916  1.7628  1.3539 -0.4845
16030TIP3   OH269504   0.133   3.945   0.797  0.5268 -0.2131 -0.8833
16030TIP3    H169505   0.143   3.854   0.770  0.7292  0.1979 -2.2490
16030TIP3    H269506   0.211   3.989   0.762 -0.6057  0.8923 -2.0544
16031TIP3   OH269507   5.413   2.548  14.041  0.2232  0.5299  0.2167
16031TIP3    H169508   5.396   2.570  13.950  0.4767 -0.1466  0.0040
16031TIP3    H269509   5.327   2.533  14.079  0.1678  0.0048 -0.1187
16032TIP3   OH269510   0.324   1.131  10.950 -0.1195 -0.0646  0.2166
16032TIP3    H169511   0.349   1.183  10.873 -1.2437 -1.0038 -0.8006
16032TIP3    H269512   0.234   1.158  10.969 -0.5488 -1.2978 -0.0358
16033TIP3   OH269513   5.376   3.017   4.990  0.2274 -0.2981 -0.0928
16033TIP3    H169514   5.350   3.108   4.974 -1.3936 -0.4093  1.6596
16033TIP3    H269515   5.464   3.023   5.027 -1.1235  0.8623  3.1495
16034TIP3   OH269516   0.468   4.306   5.197  0.1776 -0.1437 -0.5701
16034TIP3    H169517   0.550   4.354   5.212 -0.6458  0.5094  2.0978
16034TIP3    H269518   0.418   4.317   5.278 -1.4280 -2.7907 -1.1268
16035TIP3   OH269519   2.574   4.621   0.092 -0.4752 -0.0220 -0.2582
16035TIP3    H169520   2.613   4.549   0.042 -0.5850  0.6223 -1.2922
16035TIP3    H269521   2.649   4.663   0.135 -0.3680 -0.5234  0.0457
16036TIP3   OH269522   1.451   3.477  10.823  0.4775 -0.3391  0.6088
16036TIP3    H169523   1.507   3.452  10.896  1.1554 -1.8624 -0.4187
16036TIP3    H269524   1.362   3.466  10.856  0.7774 -2.0145  0.8791
16037TIP3   OH269525   5.531   3.064  13.956  0.5362  0.3811  0.3906
16037TIP3    H169526   5.501   3.056  14.046 -0.6493  0.5097  0.0102
16037TIP3    H269527   5.451   3.069  13.904  1.2002 -0.5802 -0.7507
16038TIP3   OH269528   0.660   5.624  14.949 -0.7239  0.2052  0.5496
16038TIP3    H169529   0.626   5.569  14.879  0.0670 -0.3077  0.5585
16038TIP3    H269530   0.600   5.698  14.953 -2.7980 -1.4517  1.6246
16039TIP3   OH269531   2.735   5.226  15.044  0.1630  0.4549  0.1335
16039TIP3    H169532   2.695   5.248  15.129 -3.8096 -1.6362 -1.0690
16039TIP3    H269533   2.714   5.301  14.989  1.2016  1.0200  0.4906
16040TIP3   OH269534   0.627   5.704   2.960 -0.2248 -0.1769 -0.3147
16040TIP3    H169535   0.690   5.668   3.022  0.8466  0.9164 -0.7406
16040TIP3    H269536   0.547   5.652   2.973  0.0015 -0.0085  1.9312
16041TIP3   OH269537   2.835   2.787  16.736  0.5536  0.1432  0.5208
16041TIP3    H169538   2.864   2.724  16.670 -0.9689 -1.3685  1.2643
16041TIP3    H269539   2.897   2.775  16.808  0.5806 -0.1349  0.4549
16042TIP3   OH269540   6.054   0.949   0.048 -0.3074 -0.6246  0.1228
16042TIP3    H169541   6.072   1.028  -0.003  1.1930 -0.6546  0.5848
16042TIP3    H269542   6.060   0.877  -0.014 -0.8565 -0.4574 -0.1293
16043TIP3   OH269543   5.715   3.541  11.617 -0.2744 -0.4176  0.5739
16043TIP3    H169544   5.789   3.489  11.647  1.7012 -0.5484 -4.0292
16043TIP3    H269545   5.754   3.624  11.590 -2.2453  0.5796  0.7212
16044TIP3   OH269546   6.500   1.967   4.223  0.3717 -0.2151  0.0179
16044TIP3    H169547   6.483   1.873   4.233 -0.7085 -0.1366 -1.0757
16044TIP3    H269548   6.594   1.976   4.241  1.2395 -2.0075 -3.2289
16045TIP3   OH269549   2.436   6.598  11.320  0.4565  0.0892 -0.1553
16045TIP3    H169550   2.351   6.576  11.282  0.8149 -1.0303 -0.3245
16045TIP3    H269551   2.473   6.663  11.260 -0.2324  0.5188 -0.1270
16046TIP3   OH269552   0.376   0.431   1.245  0.3725 -0.3055 -0.0131
16046TIP3    H169553   0.449   0.492   1.241  0.1521  0.0452  1.0392
16046TIP3    H269554   0.299   0.487   1.259 -0.4164 -0.4745 -3.3010
16047TIP3   OH269555   5.821   1.371  15.555 -0.0796  0.1119 -0.7715
16047TIP3    H169556   5.868   1.415  15.626  0.2546  0.4514 -1.1993
16047TIP3    H269557   5.730   1.402  15.564 -0.0002  0.2980 -0.6078
16048TIP3   OH269558   6.729   5.980  13.785 -0.3295  0.1598  0.3945
16048TIP3    H169559   6.651   5.966  13.732 -0.5885 -0.0256  0.8243
16048TIP3    H269560   6.802   5.962  13.725 -0.6108  0.4531 -0.0372
16049TIP3   OH269561   6.265   0.694  12.961  0.2357 -0.2370 -0.0207
16049TIP3    H169562   6.348   0.741  12.967 -0.6660  1.3306  0.6564
16049TIP3    H269563   6.216   0.740  12.892 -0.1681 -0.9913 -0.2474
16050TIP3   OH269564   5.800   4.143  14.469  0.1669 -0.1561 -0.7083
16050TIP3    H169565   5.744   4.081  14.422 -2.7288  1.1153  0.9481
16050TIP3    H269566   5.792   4.224  14.419 -0.2741  0.3123  0.1353
16051TIP3   OH269567   2.259   2.713  16.025 -0.1876 -1.1559  0.1754
16051TIP3    H169568   2.292   2.636  16.070  0.2308 -0.5595  0.8994
16051TIP3    H269569   2.186   2.743  16.078 -0.2458 -0.9522 -0.0171
16052TIP3   OH269570   6.148   0.812   4.425  0.1826 -0.4944 -0.9539
16052TIP3    H169571   6.067   0.851   4.460  1.6161  0.9191  0.8836
16052TIP3    H269572   6.197   0.785   4.502  1.6508 -0.9964 -2.0413
16053TIP3   OH269573   3.795   2.670  14.175  0.3107 -0.0568  0.1914
16053TIP3    H169574   3.859   2.623  14.121 -0.4957  0.1236 -0.9391
16053TIP3    H269575   3.809   2.636  14.263  0.0041 -2.1545 -0.5321
16054TIP3   OH269576   2.245   4.256  15.438 -0.8121 -0.5630  0.6288
16054TIP3    H169577   2.169   4.302  15.401  0.4339  1.4061  0.4792
16054TIP3    H269578   2.315   4.270  15.375  0.4304  0.0065  2.1166
16055TIP3   OH269579   5.204   2.486  15.075 -0.5487  0.1182 -0.0202
16055TIP3    H169580   5.147   2.563  15.075 -0.3032  0.3011  0.0393
16055TIP3    H269581   5.260   2.499  15.151  0.0940  0.3268 -0.5287
16056TIP3   OH269582   4.824   1.446   2.782 -0.0831  0.8725  0.1971
16056TIP3    H169583   4.903   1.436   2.834 -1.2670  0.2800  1.9089
16056TIP3    H269584   4.794   1.356   2.766 -0.2479  1.0812 -0.6966
16057TIP3   OH269585   1.158   0.888   4.610 -0.2096  0.0175  0.0139
16057TIP3    H169586   1.237   0.942   4.609 -0.6512  0.6823 -2.0852
16057TIP3    H269587   1.087   0.951   4.597 -0.8286 -0.9289 -1.2778
16058TIP3   OH269588   5.385   6.492   3.724 -0.2536  0.0829  0.2892
16058TIP3    H169589   5.393   6.568   3.781  1.3085 -0.8405  1.3209
16058TIP3    H269590   5.430   6.518   3.643 -2.1988  1.2720 -0.4405
16059TIP3   OH269591   5.446   4.774   1.518 -0.1674  0.3276 -0.3107
16059TIP3    H169592   5.377   4.820   1.470  0.0155  0.6203 -0.2943
16059TIP3    H269593   5.509   4.842   1.540 -0.1324  0.1511  0.1405
16060TIP3   OH269594   4.923   4.682  12.725 -0.2022 -0.2828  0.0275
16060TIP3    H169595   4.919   4.617  12.795 -0.6727 -0.1718  0.1098
16060TIP3    H269596   4.860   4.650  12.660  0.8410 -0.8276 -0.7316
16061TIP3   OH269597   1.929   6.076  11.575 -0.1402 -0.0602  0.3249
16061TIP3    H169598   1.916   5.983  11.592  0.8461 -0.8499 -2.9999
16061TIP3    H269599   1.903   6.088  11.484  2.2106  2.4057 -0.0805
16062TIP3   OH269600   1.151   6.158   5.612 -0.1261 -0.4547 -0.2596
16062TIP3    H169601   1.212   6.115   5.552  0.3795 -0.2065  0.0747
16062TIP3    H269602   1.207   6.209   5.670 -0.5670 -1.2392  0.8666
16063TIP3   OH269603   4.432   3.777  11.348 -0.1088 -0.0193 -0.7759
16063TIP3    H169604   4.427   3.683  11.361  1.3687  0.3259  2.9797
16063TIP3    H269605   4.343   3.809  11.363 -0.3772 -0.7044 -0.9315
16064TIP3   OH269606   2.714   0.687   0.225  0.1732  0.0748 -0.0301
16064TIP3    H169607   2.748   0.708   0.138  1.7206  1.3239  0.8425
16064TIP3    H269608   2.633   0.738   0.231  1.8460  2.7516  0.5428
16065TIP3   OH269609   6.730   0.959  14.710 -0.2821  0.4343 -0.1802
16065TIP3    H169610   6.800   0.943  14.773  1.3696  1.9143 -1.5991
16065TIP3    H269611   6.761   1.033  14.658 -3.0415  1.3379 -0.6168
16066TIP3   OH269612   5.729   0.500  13.188 -0.3122  0.0184 -0.3062
16066TIP3    H169613   5.710   0.537  13.102  2.1850 -0.1765 -0.9810
16066TIP3    H269614   5.769   0.572  13.238 -1.2947 -0.0037  0.5223
16067TIP3   OH269615   2.799   0.674  14.441  0.4839 -0.4472  0.6448
16067TIP3    H169616   2.832   0.644  14.526  3.3047 -0.7782 -0.4971
16067TIP3    H269617   2.848   0.622  14.377  0.2710  1.5566 -1.2239
16068TIP3   OH269618   0.482   2.157   5.099  0.0624 -0.0316  0.1932
16068TIP3    H169619   0.495   2.251   5.113  0.2733  0.1832 -1.3864
16068TIP3    H269620   0.387   2.145   5.101  0.0323  0.2247  0.3170
16069TIP3   OH269621   5.736   5.918   5.428 -0.0302  0.0676 -0.0165
16069TIP3    H169622   5.669   5.890   5.365 -2.6612 -0.2724  2.8019
16069TIP3    H269623   5.717   6.011   5.443  0.6526  0.1729  0.2050
16070TIP3   OH269624   5.419   5.960   1.522  0.2743  0.1713  0.4312
16070TIP3    H169625   5.404   6.047   1.485  0.3731 -0.2063 -0.4991
16070TIP3    H269626   5.434   5.903   1.446 -0.8449 -0.8697  0.9725
16071TIP3   OH269627   5.978   6.579  11.799  0.4265 -0.6149  0.5487
16071TIP3    H169628   6.030   6.528  11.736 -1.4467 -2.5052  0.4696
16071TIP3    H269629   5.977   6.525  11.878 -1.1659 -0.4780  0.6307
16072TIP3   OH269630   2.497   0.098   4.876  0.1060  0.2596 -0.1795
16072TIP3    H169631   2.537   0.055   4.952 -0.6613  2.0736  1.2963
16072TIP3    H269632   2.441   0.031   4.836  1.3830 -1.0404  0.1938
16073TIP3   OH269633   5.843   4.043   5.342 -0.0993  0.6856 -0.3702
16073TIP3    H169634   5.894   4.123   5.337  0.4512  0.3628  0.0514
16073TIP3    H269635   5.867   4.004   5.426 -1.6065  0.9232  0.2016
16074TIP3   OH269636   0.934   5.340   4.841  0.0686 -0.1396 -0.2387
16074TIP3    H169637   1.023   5.376   4.840  0.5422 -1.2989  0.0255
16074TIP3    H269638   0.946   5.246   4.849 -1.2143 -0.2097  1.0372
16075TIP3   OH269639   0.055   2.569   6.192 -0.3746 -0.1861 -0.3239
16075TIP3    H169640   0.133   2.516   6.207 -0.3889  0.5753  2.8309
16075TIP3    H269641   0.037   2.560   6.099  2.2442 -2.0694 -0.6953
16076TIP3   OH269642   5.486   1.143  16.561 -0.0691 -0.1340  0.0364
16076TIP3    H169643   5.475   1.237  16.547 -2.0644 -0.5711 -1.6618
16076TIP3    H269644   5.450   1.128  16.649  0.0736  0.6472  0.2371
16077TIP3   OH269645   0.783   5.423   3.313  0.1649  0.0311 -0.2512
16077TIP3    H169646   0.758   5.331   3.314  1.2488 -0.2649  0.6136
16077TIP3    H269647   0.814   5.441   3.402 -1.2137  1.5588 -0.0628
16078TIP3   OH269648   0.233   2.500  13.702 -0.0282 -0.5605 -0.6511
16078TIP3    H169649   0.151   2.480  13.747  0.3268 -0.1373  0.2023
16078TIP3    H269650   0.293   2.432  13.731  0.2487 -0.1888 -0.3470
16079TIP3   OH269651   0.705   5.162   0.056 -0.1150  0.4977 -0.4947
16079TIP3    H169652   0.710   5.192  -0.035 -0.0265  0.2925 -0.5592
16079TIP3    H269653   0.797   5.149   0.081 -0.1513  0.3126 -0.4584
16080TIP3   OH269654   5.438   4.339  16.914  0.2833 -0.1747 -0.3793
16080TIP3    H169655   5.403   4.371  16.997  0.4335 -0.7587 -0.0900
16080TIP3    H269656   5.362   4.305  16.867  0.0071  1.2675 -0.9983
16081TIP3   OH269657   1.884   3.844  11.730  0.0508  0.0686 -0.6477
16081TIP3    H169658   1.936   3.818  11.654  0.1717 -0.0579 -0.5211
16081TIP3    H269659   1.906   3.780  11.797  0.2074  0.3883 -0.3936
16082TIP3   OH269660   1.807   2.500  15.357  0.4943 -0.0721  0.9665
16082TIP3    H169661   1.894   2.485  15.394  1.3742 -1.3763 -1.5732
16082TIP3    H269662   1.822   2.513  15.264 -2.0600 -0.7118  0.4299
16083TIP3   OH269663   0.565   2.947   1.108  0.0005 -0.2956 -0.7082
16083TIP3    H169664   0.568   3.033   1.067  0.2941  1.0114  2.0017
16083TIP3    H269665   0.656   2.920   1.116  0.0067  0.0057  0.2347
16084TIP3   OH269666   3.936   4.219   1.658  0.5337  0.3043 -0.0283
16084TIP3    H169667   3.953   4.312   1.666 -0.1584  0.4953 -0.6996
16084TIP3    H269668   3.967   4.196   1.570 -0.4965  0.1767 -0.3642
16085TIP3   OH269669   5.270   3.905   5.076 -0.3858  0.3539 -0.3484
16085TIP3    H169670   5.295   3.813   5.063 -2.9202 -0.5318  0.6967
16085TIP3    H269671   5.261   3.914   5.171 -1.0068  1.4348 -0.5074
16086TIP3   OH269672   5.094   0.996  15.358  0.4637  0.4262 -0.4797
16086TIP3    H169673   5.082   1.075  15.412  1.7119  1.0814 -1.1488
16086TIP3    H269674   5.180   0.963  15.382 -0.0178 -0.6907 -0.2775
16087TIP3   OH269675   0.118   0.015   2.128 -0.4395  0.1693  0.8254
16087TIP3    H169676   0.057   0.047   2.195 -0.6247 -0.4040  0.9311
16087TIP3    H269677   0.128  -0.078   2.148 -1.3004 -0.2355 -0.5559
16088TIP3   OH269678   2.184   3.023   2.836  0.4451 -0.3731 -1.0123
16088TIP3    H169679   2.150   2.937   2.863 -0.9609  0.7020  0.7742
16088TIP3    H269680   2.106   3.077   2.825  1.3948  1.2416 -0.0348
16089TIP3   OH269681   0.166   5.164  16.025 -0.0573  0.3652 -0.2377
16089TIP3    H169682   0.161   5.110  16.104  3.1889 -0.2036 -0.3708
16089TIP3    H269683   0.239   5.224  16.041  0.1106  0.8049 -2.4601
16090TIP3   OH269684   5.583   2.798  12.438 -0.8430 -0.1238  0.1861
16090TIP3    H169685   5.605   2.737  12.368 -0.0517  1.6888 -1.1756
16090TIP3    H269686   5.579   2.884  12.396  2.5146  1.4658  2.8361
16091TIP3   OH269687   2.549   2.332  11.799 -0.3863  0.6031  0.0315
16091TIP3    H169688   2.469   2.380  11.819 -3.4336 -3.3661 -1.7444
16091TIP3    H269689   2.547   2.322  11.704  1.2478 -1.0809  0.1579
16092TIP3   OH269690   6.329   3.637   2.946 -0.3297  0.4417  0.1118
16092TIP3    H169691   6.285   3.552   2.948 -0.5667  0.5517 -0.3164
16092TIP3    H269692   6.413   3.620   2.903 -0.1994  0.3446  0.4015
16093TIP3   OH269693   0.982   4.004   3.168 -0.2095 -0.4674 -0.1352
16093TIP3    H169694   1.018   3.988   3.081  0.8690 -2.2270  0.6157
16093TIP3    H269695   0.927   3.927   3.186 -2.1088  0.8435 -0.0846
16094TIP3   OH269696   4.619   2.594   3.108 -0.4543  0.0656 -0.8053
16094TIP3    H169697   4.536   2.642   3.111 -1.5797 -1.8853  0.9747
16094TIP3    H269698   4.626   2.564   3.018 -1.5736  0.4503 -1.0336
16095TIP3   OH269699   2.901   5.614   6.201  0.4370 -0.0630  0.3139
16095TIP3    H169700   2.913   5.632   6.108 -4.0006  0.3995 -0.2854
16095TIP3    H269701   2.869   5.697   6.238  1.1781 -0.5218  2.0728
16096TIP3   OH269702   2.165   6.558   0.807  0.2017 -0.4165 -1.2140
16096TIP3    H169703   2.232   6.597   0.864 -0.9139  0.3629 -0.4232
16096TIP3    H269704   2.165   6.612   0.728  1.5429 -1.3198 -1.8594
16097TIP3   OH269705   3.847   3.349   1.402 -0.2669  1.0534 -0.6935
16097TIP3    H169706   3.814   3.418   1.459 -0.3726  0.0223  0.5275
16097TIP3    H269707   3.801   3.363   1.319 -1.0868  1.8065 -0.1284
16098TIP3   OH269708   4.762   4.386  14.490  0.3517  0.0473  0.3149
16098TIP3    H169709   4.815   4.348  14.420  1.5417  1.8059  0.2244
16098TIP3    H269710   4.708   4.452  14.446  0.5448  0.6162  0.9204
16099TIP3   OH269711   5.517   1.698   4.617  0.7709  0.4389 -0.1035
16099TIP3    H169712   5.562   1.766   4.568 -1.8042  0.9569 -1.8586
16099TIP3    H269713   5.526   1.619   4.562  0.2957  0.3429 -0.0471
16100TIP3   OH269714   1.783   3.602   6.210 -0.2623  0.0284 -0.1896
16100TIP3    H169715   1.874   3.600   6.180 -0.0460 -0.5465  0.4769
16100TIP3    H269716   1.778   3.679   6.266 -0.0090 -0.3064  0.2981
16101TIP3   OH269717   3.716   1.768   3.584 -0.2004 -0.4684  0.0158
16101TIP3    H169718   3.662   1.777   3.506  0.0464  0.5602 -0.0434
16101TIP3    H269719   3.718   1.856   3.623  0.7250 -0.6788  0.4760
16102TIP3   OH269720   0.584   3.436  16.465 -0.1676  0.0916 -0.4230
16102TIP3    H169721   0.669   3.451  16.423  0.5128  3.4573  1.9975
16102TIP3    H269722   0.603   3.378  16.538 -0.4791 -1.4727 -1.5526
16103TIP3   OH269723   4.145   3.000  13.296  0.5701 -0.0045  0.7006
16103TIP3    H169724   4.127   2.909  13.317 -0.6113 -0.1817 -0.9894
16103TIP3    H269725   4.206   2.997  13.222 -0.4545  0.5635 -0.1781
16104TIP3   OH269726   6.746   4.047  10.947 -0.0261  0.0698  0.0157
16104TIP3    H169727   6.737   4.074  10.855  1.6045  2.4288  0.4896
16104TIP3    H269728   6.759   3.952  10.943  0.1211  0.1482 -2.1908
16105TIP3   OH269729   2.736   4.614  12.525  0.0091  0.0868 -0.7859
16105TIP3    H169730   2.686   4.612  12.607 -0.5814 -1.6180 -1.1657
16105TIP3    H269731   2.789   4.534  12.528  0.4739  0.3524 -1.7785
16106TIP3   OH269732   5.251   3.032  12.389 -0.3891 -0.6031 -0.4075
16106TIP3    H169733   5.261   2.965  12.457 -0.8706 -0.9068 -0.6346
16106TIP3    H269734   5.334   3.030  12.342 -0.4990 -1.2243 -0.5792
16107TIP3   OH269735   5.102   0.839   1.171  0.0657 -0.1642 -0.0617
16107TIP3    H169736   5.135   0.881   1.092 -2.1640  1.0833 -0.3723
16107TIP3    H269737   5.128   0.897   1.243 -0.1792  0.0435 -0.1434
16108TIP3   OH269738   5.466   3.908  11.653 -0.0032 -0.1085  0.3690
16108TIP3    H169739   5.542   3.852  11.646 -0.7803 -1.2379  0.8466
16108TIP3    H269740   5.428   3.909  11.565  0.5195  0.4060  0.1467
16109TIP3   OH269741   5.313   2.640  11.232  0.4539 -0.1197 -0.1127
16109TIP3    H169742   5.256   2.663  11.306  0.4386  1.5880 -0.6243
16109TIP3    H269743   5.335   2.548  11.246 -0.1963 -0.0348  1.5879
16110TIP3   OH269744   3.604   4.191   2.671  0.5593 -0.2469 -0.2642
16110TIP3    H169745   3.641   4.278   2.659 -0.6382  0.4235  0.7320
16110TIP3    H269746   3.653   4.153   2.743  0.8881 -0.2804 -0.5066
16111TIP3   OH269747   2.428   5.678   4.328 -0.0794  0.2396 -0.1239
16111TIP3    H169748   2.409   5.722   4.411  1.0709  2.5947 -1.0791
16111TIP3    H269749   2.396   5.589   4.341 -2.5882  1.3432  1.8285
16112TIP3   OH269750   5.895   1.241  14.557  0.6976 -0.0115  0.1199
16112TIP3    H169751   5.945   1.163  14.531  0.2545  0.1572 -1.3110
16112TIP3    H269752   5.885   1.291  14.476  0.3047  1.1552  0.8723
16113TIP3   OH269753   2.745   6.172   2.152  0.3005  0.7335 -0.2390
16113TIP3    H169754   2.776   6.186   2.241  0.0996  0.7886 -0.1767
16113TIP3    H269755   2.728   6.260   2.118  0.1820  0.7029 -0.2604
16114TIP3   OH269756   5.650   3.428   0.951 -0.4856 -0.5943 -0.0800
16114TIP3    H169757   5.687   3.340   0.945  0.1878 -0.6404  3.5644
16114TIP3    H269758   5.598   3.426   1.031  0.5483  2.6601  0.7248
16115TIP3   OH269759   5.690   4.144  15.474 -0.4069 -0.2736  0.3047
16115TIP3    H169760   5.786   4.147  15.470 -0.3853  0.3763  1.1720
16115TIP3    H269761   5.666   4.078  15.410  0.5686  0.3454 -0.7288
16116TIP3   OH269762   6.151   2.839   3.594  0.3050  0.3213  0.1641
16116TIP3    H169763   6.179   2.805   3.680 -0.1822  1.5607  0.8278
16116TIP3    H269764   6.229   2.879   3.557  0.8232 -1.2991 -0.5172
16117TIP3   OH269765   1.331   4.785  13.801  0.6388  0.2004 -0.8194
16117TIP3    H169766   1.420   4.787  13.765  2.2059 -1.3828  2.6864
16117TIP3    H269767   1.342   4.814  13.892 -2.1646 -1.5847  0.1389
16118TIP3   OH269768   3.522   0.645  17.207  0.7396 -0.0919 -0.4995
16118TIP3    H169769   3.581   0.713  17.173  1.8899  0.1177  1.8686
16118TIP3    H269770   3.576   0.594  17.267 -0.7377 -1.7145 -0.5136
16119TIP3   OH269771   5.830   4.565  10.857  0.2492  0.3820 -0.1916
16119TIP3    H169772   5.820   4.478  10.818 -0.1323  0.4487 -0.2426
16119TIP3    H269773   5.746   4.582  10.899  0.2809  0.7823 -0.2952
16120TIP3   OH269774   3.225   6.711  16.031  0.2226  0.1487  0.0001
16120TIP3    H169775   3.293   6.653  15.996  0.6353  0.0893  0.8772
16120TIP3    H269776   3.145   6.685  15.986  0.3259 -1.3935  0.6851
16121TIP3   OH269777   2.011   5.713   0.911  0.1785 -0.1104 -0.0353
16121TIP3    H169778   2.079   5.781   0.909 -1.5603  1.6339 -1.2202
16121TIP3    H269779   2.051   5.638   0.866  1.5541  0.6441 -0.0952
16122TIP3   OH269780   5.671   3.779  12.979 -0.0337  0.3825  0.2359
16122TIP3    H169781   5.748   3.834  12.960 -0.0797  0.6701  0.8667
16122TIP3    H269782   5.656   3.791  13.072 -0.8679  0.3444  0.1097
16123TIP3   OH269783   4.074   2.200   4.561  0.2463  0.0626  0.0541
16123TIP3    H169784   4.157   2.247   4.555  0.6948 -0.7401 -0.1809
16123TIP3    H269785   4.024   2.229   4.485  0.1664  0.8035  0.3791
16124TIP3   OH269786   4.743   6.166  15.494  0.9988 -0.4219  0.2440
16124TIP3    H169787   4.765   6.212  15.575 -1.2221  0.7881  0.1946
16124TIP3    H269788   4.697   6.087  15.522  0.3191 -0.0534  0.1817
16125TIP3   OH269789   2.448   4.917  10.990  0.3423 -0.3244  0.3755
16125TIP3    H169790   2.412   4.830  10.970  1.5248 -0.8308  0.3928
16125TIP3    H269791   2.485   4.947  10.907  2.0538 -0.8785  0.9055
16126TIP3   OH269792   1.988   2.153   1.851 -0.6334 -0.8806 -0.7257
16126TIP3    H169793   2.020   2.071   1.891  1.1668  0.6812  1.1621
16126TIP3    H269794   1.944   2.199   1.922  1.0630  1.1551 -0.9390
16127TIP3   OH269795   3.526   2.412   6.635 -0.5070 -0.7553 -0.0298
16127TIP3    H169796   3.452   2.354   6.622 -0.3498 -1.1268  0.7382
16127TIP3    H269797   3.593   2.379   6.575 -0.9488 -0.4256 -0.7150
16128TIP3   OH269798   1.238   3.544  14.307  0.2501  0.2591 -0.2425
16128TIP3    H169799   1.159   3.544  14.361  0.0903  0.6188 -0.4722
16128TIP3    H269800   1.205   3.543  14.217  0.5098  0.0506 -0.3348
16129TIP3   OH269801   2.990   3.189   3.202 -0.3384 -0.0677  0.4161
16129TIP3    H169802   2.907   3.158   3.238 -1.5433  1.7995 -0.6848
16129TIP3    H269803   3.052   3.182   3.275 -1.9146  0.3220  1.8182
16130TIP3   OH269804   3.853   4.067  15.072  0.3643 -0.2523 -0.2977
16130TIP3    H169805   3.795   4.005  15.116  0.9689 -0.4962  0.1588
16130TIP3    H269806   3.848   4.044  14.980 -0.1885 -0.3388 -0.2444
16131TIP3   OH269807   3.176   0.576   2.020 -0.0562 -0.3397 -0.5152
16131TIP3    H169808   3.159   0.627   2.100  1.0896 -0.6692 -0.0445
16131TIP3    H269809   3.262   0.607   1.991  0.1270 -1.1795 -0.8679
16132TIP3   OH269810   2.209   4.565  11.388 -0.0223  0.3623 -0.1836
16132TIP3    H169811   2.241   4.475  11.396 -1.2135 -0.0929 -0.4863
16132TIP3    H269812   2.123   4.564  11.430 -0.9474  0.8590 -2.0344
16133TIP3   OH269813   2.917   0.015  15.964 -0.1403 -0.0741  0.4087
16133TIP3    H169814   2.921  -0.021  15.876  1.5750 -1.4318  1.0065
16133TIP3    H269815   2.923   0.109  15.953 -1.8278 -0.1111 -1.0247
16134TIP3   OH269816   6.635   5.323  12.029  0.4737 -0.3078  0.1861
16134TIP3    H169817   6.695   5.280  12.089  1.1235  0.1577 -0.1147
16134TIP3    H269818   6.692   5.371  11.969 -0.2340  1.3250  0.7843
16135TIP3   OH269819   0.072   2.833  11.213  0.3407 -0.9946  0.5932
16135TIP3    H169820   0.107   2.801  11.130  2.0172  1.0290  0.4625
16135TIP3    H269821  -0.000   2.891  11.188  1.4535  0.3635  0.4665
16136TIP3   OH269822   2.019   5.666  15.153 -0.7136  0.1065 -0.1371
16136TIP3    H169823   1.972   5.629  15.078  0.8712  1.1008 -1.6567
16136TIP3    H269824   2.108   5.631  15.146  0.0953  2.0800 -0.1017
16137TIP3   OH269825   4.377   0.259   0.094  0.0930  0.3204  0.1286
16137TIP3    H169826   4.351   0.186   0.038 -2.1198  2.1531 -1.3336
16137TIP3    H269827   4.445   0.223   0.151 -1.1345 -2.9370 -0.3699
16138TIP3   OH269828   0.347   2.559  15.543  0.1465  0.2872 -0.1484
16138TIP3    H169829   0.378   2.649  15.555  1.3121 -0.0388 -0.6442
16138TIP3    H269830   0.393   2.528  15.465  0.0891 -0.8876  0.2748
16139TIP3   OH269831   6.305   1.699  14.104  0.3485 -0.4663  0.4209
16139TIP3    H169832   6.265   1.757  14.168 -0.2363 -0.3786 -0.0121
16139TIP3    H269833   6.232   1.645  14.073  0.9082 -1.5368  0.9327
16140TIP3   OH269834   4.577   0.157   5.678 -0.3627  0.1962 -0.3222
16140TIP3    H169835   4.537   0.110   5.605  1.4503 -2.1204  0.1237
16140TIP3    H269836   4.547   0.110   5.757 -0.3194  1.1461  0.2668
16141TIP3   OH269837   1.388   3.097   4.355  0.1740 -0.0927 -0.0981
16141TIP3    H169838   1.419   3.015   4.394  0.8477  0.2549  0.1106
16141TIP3    H269839   1.427   3.099   4.268  2.4006  1.2893  0.8877
16142TIP3   OH269840   4.268   0.682  12.159 -0.7070  0.6768 -0.8239
16142TIP3    H169841   4.186   0.635  12.177  1.2987 -2.4753  0.4432
16142TIP3    H269842   4.297   0.648  12.075 -0.0855  0.8923 -0.6968
16143TIP3   OH269843   3.516   5.847  13.540 -0.2734  0.0376 -0.4395
16143TIP3    H169844   3.602   5.846  13.498 -0.0168 -0.2601  0.0924
16143TIP3    H269845   3.464   5.909  13.487 -0.0349 -0.5259 -1.3468
16144TIP3   OH269846   3.293   0.165  11.583  0.3974 -0.1939 -0.5108
16144TIP3    H169847   3.351   0.093  11.604 -1.1846 -1.4833 -0.4450
16144TIP3    H269848   3.333   0.242  11.623  2.2545 -0.9739 -0.8421
16145TIP3   OH269849   4.596   0.965   0.123 -0.4038  0.0259 -0.1791
16145TIP3    H169850   4.518   0.990   0.171  0.1683 -0.5811  1.0719
16145TIP3    H269851   4.637   1.048   0.098 -0.0410  0.3428  1.4507
16146TIP3   OH269852   3.916   5.846  14.005 -0.2040 -0.3346  0.0004
16146TIP3    H169853   4.000   5.868  14.045 -0.8716  0.4288  0.9932
16146TIP3    H269854   3.856   5.914  14.036 -0.8894 -0.1088 -1.7662
16147TIP3   OH269855   6.171   5.624  12.471 -0.0859 -0.7316  0.3954
16147TIP3    H169856   6.117   5.547  12.454 -2.3536  0.5735  1.5960
16147TIP3    H269857   6.217   5.604  12.552 -0.9514 -0.6916  0.9023
16148TIP3   OH269858   3.753   2.724  11.144  0.1944 -0.1393  0.3092
16148TIP3    H169859   3.814   2.655  11.116  0.4838 -0.3271  1.3729
16148TIP3    H269860   3.676   2.676  11.175  0.5804 -0.0137  1.4855
16149TIP3   OH269861   1.860   2.047   3.418 -0.0153  0.0121 -0.3909
16149TIP3    H169862   1.857   1.986   3.492  0.1962  0.2852 -0.1536
16149TIP3    H269863   1.893   2.128   3.456  1.2408 -0.1883 -1.0167
16150TIP3   OH269864   5.094   3.636  12.144 -0.5177 -0.3993 -0.3628
16150TIP3    H169865   5.183   3.622  12.112 -0.2017  0.0663  0.3166
16150TIP3    H269866   5.096   3.721  12.186 -1.5912  0.1590 -1.4069
16151TIP3   OH269867   2.344   6.626   0.983  0.5061  0.4349  0.7309
16151TIP3    H169868   2.312   6.658   1.067  0.7239  0.7529  0.6948
16151TIP3    H269869   2.383   6.703   0.941  1.6105 -0.0025  0.9211
16152TIP3   OH269870   3.507   5.501  12.928  0.7013 -0.0582 -0.0957
16152TIP3    H169871   3.517   5.457  13.012  0.8217  0.3017  0.0790
16152TIP3    H269872   3.511   5.431  12.863 -0.0604 -0.4158  0.2370
16153TIP3   OH269873   6.618   1.987  16.249 -0.4093 -0.2348  0.4895
16153TIP3    H169874   6.638   2.079  16.261 -1.1833 -0.0352  0.2722
16153TIP3    H269875   6.652   1.944  16.327 -1.0486  0.3819  1.1037
16154TIP3   OH269876   6.696   5.423  14.657 -0.2118 -0.5924  0.3426
16154TIP3    H169877   6.700   5.505  14.608  0.9140  0.2672  1.8374
16154TIP3    H269878   6.678   5.357  14.590 -3.3855  1.1009 -0.5840
16155TIP3   OH269879   5.067   4.689  11.748  0.0868 -0.0762  0.2057
16155TIP3    H169880   5.113   4.611  11.781 -0.0882  0.4523  1.7385
16155TIP3    H269881   4.990   4.696  11.804 -0.3716  0.6830 -0.5257
16156TIP3   OH269882   2.728   2.428   3.449  0.3088 -0.4947 -0.2586
16156TIP3    H169883   2.675   2.506   3.443  0.3976 -0.4888 -1.0162
16156TIP3    H269884   2.677   2.360   3.405 -0.0386 -1.0202  0.9091
16157TIP3   OH269885   2.867   1.410  15.640 -0.0502  0.5591  0.7677
16157TIP3    H169886   2.944   1.355  15.625 -0.9249 -0.4004 -0.3636
16157TIP3    H269887   2.793   1.357  15.608 -0.9071  2.4032 -0.4445
16158TIP3   OH269888   3.571   2.304   5.149 -0.6929  0.2112 -0.3865
16158TIP3    H169889   3.555   2.319   5.242  1.0859  1.1620 -0.2208
16158TIP3    H269890   3.493   2.257   5.119 -1.0501 -0.5875  1.6985
16159TIP3   OH269891   0.117   3.478  12.056  0.6991  0.3964  0.0296
16159TIP3    H169892   0.175   3.411  12.093 -0.6498 -0.7197  0.1307
16159TIP3    H269893   0.173   3.556  12.047  2.5332 -1.0053 -0.9992
16160TIP3   OH269894   0.291   6.750   3.820 -0.4576  0.2380  0.1974
16160TIP3    H169895   0.314   6.714   3.734  0.8390 -1.7901  1.3761
16160TIP3    H269896   0.265   6.841   3.801 -0.5138 -0.2778 -2.3722
16161TIP3   OH269897   1.541   4.783   1.414  0.2060 -0.0650 -0.5205
16161TIP3    H169898   1.491   4.764   1.335 -2.2474  0.7796  0.7690
16161TIP3    H269899   1.582   4.700   1.437 -1.1106 -0.9553 -1.2997
16162TIP3   OH269900   0.812   2.923  13.544  0.5438  0.0415 -0.3410
16162TIP3    H169901   0.899   2.948  13.574  0.4494 -0.8359  0.7044
16162TIP3    H269902   0.806   2.829  13.562 -2.1767  0.8412  3.5703
16163TIP3   OH269903   6.644   2.100   3.035 -0.1154 -0.2203  0.0997
16163TIP3    H169904   6.692   2.124   3.114  2.6914  2.5690 -2.3390
16163TIP3    H269905   6.586   2.174   3.018 -0.0045 -0.3645 -0.9680
16164TIP3   OH269906   0.585   5.499  11.832  0.1588  0.3577  0.3626
16164TIP3    H169907   0.506   5.447  11.817  0.5988 -0.1840 -0.1091
16164TIP3    H269908   0.554   5.578  11.875 -0.4223 -0.6787  1.9112
16165TIP3   OH269909   4.288   0.295   5.677 -0.3942  0.0670 -0.1888
16165TIP3    H169910   4.361   0.308   5.617 -0.7628  1.1877 -0.4205
16165TIP3    H269911   4.215   0.342   5.636 -1.2966 -1.2082 -0.0699
16166TIP3   OH269912   2.145   1.523  13.285 -0.0594 -0.3591  0.3038
16166TIP3    H169913   2.159   1.483  13.199  0.4014 -1.1480  0.7327
16166TIP3    H269914   2.198   1.602  13.284 -0.5077 -0.0665 -0.3473
16167TIP3   OH269915   5.096   6.088   0.398 -0.0778 -0.2178  0.6170
16167TIP3    H169916   5.092   6.146   0.321  4.0666  0.8502  1.0700
16167TIP3    H269917   5.076   6.146   0.472 -0.0299 -0.2978  0.6919
16168TIP3   OH269918   3.630   5.999  14.365 -0.1091  0.2436 -0.8599
16168TIP3    H169919   3.654   5.920  14.316  1.7907 -0.5947  1.3035
16168TIP3    H269920   3.712   6.044  14.380 -0.9151  1.5267 -0.2101
16169TIP3   OH269921   5.834   0.920  13.829  0.0269  0.0383 -0.2182
16169TIP3    H169922   5.749   0.875  13.823  0.1420 -0.1459 -0.4931
16169TIP3    H269923   5.894   0.864  13.780  0.3871 -0.0229  0.2916
16170TIP3   OH269924   2.730   3.953   3.079 -0.2470  0.0534 -0.0640
16170TIP3    H169925   2.758   3.872   3.121  0.6403  0.8673  0.9487
16170TIP3    H269926   2.635   3.953   3.086 -0.1945 -0.5186  0.6318
16171TIP3   OH269927   2.163   2.635   2.064 -0.4280 -0.1556  0.1739
16171TIP3    H169928   2.071   2.609   2.055 -0.6859  0.1562  1.8200
16171TIP3    H269929   2.212   2.564   2.023 -1.3456 -0.9527  0.4384
16172TIP3   OH269930   4.423   3.789   3.435  0.0296  1.4367 -1.1823
16172TIP3    H169931   4.486   3.858   3.413  0.8490  0.9048 -0.5365
16172TIP3    H269932   4.434   3.724   3.366  0.5282  1.1209 -0.8046
16173TIP3   OH269933   1.927   1.349  12.574 -0.1674  0.3635  0.3662
16173TIP3    H169934   1.863   1.420  12.565  0.1169  0.2017 -4.2982
16173TIP3    H269935   1.877   1.269  12.559  0.6627  0.0799 -1.0165
16174TIP3   OH269936   2.115   2.357  16.411  0.2441  0.3340  0.0033
16174TIP3    H169937   2.188   2.306  16.376 -0.5962 -1.1137  0.3413
16174TIP3    H269938   2.151   2.397  16.490  0.7919 -0.0804 -0.0305
16175TIP3   OH269939   2.369   4.184   5.116 -0.0461 -0.3036 -0.2600
16175TIP3    H169940   2.376   4.100   5.160  0.8257  0.0427  0.2760
16175TIP3    H269941   2.328   4.242   5.180  1.1624  0.1853  0.0797
16176TIP3   OH269942   5.693   3.029  16.979  0.4990  0.4199 -0.2442
16176TIP3    H169943   5.630   3.075  16.924 -0.5293  0.7906  1.2207
16176TIP3    H269944   5.641   2.993  17.050  1.8955  0.4198  0.7884
16177TIP3   OH269945   0.583   4.999  14.843  0.1319 -0.2627 -0.1851
16177TIP3    H169946   0.651   4.939  14.874  0.6262  0.1450 -0.4530
16177TIP3    H269947   0.624   5.044  14.769  0.4565  1.7470  1.1530
16178TIP3   OH269948   0.843   4.003  16.224 -0.2555 -0.0468  0.2563
16178TIP3    H169949   0.816   3.956  16.145 -3.4212  1.9789  0.0066
16178TIP3    H269950   0.936   4.021  16.211  0.1013 -2.8271 -1.3738
16179TIP3   OH269951   1.598   2.675   2.867  0.0737 -0.1010  0.0377
16179TIP3    H169952   1.580   2.587   2.834 -0.7044 -0.6823  1.9599
16179TIP3    H269953   1.688   2.670   2.900  0.6925  0.3569 -1.5358
16180TIP3   OH269954   1.321   4.168   0.032 -0.0533 -0.1447 -0.0012
16180TIP3    H169955   1.255   4.098   0.035 -1.4563  1.2129  1.2488
16180TIP3    H269956   1.404   4.123   0.046 -0.7451 -1.7960 -0.9691
16181TIP3   OH269957   4.043   6.691  12.938 -0.3347 -0.5166 -0.5749
16181TIP3    H169958   4.088   6.766  12.977 -1.5405  0.0997 -0.3569
16181TIP3    H269959   4.111   6.625  12.927  0.5513  0.2864  0.0702
16182TIP3   OH269960   4.497   2.652  16.494 -0.1240  0.6871 -0.2303
16182TIP3    H169961   4.504   2.703  16.574  2.4176  0.5921 -0.3536
16182TIP3    H269962   4.455   2.571  16.521 -1.5508  1.6506  0.5109
16183TIP3   OH269963   4.769   2.824  15.417  0.4911 -0.7972  0.5532
16183TIP3    H169964   4.770   2.816  15.513 -0.3856  3.2836  1.0048
16183TIP3    H269965   4.837   2.888  15.398  0.3210 -1.2161 -1.5409
16184TIP3   OH269966   5.879   5.700   2.747  0.5138 -0.0568 -0.2691
16184TIP3    H169967   5.902   5.793   2.753 -2.1770  0.6287  0.0811
16184TIP3    H269968   5.937   5.657   2.808  2.6123  1.2403 -1.2976
16185TIP3   OH269969   1.086   6.225   1.410  0.3559  0.0052  0.1901
16185TIP3    H169970   1.102   6.201   1.501  0.4237 -0.8745 -0.0491
16185TIP3    H269971   1.011   6.284   1.414  0.2170 -0.2093  0.7996
16186TIP3   OH269972   5.701   0.195   1.908  0.5317 -0.2482  0.0206
16186TIP3    H169973   5.616   0.236   1.921 -0.2587 -2.1293  1.0576
16186TIP3    H269974   5.709   0.184   1.813  0.7765  2.2531 -0.2788
16187TIP3   OH269975   4.819   3.092  12.624  0.0265 -0.5462  0.1474
16187TIP3    H169976   4.796   3.036  12.698  0.0169 -2.6020 -1.3612
16187TIP3    H269977   4.898   3.139  12.652 -1.3573  0.5592  2.3521
16188TIP3   OH269978   6.356   3.876   4.133 -1.3148  0.7770  0.2773
16188TIP3    H169979   6.374   3.878   4.227  0.1998 -0.2138  0.0407
16188TIP3    H269980   6.349   3.783   4.112 -0.0139  0.9155 -0.8593
16189TIP3   OH269981   4.080   2.485  15.995  0.7600 -0.0571 -0.2146
16189TIP3    H169982   4.174   2.487  16.015  0.7668  1.3284 -0.2926
16189TIP3    H269983   4.056   2.392  15.997  2.0823 -0.3990  0.0342
16190TIP3   OH269984   4.484   1.202   1.494 -0.0771 -0.1876 -0.1040
16190TIP3    H169985   4.576   1.222   1.512  0.5040 -1.1740 -1.7687
16190TIP3    H269986   4.479   1.202   1.398 -1.6813 -0.7053 -0.0302
16191TIP3   OH269987   0.245   2.895  12.778 -0.4013 -0.1023  0.1053
16191TIP3    H169988   0.263   2.855  12.863 -0.5320 -0.0771  0.1468
16191TIP3    H269989   0.316   2.958  12.765  0.9966 -1.8428 -0.9325
16192TIP3   OH269990   0.053   1.215  10.964 -0.0508  0.2707 -0.5859
16192TIP3    H169991  -0.033   1.199  11.003  1.2349 -1.5641  1.6010
16192TIP3    H269992   0.033   1.255  10.879 -3.1439 -1.9752 -1.0325
16193TIP3   OH269993   0.756   5.273   1.656  0.8630  0.2949 -0.3532
16193TIP3    H169994   0.689   5.224   1.607  0.5039 -0.8185  1.2347
16193TIP3    H269995   0.831   5.278   1.596  0.2783 -0.6786 -1.1747
16194TIP3   OH269996   1.890   3.396  13.354  0.9050  0.1814 -0.3202
16194TIP3    H169997   1.876   3.359  13.268 -0.5378  1.2581 -0.5622
16194TIP3    H269998   1.803   3.422  13.384  1.5065  0.6426  1.0752
16195TIP3   OH269999   1.731   1.804  10.971  0.4973  0.7742 -0.1744
16195TIP3    H170000   1.761   1.869  11.034  0.8448  1.1623 -0.7366
16195TIP3    H270001   1.704   1.854  10.895 -0.9930  0.3769  0.0786
16196TIP3   OH270002   5.425   0.553   5.051  0.4792  0.2407  0.2735
16196TIP3    H170003   5.390   0.503   4.977  1.1525 -0.7816  0.6302
16196TIP3    H270004   5.492   0.496   5.089 -0.0932  0.5981  1.8819
16197TIP3   OH270005   0.897   4.090   6.294 -0.0388 -0.5102 -0.0477
16197TIP3    H170006   0.828   4.038   6.335 -0.1347 -1.0699 -0.9269
16197TIP3    H270007   0.888   4.074   6.201 -0.9268  2.0955 -0.4708
16198TIP3   OH270008   3.437   3.787  15.783  0.0707  0.4473  0.3346
16198TIP3    H170009   3.482   3.869  15.805 -0.9942  0.8519  1.1124
16198TIP3    H270010   3.346   3.803  15.811 -0.5084 -0.3913 -1.0573
16199TIP3   OH270011   0.847   1.906   4.160  0.1853  0.4095 -0.0125
16199TIP3    H170012   0.787   1.856   4.217  0.4702 -0.1966 -0.2397
16199TIP3    H270013   0.932   1.864   4.172  0.2346  0.2334 -0.9427
16200TIP3   OH270014   4.155   5.656   5.614  0.3566  0.0591 -0.1852
16200TIP3    H170015   4.207   5.598   5.671 -0.3023  0.1798  0.5476
16200TIP3    H270016   4.105   5.596   5.559  1.3006 -0.0598 -0.9353
16201TIP3   OH270017   4.933   3.200  13.623 -0.2160  0.0822  0.3169
16201TIP3    H170018   4.981   3.272  13.665 -1.0694  1.5380 -1.1465
16201TIP3    H270019   4.848   3.237  13.602 -0.6562 -1.3611 -0.4904
16202TIP3   OH270020   2.389   3.423   4.127  0.2228  0.0239 -0.0074
16202TIP3    H170021   2.415   3.400   4.216 -0.3926  2.4070  0.8353
16202TIP3    H270022   2.297   3.447   4.135 -0.0020 -0.3554 -1.4160
16203TIP3   OH270023   4.356   6.007  14.837  0.2158  0.0550  0.5588
16203TIP3    H170024   4.279   5.950  14.845  1.0396 -1.8077 -3.3216
16203TIP3    H270025   4.320   6.089  14.804 -0.1544 -0.8321 -1.3148
16204TIP3   OH270026   3.120   6.764   1.816  0.3955  0.3508  0.2244
16204TIP3    H170027   3.141   6.828   1.884 -0.6040  1.9938 -0.9562
16204TIP3    H270028   3.040   6.722   1.846 -0.4355  1.5666 -0.2357
16205TIP3   OH270029   5.360   1.003  12.600  0.0217  0.2756 -0.0591
16205TIP3    H170030   5.282   0.948  12.598 -0.2403  0.5650  1.6382
16205TIP3    H270031   5.327   1.092  12.583  0.2573  0.1464 -1.3032
16206TIP3   OH270032   0.316   3.979  14.491 -0.0076  0.4389  0.7271
16206TIP3    H170033   0.402   3.983  14.534 -0.9117 -1.1800  2.7605
16206TIP3    H270034   0.330   3.921  14.416  0.9502  1.1116  0.3744
16207TIP3   OH270035   2.912   1.846  13.337  0.1939 -0.1530 -0.1947
16207TIP3    H170036   2.878   1.908  13.272  0.0888  0.7437  0.6950
16207TIP3    H270037   2.872   1.874  13.420 -0.1788 -1.6755  0.1534
16208TIP3   OH270038   2.716   3.374  13.405  0.1027  0.0661  0.4369
16208TIP3    H170039   2.671   3.297  13.440  0.6919 -0.3399  0.3175
16208TIP3    H270040   2.789   3.338  13.354 -0.4090  0.6662 -0.7386
16209TIP3   OH270041   0.554   5.459   5.567  0.6192 -0.4391 -0.1016
16209TIP3    H170042   0.511   5.487   5.648  1.7347 -0.2846  0.4447
16209TIP3    H270043   0.553   5.363   5.572 -0.9845 -0.4607 -0.7951
16210TIP3   OH270044   4.964   3.794  14.201 -0.9280  0.4833  0.3815
16210TIP3    H170045   4.935   3.871  14.250  0.3870  1.7372 -0.7647
16210TIP3    H270046   4.973   3.825  14.111  1.6162 -0.4505  0.2650
16211TIP3   OH270047   2.831   3.520  15.910  0.3479 -0.5468 -0.3544
16211TIP3    H170048   2.799   3.469  15.836  0.8625  1.7314 -2.2272
16211TIP3    H270049   2.760   3.582  15.929  1.0256  0.1996 -0.2417
16212TIP3   OH270050   4.307   1.751   0.579 -0.0934  0.0995 -0.3898
16212TIP3    H170051   4.376   1.787   0.636  0.4000 -2.4288  0.6674
16212TIP3    H270052   4.246   1.824   0.567  2.7578  2.4261 -1.3783
16213TIP3   OH270053   0.217   1.799  12.247 -0.2186 -0.0976  0.2518
16213TIP3    H170054   0.227   1.824  12.155  2.1508 -2.6593 -0.2428
16213TIP3    H270055   0.178   1.712  12.244 -1.1556  0.2552  1.7308
16214TIP3   OH270056   1.596   2.231  16.152  0.0270 -0.0682  0.0340
16214TIP3    H170057   1.663   2.250  16.087  1.6684 -2.1860  1.0539
16214TIP3    H270058   1.641   2.240  16.237 -1.0970 -0.9458  0.7443
16215TIP3   OH270059   0.148   3.636  16.507  0.3104  0.5562 -0.3848
16215TIP3    H170060   0.157   3.549  16.469 -0.0099  0.4802 -0.2815
16215TIP3    H270061   0.193   3.631  16.591 -0.4148  0.2644 -0.0125
16216TIP3   OH270062   5.875   6.778   4.448 -0.0065  0.2175  0.2587
16216TIP3    H170063   5.882   6.742   4.360  0.5890  1.9235 -0.4080
16216TIP3    H270064   5.795   6.739   4.483  1.6505 -3.2856  0.3259
16217TIP3   OH270065   2.376   1.935   3.203  0.5060  0.4238  0.6511
16217TIP3    H170066   2.351   1.848   3.173  0.8128  0.2699  0.8386
16217TIP3    H270067   2.468   1.927   3.228  0.6682  0.9200  0.2201
16218TIP3   OH270068   5.251   4.154  15.550  0.3832  0.4715 -0.6942
16218TIP3    H170069   5.162   4.168  15.583  0.2673  0.4080 -0.9736
16218TIP3    H270070   5.288   4.241  15.542  0.0824  0.5441 -1.2985
16219TIP3   OH270071   0.567   4.880   1.580  0.2644  1.2242  0.7919
16219TIP3    H170072   0.609   4.882   1.494  2.3940  0.5747  1.7926
16219TIP3    H270073   0.484   4.833   1.565  1.5891 -0.7698 -0.5113
16220TIP3   OH270074   6.178   1.630   5.335 -0.3327  0.4702  0.1707
16220TIP3    H170075   6.238   1.579   5.390 -0.1748  1.6824  1.1325
16220TIP3    H270076   6.104   1.571   5.319  1.2547 -1.1593 -1.3088
16221TIP3   OH270077   5.795   3.646   1.041 -0.1590  0.3205 -0.0150
16221TIP3    H170078   5.760   3.557   1.046  0.9088 -0.0871  0.2986
16221TIP3    H270079   5.765   3.688   1.122 -0.9591  0.3586 -0.3277
16222TIP3   OH270080   5.689   4.134  13.573  0.0213  0.3539  0.4967
16222TIP3    H170081   5.736   4.058  13.608  0.9815  0.7728  0.1357
16222TIP3    H270082   5.750   4.173  13.511  0.4545  2.7163  2.3250
16223TIP3   OH270083   3.581   5.636   2.915 -0.7754 -0.0956 -0.4456
16223TIP3    H170084   3.665   5.661   2.953 -1.3194  0.3727  0.4837
16223TIP3    H270085   3.574   5.688   2.835  0.8128 -1.7911 -1.7221
16224TIP3   OH270086   4.471   2.293  15.802  0.1221  0.3710  0.1686
16224TIP3    H170087   4.450   2.337  15.884 -0.4180 -1.2391  0.9053
16224TIP3    H270088   4.388   2.290  15.754  0.2841  0.6709 -0.1351
16225TIP3   OH270089   1.901   3.149  10.511  0.4353  0.2061 -0.4509
16225TIP3    H170090   1.927   3.224  10.458  0.9110 -0.2812 -0.9164
16225TIP3    H270091   1.921   3.175  10.601 -0.5848  1.1179 -0.4757
16226TIP3   OH270092   3.086   2.665   2.230 -0.6549  0.3269 -0.1338
16226TIP3    H170093   3.122   2.718   2.159 -0.4597 -1.1971 -1.2060
16226TIP3    H270094   2.993   2.657   2.209 -1.3083  2.7554  1.6655
16227TIP3   OH270095   2.661   1.627  12.642  0.1200  0.3497  1.1467
16227TIP3    H170096   2.745   1.585  12.628 -0.6545 -0.6261 -0.7261
16227TIP3    H270097   2.631   1.594  12.726  1.3640  0.3046  1.5828
16228TIP3   OH270098   0.159   1.120  14.162  0.2417  0.2403 -0.5375
16228TIP3    H170099   0.226   1.085  14.103  1.8250  0.4978  1.0711
16228TIP3    H270100   0.151   1.055  14.231  1.5841  1.9353  1.2841
16229TIP3   OH270101   0.513   3.143  15.369 -0.0813  0.2231 -0.5559
16229TIP3    H170102   0.604   3.119  15.386 -0.6549  0.0715  2.6206
16229TIP3    H270103   0.470   3.061  15.343  0.3095 -0.0334 -0.3809
16230TIP3   OH270104   2.328   5.014   0.075  0.8727  0.0683 -0.0006
16230TIP3    H170105   2.246   5.003   0.028  1.7967 -1.1506 -1.3913
16230TIP3    H270106   2.308   5.075   0.146 -1.1508 -0.0200 -0.4802
16231TIP3   OH270107   4.115   1.424  13.262  0.3790  0.2895  0.3143
16231TIP3    H170108   4.120   1.329  13.276 -1.8230 -0.2451 -2.0827
16231TIP3    H270109   4.201   1.447  13.228  0.5610 -1.0910 -0.2149
16232TIP3   OH270110   4.058   3.621  11.426  0.5242  0.8564 -0.6713
16232TIP3    H170111   4.114   3.577  11.362  0.6573 -0.2580  0.2017
16232TIP3    H270112   4.090   3.591  11.511 -0.4753  1.3299 -0.1190
16233TIP3   OH270113   0.209   5.544   2.733  0.1514 -0.3995 -0.2498
16233TIP3    H170114   0.190   5.623   2.682 -0.3900  0.6130  1.4701
16233TIP3    H270115   0.133   5.533   2.789  1.0174 -1.1158  0.8061
16234TIP3   OH270116   0.666   2.506   5.238 -0.6072 -0.4670 -0.0342
16234TIP3    H170117   0.687   2.596   5.263 -0.4355 -0.8870  1.3796
16234TIP3    H270118   0.750   2.467   5.213 -0.7870 -0.0295 -1.3389
16235TIP3   OH270119   6.410   6.204   0.068 -0.0502  0.1727  0.0230
16235TIP3    H170120   6.468   6.201  -0.008  0.6243  1.3636  0.4875
16235TIP3    H270121   6.349   6.131   0.054  1.5869 -1.1380 -0.4334
16236TIP3   OH270122   4.838   2.545  14.415 -0.7269  0.4151  0.5956
16236TIP3    H170123   4.865   2.622  14.464 -1.9099  0.5637  1.0186
16236TIP3    H270124   4.919   2.493  14.406  0.1179  1.7739  0.1295
16237TIP3   OH270125   5.094   3.374   3.212  0.0321  0.3392 -0.6411
16237TIP3    H170126   5.097   3.462   3.250 -1.3184  0.7009 -1.3053
16237TIP3    H270127   5.172   3.330   3.244  0.0298  1.3522  0.7731
16238TIP3   OH270128   4.574   2.175  14.918  0.4774 -0.0582  0.1267
16238TIP3    H170129   4.614   2.231  14.851  1.2395 -0.6188  0.1056
16238TIP3    H270130   4.639   2.107  14.934  0.3135  0.0827  1.4549
16239TIP3   OH270131   5.031   1.455  12.542  0.0380  0.4167  0.2946
16239TIP3    H170132   5.050   1.370  12.582  0.9911  0.1808 -0.6241
16239TIP3    H270133   5.112   1.478  12.495 -0.3862  1.5902  0.1183
16240TIP3   OH270134   3.050   4.539  11.432 -0.0619 -0.6014 -0.3405
16240TIP3    H170135   3.110   4.604  11.397  0.3846 -1.5695 -1.3993
16240TIP3    H270136   3.099   4.495  11.502  0.4347 -1.2982 -1.1119
16241TIP3   OH270137   3.867   4.552  15.532  0.2363 -0.2325  0.3841
16241TIP3    H170138   3.863   4.630  15.477  2.9305 -1.1192 -1.1759
16241TIP3    H270139   3.820   4.485  15.482  1.7508 -0.7500 -0.3799
16242TIP3   OH270140   4.588   6.592  14.742  0.2160 -0.2241  0.4411
16242TIP3    H170141   4.532   6.651  14.792 -0.9088 -0.1886 -0.8409
16242TIP3    H270142   4.667   6.642  14.725 -0.7952  0.9852 -0.7802
16243TIP3   OH270143   4.611   5.644  13.934 -0.0633 -0.1966  0.3282
16243TIP3    H170144   4.577   5.707  13.871  0.1258  1.7373  2.0957
16243TIP3    H270145   4.706   5.647  13.923 -0.1793 -2.7487 -1.9329
16244TIP3   OH270146   3.862   1.828  13.156 -0.5811 -0.3767  0.2285
16244TIP3    H170147   3.936   1.792  13.106  0.7823  1.4443  0.8950
16244TIP3    H270148   3.887   1.814  13.248 -0.3828  1.5439  0.4811
16245TIP3   OH270149   3.123   6.438   3.571  0.5462 -0.6808 -0.4494
16245TIP3    H170150   3.099   6.432   3.479  1.5997 -2.1946 -0.6427
16245TIP3    H270151   3.158   6.527   3.581  3.6728 -1.6145 -2.3555
16246TIP3   OH270152   4.543   0.046   4.830 -0.3926 -0.0516  0.5733
16246TIP3    H170153   4.508   0.125   4.789 -1.6408 -0.2859  1.1746
16246TIP3    H270154   4.638   0.060   4.830 -0.5992  1.4922  0.7513
16247TIP3   OH270155   4.469   4.338  16.612 -0.1254 -0.3877  0.6104
16247TIP3    H170156   4.543   4.365  16.666  0.4002  0.3281 -0.4579
16247TIP3    H270157   4.505   4.274  16.551 -0.6719 -1.0181  0.9328
16248TIP3   OH270158   5.863   3.298   1.388  0.5189  0.0671 -0.5130
16248TIP3    H170159   5.817   3.382   1.390  1.0051  0.3155  0.2027
16248TIP3    H270160   5.838   3.255   1.470  1.2729  0.0477 -0.2935
16249TIP3   OH270161   1.889   0.277   4.907  0.3933  0.1400  0.4032
16249TIP3    H170162   1.845   0.253   4.826  2.5129  1.0603 -1.0760
16249TIP3    H270163   1.983   0.274   4.886  1.0048 -0.0901  2.9502
16250TIP3   OH270164   3.848   3.213  13.077 -0.4460  0.3301 -0.3094
16250TIP3    H170165   3.842   3.308  13.060  1.0507  0.5592  0.3458
16250TIP3    H270166   3.923   3.185  13.025 -0.6080 -0.4156 -0.1361
16251TIP3   OH270167   6.693   1.080   1.243  0.1726 -0.7266  0.0717
16251TIP3    H170168   6.651   1.029   1.174 -2.7403 -1.7551  2.5108
16251TIP3    H270169   6.772   1.031   1.264 -0.0339 -1.5408 -1.0032
16252TIP3   OH270170   0.854   4.960   1.090  0.5819  0.5908 -0.1496
16252TIP3    H170171   0.838   4.938   0.998  1.0348  0.6069 -0.2371
16252TIP3    H270172   0.884   5.051   1.088 -2.5573  1.6998  0.3427
16253TIP3   OH270173   0.249   1.489   0.243  0.1694  0.7309  0.1816
16253TIP3    H170174   0.242   1.565   0.301  0.0338  0.8475  0.0134
16253TIP3    H270175   0.267   1.527   0.157  0.7893  0.5357  0.2254
16254TIP3   OH270176   0.044   4.352   0.450  0.5961 -0.3904 -0.1222
16254TIP3    H170177  -0.043   4.342   0.410  0.5986 -0.4447 -0.1142
16254TIP3    H270178   0.034   4.423   0.513  0.2613 -1.1388  0.6908
16255TIP3   OH270179   2.853   3.563  17.063  0.2038 -0.1241 -0.1351
16255TIP3    H170180   2.854   3.477  17.104  0.3261 -0.2547 -0.4162
16255TIP3    H270181   2.912   3.556  16.988  1.3526  0.6251  0.6813
16256TIP3   OH270182   3.222   1.267   5.349  0.3815  0.4676 -0.3850
16256TIP3    H170183   3.292   1.243   5.288 -0.7613 -0.9482 -1.1922
16256TIP3    H270184   3.244   1.220   5.430  0.6080  0.3834 -0.4944
16257TIP3   OH270185   6.569   4.086   2.669 -0.3181  0.4770  0.3680
16257TIP3    H170186   6.565   4.027   2.745 -0.0273  1.7360  1.3630
16257TIP3    H270187   6.653   4.131   2.678 -0.2614  0.5973 -0.7298
16258TIP3   OH270188   2.250   5.855  11.885 -0.0206 -0.1404 -0.1073
16258TIP3    H170189   2.343   5.869  11.868 -0.1417 -1.1577 -1.6557
16258TIP3    H270190   2.206   5.886  11.806 -0.9835  0.0404  0.4881
16259TIP3   OH270191   2.577   3.548   5.264  0.0926  0.5844 -0.0077
16259TIP3    H170192   2.535   3.607   5.202 -1.0849 -0.8537 -0.5912
16259TIP3    H270193   2.662   3.590   5.282 -0.4005  2.0628 -0.9739
16260TIP3   OH270194   3.418   6.283   2.344  0.3612  0.1498  0.0772
16260TIP3    H170195   3.389   6.365   2.384  3.4412  0.9995  0.6604
16260TIP3    H270196   3.389   6.215   2.405 -0.6271  0.9159  0.4760
16261TIP3   OH270197   3.451   4.368   5.294 -0.4662  0.6630  0.3649
16261TIP3    H170198   3.479   4.353   5.204 -0.0024 -0.1272  0.6304
16261TIP3    H270199   3.357   4.383   5.288 -0.2977  1.4515 -0.3425
16262TIP3   OH270200   0.830   4.279  12.531  0.2213 -0.3255  0.7822
16262TIP3    H170201   0.807   4.327  12.611 -0.1485 -0.1110  0.5501
16262TIP3    H270202   0.749   4.279  12.480  1.1747  2.0219 -0.8422
16263TIP3   OH270203   6.436   1.349  16.323  0.9449  0.1563 -0.7642
16263TIP3    H170204   6.478   1.362  16.238  0.9796 -0.8006 -0.9030
16263TIP3    H270205   6.372   1.280  16.307 -0.1388  1.0690 -0.3736
16264TIP3   OH270206   0.539   6.203   4.330 -0.1906 -0.1975  0.0357
16264TIP3    H170207   0.469   6.252   4.372 -1.2466 -2.3317  0.8394
16264TIP3    H270208   0.555   6.129   4.388  2.7881  0.2541 -0.1121
16265TIP3   OH270209   2.140   6.241   2.748  0.3620  0.1412  0.3409
16265TIP3    H170210   2.092   6.279   2.674  1.1704  0.8659  0.1773
16265TIP3    H270211   2.084   6.169   2.778 -0.2937  0.2627 -0.5471
16266TIP3   OH270212   5.473   5.291   5.057 -0.2414  0.1888  0.0305
16266TIP3    H170213   5.473   5.386   5.059  2.1127  0.1824  0.9594
16266TIP3    H270214   5.448   5.265   5.146  1.1081 -0.0495  0.3491
16267TIP3   OH270215   1.315   4.316   2.716  0.4566 -0.2189  0.6366
16267TIP3    H170216   1.306   4.379   2.644 -1.1733 -0.6699  0.4231
16267TIP3    H270217   1.345   4.235   2.674  0.2862 -0.2484  0.5693
16268TIP3   OH270218   1.567   5.743   3.165  0.5308  0.1981 -0.5293
16268TIP3    H170219   1.483   5.730   3.209  1.7437 -0.6889  1.6347
16268TIP3    H270220   1.619   5.667   3.191  2.7626  1.8658  0.0115
16269TIP3   OH270221   0.840   4.258   5.095 -0.4220 -0.2467 -0.0494
16269TIP3    H170222   0.819   4.330   5.155 -1.0594  0.4395 -1.0855
16269TIP3    H270223   0.774   4.264   5.026  0.7937 -0.5294 -1.2481
16270TIP3   OH270224   1.815   6.281  13.280  0.3935  0.4060 -0.0480
16270TIP3    H170225   1.880   6.262  13.213  0.1331  1.6039 -0.6514
16270TIP3    H270226   1.810   6.376  13.282 -0.4651  0.3446  0.8418
16271TIP3   OH270227   6.204   3.971  13.879 -0.4554 -0.0590 -0.3015
16271TIP3    H170228   6.154   3.918  13.941  1.6400 -0.9306  0.6777
16271TIP3    H270229   6.292   3.932  13.879  1.2065  3.5368  0.5746
16272TIP3   OH270230   5.304   6.296  14.829  0.2586 -0.1314 -0.5991
16272TIP3    H170231   5.363   6.370  14.816  1.1929 -0.7722 -0.0828
16272TIP3    H270232   5.339   6.227  14.773  0.0587 -0.5528 -0.2094
16273TIP3   OH270233   3.839   2.657  15.623 -0.2277  1.0130 -0.5354
16273TIP3    H170234   3.814   2.744  15.592  1.0443  1.0136 -1.6079
16273TIP3    H270235   3.914   2.673  15.681 -2.1022  0.9364  2.0072
16274TIP3   OH270236   2.290   5.084   1.104  0.2176 -0.2621  0.2174
16274TIP3    H170237   2.261   5.038   1.183  0.2956 -0.4030  0.1641
16274TIP3    H270238   2.335   5.017   1.052  0.0458 -0.2022 -0.0106
16275TIP3   OH270239   1.741   6.243  14.215  0.2021  0.0234  0.3993
16275TIP3    H170240   1.678   6.266  14.147  0.9858  1.7922  0.2548
16275TIP3    H270241   1.688   6.229  14.293 -0.3008  2.4210  0.5090
16276TIP3   OH270242   0.880   0.462  13.490  0.7215  0.0967  0.0922
16276TIP3    H170243   0.861   0.420  13.406  3.4496 -1.4413  0.1907
16276TIP3    H270244   0.920   0.546  13.466  1.5396 -0.3604 -0.1730
16277TIP3   OH270245   3.412   0.033  15.213 -0.2482 -0.3592 -0.1917
16277TIP3    H170246   3.435   0.087  15.288  2.3725 -1.2255 -0.3186
16277TIP3    H270247   3.407   0.095  15.140 -0.0035  0.1103  0.1841
16278TIP3   OH270248   6.246   2.712   3.823  0.2224  0.1887  0.1839
16278TIP3    H170249   6.174   2.649   3.835  1.3329 -0.7888  2.1217
16278TIP3    H270250   6.232   2.776   3.892  0.7887  0.4053  0.0927
16279TIP3   OH270251   0.423   2.127  15.795 -0.1460 -0.2500  0.5156
16279TIP3    H170252   0.339   2.083  15.781 -0.1072  0.3222 -1.7949
16279TIP3    H270253   0.411   2.215  15.759  1.6678 -0.4384 -0.6667
16280TIP3   OH270254   4.255   6.061   3.712  0.6222 -0.3742  0.5857
16280TIP3    H170255   4.230   6.068   3.805  2.0931  1.6177  0.8627
16280TIP3    H270256   4.309   6.138   3.696 -1.0727  0.2835 -2.4129
16281TIP3   OH270257   0.766   5.290   3.604 -0.3097  0.0756 -0.2390
16281TIP3    H170258   0.690   5.238   3.578 -0.5434  0.3921 -0.2025
16281TIP3    H270259   0.774   5.274   3.698 -0.1702 -0.1677 -0.2937
16282TIP3   OH270260   5.685   3.250  16.517  0.0134  0.0533 -0.5954
16282TIP3    H170261   5.742   3.325  16.534 -1.6911  1.5473 -1.2362
16282TIP3    H270262   5.710   3.219  16.431  0.4000  0.1925 -0.5329
16283TIP3   OH270263   4.728   3.811  12.217 -0.2546  0.4451 -0.8489
16283TIP3    H170264   4.693   3.869  12.284  1.3027 -0.4066  0.7260
16283TIP3    H270265   4.819   3.839  12.205  0.5464 -1.7031  0.0097
16284TIP3   OH270266   3.731   6.157  12.212  0.9617 -0.1540 -0.7766
16284TIP3    H170267   3.651   6.191  12.252 -0.0482 -1.4916 -1.6174
16284TIP3    H270268   3.766   6.231  12.162 -0.5807  0.0105 -1.6268
16285TIP3   OH270269   2.132   0.215   2.549  0.3288  0.0965  0.4630
16285TIP3    H170270   2.211   0.187   2.502  0.7854 -0.5333  1.5880
16285TIP3    H270271   2.090   0.277   2.490  0.1090 -1.7908 -1.4579
16286TIP3   OH270272   2.960   2.639   2.689 -0.1634  1.0846 -0.1278
16286TIP3    H170273   2.922   2.713   2.641 -2.1149  0.9244  1.1571
16286TIP3    H270274   2.973   2.672   2.778 -1.4189 -0.2281  0.5599
16287TIP3   OH270275   1.459   2.048  12.640  0.5638  0.0728  0.5918
16287TIP3    H170276   1.426   2.073  12.554  0.1860  0.0958  0.7441
16287TIP3    H270277   1.393   1.987  12.675  0.9423 -0.2940  0.6750
16288TIP3   OH270278   1.482   5.449  14.318 -0.0842 -0.1044 -0.4564
16288TIP3    H170279   1.400   5.410  14.287 -0.8038  1.3761 -0.5098
16288TIP3    H270280   1.509   5.506  14.246 -0.5908  1.6796  0.7342
16289TIP3   OH270281   4.060   2.512  15.709 -0.5978  0.3660  0.5063
16289TIP3    H170282   3.984   2.459  15.686  1.1016 -2.2019  0.7243
16289TIP3    H270283   4.087   2.480  15.795 -0.1615  2.3020  1.1290
16290TIP3   OH270284   3.843   2.293  14.856 -0.3071 -0.9500  0.3817
16290TIP3    H170285   3.915   2.355  14.863 -1.2776  0.1387  0.8452
16290TIP3    H270286   3.880   2.218  14.808  1.0420 -0.2967  0.3853
16291TIP3   OH270287   3.853   5.486  12.989  0.3327  0.6222  0.4772
16291TIP3    H170288   3.853   5.494  12.893 -0.8074  0.4338  0.4622
16291TIP3    H270289   3.824   5.396  13.005  0.0616  0.8089  1.0184
16292TIP3   OH270290   4.929   0.767  14.610  0.0916 -1.0592  0.2765
16292TIP3    H170291   4.909   0.781  14.517  0.2459  1.6472  0.6283
16292TIP3    H270292   4.940   0.854  14.646 -0.4226 -2.0553  2.9756
16293TIP3   OH270293   4.143   2.128   1.959 -0.4672 -0.1886  0.4759
16293TIP3    H170294   4.189   2.044   1.958 -0.6019 -0.2619  0.3566
16293TIP3    H270295   4.080   2.120   2.030 -0.6511 -0.2814  0.3030
16294TIP3   OH270296   0.631   5.698  12.332 -0.3195 -0.6007  0.1864
16294TIP3    H170297   0.663   5.715  12.421  0.4443 -0.5996 -0.0848
16294TIP3    H270298   0.549   5.650  12.345 -0.0620 -0.8588  0.8868
16295TIP3   OH270299   3.160   1.958  14.616 -0.3605 -0.1756  0.0244
16295TIP3    H170300   3.095   1.974  14.685  0.3812  0.5741  0.5592
16295TIP3    H270301   3.136   1.872  14.581 -0.8946 -0.4621  1.0478
16296TIP3   OH270302   2.700   2.084   6.696  0.1337  0.0344 -0.1332
16296TIP3    H170303   2.654   2.088   6.780 -1.7489  0.5861 -1.1692
16296TIP3    H270304   2.630   2.080   6.631  1.5541  1.4914 -1.7773
16297TIP3   OH270305   1.746   3.640   5.128  0.0313  0.1535 -0.1219
16297TIP3    H170306   1.671   3.591   5.162 -1.6197  1.6409 -1.4793
16297TIP3    H270307   1.786   3.582   5.064 -0.8144 -0.1620 -0.3777
16298TIP3   OH270308   4.600   1.214   5.103 -0.3651 -0.6862 -0.0546
16298TIP3    H170309   4.568   1.125   5.085 -0.6055 -0.5394 -0.3551
16298TIP3    H270310   4.526   1.271   5.082 -0.6174 -0.4994  1.3114
16299TIP3   OH270311   1.181   2.351   3.384  0.3048  0.1297  0.0021
16299TIP3    H170312   1.105   2.301   3.414  0.4717 -0.2786 -0.2396
16299TIP3    H270313   1.256   2.297   3.409  0.5314  0.6708  0.5033
16300TIP3   OH270314   6.127   2.875  14.129  0.7108 -0.5388  0.0530
16300TIP3    H170315   6.040   2.879  14.170  0.6095 -1.7320 -0.0095
16300TIP3    H270316   6.160   2.965  14.132  0.1368 -0.3717  1.5091
16301TIP3   OH270317   6.201   5.348  12.672 -0.0240 -0.5566 -0.3758
16301TIP3    H170318   6.117   5.320  12.637  0.1642 -0.9927 -0.4829
16301TIP3    H270319   6.189   5.348  12.767 -0.1175 -0.7135 -0.3877
16302TIP3   OH270320   3.864   3.164  11.091 -0.2017  0.4933 -0.0194
16302TIP3    H170321   3.814   3.150  11.011 -1.4006  1.1969  0.5926
16302TIP3    H270322   3.834   3.094  11.150  0.8548 -0.1719 -0.2632
16303TIP3   OH270323   4.245   4.405  16.397 -0.0389  0.1703 -0.1940
16303TIP3    H170324   4.176   4.340  16.385  0.9005 -0.9056  0.0910
16303TIP3    H270325   4.296   4.372  16.472  1.7621  0.0500 -1.4356
16304TIP3   OH270326   0.408   1.561  14.468  0.0312  0.1572 -0.1416
16304TIP3    H170327   0.421   1.468  14.447 -0.9458 -0.1666  0.6657
16304TIP3    H270328   0.463   1.576  14.544 -0.4940  0.0163  0.2674
16305TIP3   OH270329   1.794   5.665  15.749  0.4286 -0.9505 -0.3192
16305TIP3    H170330   1.869   5.630  15.796  0.0896 -1.5114 -0.1965
16305TIP3    H270331   1.723   5.605  15.769  0.1493 -0.8927 -1.1050
16306TIP3   OH270332   0.462   4.420  11.262 -0.3280 -0.0460  0.2044
16306TIP3    H170333   0.510   4.460  11.335 -0.3642 -1.1248  0.8394
16306TIP3    H270334   0.452   4.329  11.289 -1.4340 -0.1595 -0.6035
16307TIP3   OH270335   6.541   1.780  15.197  0.3839  0.1412  0.7277
16307TIP3    H170336   6.560   1.787  15.103 -0.8757  0.7725  0.5066
16307TIP3    H270337   6.625   1.756  15.237  1.1075  0.6215 -0.4704
16308TIP3   OH270338   4.969   3.518   5.649 -0.0486  0.4280  0.4250
16308TIP3    H170339   4.959   3.479   5.562 -2.1274  1.3929  0.2253
16308TIP3    H270340   5.029   3.459   5.694 -0.9048 -1.4521 -0.8311
16309TIP3   OH270341   6.623   0.401   5.697  0.4946 -0.3133 -0.2815
16309TIP3    H170342   6.600   0.477   5.643  0.8133 -0.7185 -0.9985
16309TIP3    H270343   6.597   0.326   5.644  2.1972 -0.7478 -0.5332
16310TIP3   OH270344   4.181   4.836   5.428 -0.0192  0.3660  0.0531
16310TIP3    H170345   4.122   4.853   5.355  0.0381 -1.9913 -0.5911
16310TIP3    H270346   4.250   4.902   5.420 -1.2967  1.6444 -0.5737
16311TIP3   OH270347   6.578   1.872  16.529  0.5618  0.3675  0.2588
16311TIP3    H170348   6.613   1.788  16.498  0.3525  0.8821 -1.4194
16311TIP3    H270349   6.649   1.909  16.583  0.9548 -0.5251  0.3627
16312TIP3   OH270350   5.391   4.896   2.748 -0.1923  0.5808 -0.2443
16312TIP3    H170351   5.298   4.916   2.739 -0.5081 -0.8109 -0.1042
16312TIP3    H270352   5.402   4.871   2.839 -0.2782 -2.1655 -0.9301
16313TIP3   OH270353   0.649   0.979  17.150 -0.2511 -0.1713  0.4934
16313TIP3    H170354   0.630   1.069  17.178 -2.9090 -1.3647  2.7394
16313TIP3    H270355   0.706   0.945  17.219  4.5825  1.1094 -2.6218
16314TIP3   OH270356   5.596   1.241  12.870  0.2126 -0.3789  0.4808
16314TIP3    H170357   5.567   1.316  12.923 -0.1627 -0.4987  0.4458
16314TIP3    H270358   5.621   1.175  12.934  3.5308  0.8854  0.5662
16315TIP3   OH270359   3.295   3.735   6.549  0.5185 -0.0563  0.3279
16315TIP3    H170360   3.269   3.662   6.606 -1.8030  1.9050  1.9317
16315TIP3    H270361   3.220   3.747   6.490  1.5457  0.0154 -0.9664
16316TIP3   OH270362   5.644   1.332   2.675 -0.5799 -0.3636  0.1288
16316TIP3    H170363   5.650   1.427   2.687 -1.4634 -0.1807 -0.8393
16316TIP3    H270364   5.649   1.296   2.764  0.1490  0.5647  0.4657
16317TIP3   OH270365   1.350   1.232  16.236  0.4345  0.6228  0.2247
16317TIP3    H170366   1.411   1.247  16.307 -0.1116  0.5926  0.7070
16317TIP3    H270367   1.374   1.296  16.169  1.6736 -0.1158 -0.0409
16318TIP3   OH270368   5.017   5.082   1.136  0.3512  0.2708 -0.0108
16318TIP3    H170369   4.948   5.096   1.200  1.3657  0.1160  1.1285
16318TIP3    H270370   5.091   5.134   1.168  1.0331 -0.2201 -0.7704
16319TIP3   OH270371   2.917   4.668  14.806 -0.0323 -0.0429  0.1950
16319TIP3    H170372   3.003   4.639  14.776 -0.1717  0.4104 -0.6465
16319TIP3    H270373   2.866   4.680  14.726 -1.4741 -2.1216  0.7585
16320TIP3   OH270374   2.729   2.542   5.203 -0.3244  0.0569  0.3690
16320TIP3    H170375   2.765   2.486   5.271 -0.4038  0.2359  0.5608
16320TIP3    H270376   2.663   2.488   5.159 -0.5618  0.0740  0.7009
16321TIP3   OH270377   1.386   1.925   3.643 -0.1326 -0.7646  0.0844
16321TIP3    H170378   1.417   2.016   3.650  0.1176 -0.7689 -0.9908
16321TIP3    H270379   1.460   1.877   3.607 -0.5297 -1.2541 -0.0785
16322TIP3   OH270380   6.455   0.122  15.657 -0.0697  0.7206  0.1916
16322TIP3    H170381   6.421   0.211  15.666  2.4354  1.7784 -0.6507
16322TIP3    H270382   6.550   0.130  15.665  0.1935 -1.9239  0.4132
16323TIP3   OH270383   5.278   1.113   3.707  0.6939 -0.2853 -0.2547
16323TIP3    H170384   5.268   1.043   3.642 -0.5289  0.8940 -1.3481
16323TIP3    H270385   5.223   1.184   3.675  1.1426  0.8215  1.3761
16324TIP3   OH270386   1.098   0.976  14.580  0.3009 -0.1675  0.2683
16324TIP3    H170387   1.149   0.913  14.530 -0.7249  0.7342 -1.9667
16324TIP3    H270388   1.120   1.061  14.542 -1.4497  0.4140  0.5059
16325TIP3   OH270389   1.309   0.958  16.523  0.3172  0.1756 -0.2392
16325TIP3    H170390   1.358   0.963  16.442  1.2764  3.4628  0.4920
16325TIP3    H270391   1.359   0.897  16.578  0.3476 -1.0489 -1.5994
16326TIP3   OH270392   0.348   2.157   2.937  0.4528 -0.4281  0.6727
16326TIP3    H170393   0.415   2.223   2.957  0.5711 -0.0512 -0.8710
16326TIP3    H270394   0.273   2.183   2.991  0.5199  0.9568  0.1323
16327TIP3   OH270395   6.678   0.578  15.943  0.0594 -0.2906  0.0031
16327TIP3    H170396   6.722   0.591  16.027 -0.2565 -2.5005  0.5389
16327TIP3    H270397   6.586   0.563  15.965 -0.7111  2.6306 -1.0073
16328TIP3   OH270398   5.330   1.369  13.138 -0.3473 -0.2529 -0.3369
16328TIP3    H170399   5.313   1.427  13.064  1.4577 -1.0810 -1.4291
16328TIP3    H270400   5.392   1.418  13.193 -1.2031  0.1024  0.3290
16329TIP3   OH270401   1.376   3.705   4.973 -0.1349 -0.6788 -0.2621
16329TIP3    H170402   1.333   3.636   5.024 -1.0728 -0.3134 -0.5540
16329TIP3    H270403   1.456   3.664   4.940  0.8113 -0.7297  2.0313
16330TIP3   OH270404   4.807   3.076   3.111 -0.1103 -1.1228  0.1494
16330TIP3    H170405   4.884   3.020   3.117 -1.5039 -3.1061 -0.0457
16330TIP3    H270406   4.786   3.079   3.017  0.2194  0.0830  0.1121
16331TIP3   OH270407   1.464   1.910  16.974  0.1274  0.1483  0.2181
16331TIP3    H170408   1.533   1.906  16.908 -0.3544 -0.7465 -0.2405
16331TIP3    H270409   1.507   1.881  17.055  0.9586  2.1535  0.5154
16332TIP3   OH270410   2.895   5.916   2.556 -0.3021  0.4623  0.2766
16332TIP3    H170411   2.890   5.984   2.624 -1.9502  0.1784  0.4691
16332TIP3    H270412   2.850   5.954   2.481  0.1686  0.1867 -0.1460
16333TIP3   OH270413   3.493   3.926   3.165  0.5398 -0.1934 -0.5278
16333TIP3    H170414   3.465   3.882   3.245 -2.3981  0.4662 -1.1369
16333TIP3    H270415   3.505   4.017   3.190  2.0267 -0.4267 -0.3251
16334TIP3   OH270416   2.545   5.595   4.019 -0.0051  0.7660 -0.5683
16334TIP3    H170417   2.527   5.667   4.079 -0.2929  0.7940 -0.6899
16334TIP3    H270418   2.463   5.547   4.013  0.5291 -0.3316  0.5222
16335TIP3   OH270419   1.182   5.281   1.259  0.2971 -0.4847  0.1049
16335TIP3    H170420   1.219   5.221   1.323 -0.0532 -0.7176  0.0886
16335TIP3    H270421   1.130   5.225   1.201  0.4715 -0.2536 -0.2782
16336TIP3   OH270422   5.084   5.936   0.986  0.0004  0.1404 -0.1162
16336TIP3    H170423   5.143   5.872   1.025 -0.7291  0.0096  0.7945
16336TIP3    H270424   5.027   5.964   1.058 -0.0227  1.4357 -0.6208
16337TIP3   OH270425   0.543   0.194  13.193  0.2350 -0.0550 -0.5635
16337TIP3    H170426   0.544   0.289  13.184 -1.0412 -0.0622 -0.9472
16337TIP3    H270427   0.602   0.176  13.267  0.5666  1.0187 -0.5601
16338TIP3   OH270428   3.749   5.700   6.512  0.1011 -0.2714 -0.5449
16338TIP3    H170429   3.671   5.721   6.461  0.6052 -2.9654 -2.5397
16338TIP3    H270430   3.760   5.605   6.503  1.7081 -0.4562  2.4883
16339TIP3   OH270431   2.591   5.434   1.119 -0.3258 -0.0198  0.0684
16339TIP3    H170432   2.672   5.388   1.095 -2.2026 -3.3284 -0.1701
16339TIP3    H270433   2.541   5.439   1.037 -1.3347  0.0329  0.6841
16340TIP3   OH270434   6.770   1.459   6.414 -0.4887 -0.2661 -0.5222
16340TIP3    H170435   6.784   1.433   6.323 -1.5127 -1.0601 -0.4680
16340TIP3    H270436   6.711   1.535   6.407  0.5306  0.5367 -0.5699
16341TIP3   OH270437   0.165   5.904  13.680  0.3398 -0.2030 -0.1226
16341TIP3    H170438   0.159   5.908  13.584 -2.4251 -1.8687 -0.0852
16341TIP3    H270439   0.256   5.879  13.698  0.2927 -2.1444 -2.4155
16342TIP3   OH270440   3.276   4.903   3.978  0.2382 -0.3099 -0.2021
16342TIP3    H170441   3.289   4.998   3.982 -1.5429 -0.0405 -0.7160
16342TIP3    H270442   3.358   4.870   3.940  1.4204  0.8718  1.2334
16343TIP3   OH270443   0.047   3.546   1.713 -0.4059  0.4831  0.0728
16343TIP3    H170444   0.046   3.640   1.697 -0.8020  0.4426 -0.1537
16343TIP3    H270445  -0.034   3.530   1.761 -1.2189 -0.0053 -1.4248
16344TIP3   OH270446   3.280   4.006   3.423 -0.2262 -0.0841  0.1604
16344TIP3    H170447   3.295   4.071   3.353  0.2414  0.8016  1.0647
16344TIP3    H270448   3.208   4.042   3.474 -0.8842 -0.9675 -0.1276
16345TIP3   OH270449   0.735   3.322   4.214  0.3938  0.4406  0.1702
16345TIP3    H170450   0.687   3.362   4.286 -0.5319  0.3044 -0.3615
16345TIP3    H270451   0.819   3.297   4.252  0.2206  1.0952  0.9968
16346TIP3   OH270452   5.770   2.091  15.296  0.3079  0.1105 -0.3037
16346TIP3    H170453   5.857   2.092  15.337 -0.0019 -2.0942  0.4952
16346TIP3    H270454   5.722   2.161  15.340  1.2408  0.4164  0.2624
16347TIP3   OH270455   2.192   5.175  16.320 -0.0699 -0.0187 -0.3357
16347TIP3    H170456   2.280   5.213  16.327 -0.7939  1.7338 -0.5170
16347TIP3    H270457   2.156   5.211  16.239 -1.0526 -0.5612 -0.1522
16348TIP3   OH270458   4.026   6.510   3.321 -0.2771  0.0988  0.3655
16348TIP3    H170459   4.065   6.473   3.400  0.0000 -0.9716 -0.2735
16348TIP3    H270460   4.100   6.547   3.273 -0.3958  0.4151  0.4253
16349TIP3   OH270461   0.618   4.888  11.639 -0.1830 -0.1853 -0.0713
16349TIP3    H170462   0.701   4.840  11.635  0.7132  1.1734  1.3155
16349TIP3    H270463   0.557   4.827  11.681  0.5293 -0.6473  0.3113
16350TIP3   OH270464   2.992   1.181  12.891  0.5037 -0.8366  0.4230
16350TIP3    H170465   2.956   1.092  12.888 -0.8187 -0.2748 -1.0802
16350TIP3    H270466   3.040   1.191  12.809 -0.6587  0.3428 -0.1392
16351TIP3   OH270467   6.409   0.413   4.242 -0.3999  0.0846  0.1443
16351TIP3    H170468   6.332   0.465   4.262 -0.2106 -0.3671  2.1007
16351TIP3    H270469   6.480   0.477   4.232 -0.7125  0.3814 -0.1917
16352TIP3   OH270470   4.428   4.973   0.282 -0.4752 -0.0228  0.5060
16352TIP3    H170471   4.356   4.930   0.235 -1.6859  2.3038  0.1773
16352TIP3    H270472   4.442   4.917   0.359 -2.2712 -0.8299  0.2856
16353TIP3   OH270473   5.507   3.269  17.095  0.0013 -0.1756  0.1441
16353TIP3    H170474   5.582   3.303  17.145 -1.3960  2.9845  0.2131
16353TIP3    H270475   5.517   3.308  17.008 -1.2216 -0.2895 -0.0439
16354TIP3   OH270476   0.614   5.899   5.103 -0.6227  0.0612  0.3468
16354TIP3    H170477   0.559   5.976   5.115  0.3047  0.5632  1.3497
16354TIP3    H270478   0.586   5.839   5.172 -0.3505  0.0600  0.4553
16355TIP3   OH270479   2.817   4.982  11.054 -1.0741  0.2747 -0.0688
16355TIP3    H170480   2.844   4.940  10.972 -0.6299 -0.6785  0.5609
16355TIP3    H270481   2.817   5.076  11.034  0.2951  0.1291 -0.7835
16356TIP3   OH270482   5.087   6.076   2.573  0.2454  0.0048  0.2718
16356TIP3    H170483   5.160   6.112   2.523  1.0756 -1.0598  0.6830
16356TIP3    H270484   5.077   5.987   2.539 -1.0716  0.2589 -0.0043
16357TIP3   OH270485   0.355   0.984   6.244 -0.1825  0.6742 -0.4689
16357TIP3    H170486   0.262   0.973   6.263 -0.0961  0.4997 -0.1367
16357TIP3    H270487   0.385   1.047   6.309  0.0545  0.2920 -0.2035
16358TIP3   OH270488   6.216   5.200  13.581  0.2442  0.4587 -0.1398
16358TIP3    H170489   6.285   5.183  13.645 -0.4651  0.2724  0.5857
16358TIP3    H270490   6.149   5.133  13.600 -0.4536  1.0844 -0.3697
16359TIP3   OH270491   5.772   1.764   0.854  0.0595  0.1273 -0.2667
16359TIP3    H170492   5.732   1.834   0.906 -0.3828 -0.3909  0.0960
16359TIP3    H270493   5.739   1.777   0.765 -2.6806 -1.5840  0.4351
16360TIP3   OH270494   3.569   1.986   1.703 -0.1869  0.2156 -0.3216
16360TIP3    H170495   3.636   2.055   1.698 -1.0145  0.8487 -3.4432
16360TIP3    H270496   3.616   1.905   1.681  0.0715  0.2952 -0.0608
16361TIP3   OH270497   5.965   5.133  14.034  0.3165 -0.3626  0.4438
16361TIP3    H170498   6.032   5.153  13.969  0.7555 -1.9637  0.3833
16361TIP3    H270499   5.897   5.087  13.986  0.3816 -1.0432  0.9882
16362TIP3   OH270500   5.975   1.429  13.770 -0.2840 -0.3258 -0.5482
16362TIP3    H170501   5.882   1.434  13.791 -0.8603 -1.4388 -2.6806
16362TIP3    H270502   5.988   1.338  13.742  1.5757 -0.3405  0.2978
16363TIP3   OH270503   4.069   0.103  15.431  0.2088 -0.0738  0.1751
16363TIP3    H170504   4.095   0.175  15.374 -0.5032  1.3259  1.5454
16363TIP3    H270505   3.975   0.095  15.418  0.0149  0.3444  1.2007
16364TIP3   OH270506   2.681   0.923  13.427  0.1498  0.8145 -0.1842
16364TIP3    H170507   2.688   0.938  13.521  0.7474 -0.0974 -0.0810
16364TIP3    H270508   2.606   0.864  13.418  0.3725  0.5427 -0.2446
16365TIP3   OH270509   3.030   5.458  14.056  0.3226 -0.3510  0.2183
16365TIP3    H170510   3.088   5.387  14.084  1.1536  0.8281  1.5553
16365TIP3    H270511   2.943   5.431  14.084  0.6246 -0.8883  0.6450
16366TIP3   OH270512   1.311   2.528   2.479 -0.0194  0.0911 -0.3087
16366TIP3    H170513   1.364   2.494   2.551 -0.4555 -0.0129 -0.0355
16366TIP3    H270514   1.264   2.452   2.445 -0.6633  0.3368  0.0231
16367TIP3   OH270515   2.471   3.473  14.387 -0.1535  0.6241 -0.2129
16367TIP3    H170516   2.563   3.476  14.414 -1.0648  0.4127  3.0565
16367TIP3    H270517   2.441   3.564  14.391 -0.2936  0.5956 -0.5601
16368TIP3   OH270518   5.377   0.628  14.782 -0.1840 -0.3997 -0.0981
16368TIP3    H170519   5.395   0.647  14.874 -1.5794  0.7780 -0.0445
16368TIP3    H270520   5.407   0.705  14.735  1.1168 -1.2660 -0.7137
16369TIP3   OH270521   5.682   0.651  13.573 -0.4227  0.2473 -0.1795
16369TIP3    H170522   5.684   0.733  13.524 -1.9653  0.5730  0.2885
16369TIP3    H270523   5.683   0.677  13.665  1.2323 -0.3341 -0.0107
16370TIP3   OH270524   4.585   0.132  16.482  0.1842  0.2296  0.2877
16370TIP3    H170525   4.560   0.121  16.573 -1.7230  0.1832 -0.2233
16370TIP3    H270526   4.657   0.195  16.484  1.0441 -0.7909  1.9201
16371TIP3   OH270527   2.363   3.935   5.652  0.0785  0.1149 -0.3771
16371TIP3    H170528   2.391   4.019   5.615 -0.6373  0.3287 -0.4373
16371TIP3    H270529   2.267   3.941   5.655 -0.1557 -1.6823 -2.7374
16372TIP3   OH270530   1.142   5.992  15.997  0.3355  0.1836  0.3872
16372TIP3    H170531   1.048   5.976  16.008  0.2319  0.2244 -0.4214
16372TIP3    H270532   1.147   6.058  15.928  0.9692 -0.1261  0.1342
16373TIP3   OH270533   6.401   2.758  15.800  0.7161  0.1049  0.1658
16373TIP3    H170534   6.398   2.800  15.714 -1.0263 -0.6172 -0.1425
16373TIP3    H270535   6.484   2.787  15.838  1.6397  0.2373 -1.8618
16374TIP3   OH270536   5.134   5.739  13.012 -0.1432 -0.3486 -0.2409
16374TIP3    H170537   5.196   5.684  12.963  0.7216  1.5975 -1.3868
16374TIP3    H270538   5.147   5.827  12.977 -0.2852  0.9192  2.7373
16375TIP3   OH270539   5.426   4.068   4.089 -0.0213  0.9457  0.9029
16375TIP3    H170540   5.516   4.038   4.103  0.6309  1.8648 -1.1210
16375TIP3    H270541   5.435   4.159   4.061 -1.7486  1.8330  3.1392
16376TIP3   OH270542   4.841   3.606  15.637  0.3203  0.1927  0.4144
16376TIP3    H170543   4.786   3.546  15.687  0.3464  0.5277  0.8469
16376TIP3    H270544   4.905   3.550  15.594 -0.8399 -0.2814 -0.7137
16377TIP3   OH270545   1.182   3.358  11.000  0.2838 -0.3349 -0.2919
16377TIP3    H170546   1.100   3.392  10.964  0.6421  1.3161  0.4169
16377TIP3    H270547   1.164   3.265  11.018 -0.8843 -0.4052 -1.7206
16378TIP3   OH270548   2.113   5.322   3.845 -0.7626 -0.7746 -0.3209
16378TIP3    H170549   2.039   5.367   3.886 -0.9087 -1.2908 -0.0158
16378TIP3    H270550   2.118   5.360   3.757 -0.9774 -0.2669 -0.1168
16379TIP3   OH270551   3.337   6.736   2.794  0.4246 -0.2401 -0.3980
16379TIP3    H170552   3.295   6.733   2.880 -0.5470 -1.0820 -0.8858
16379TIP3    H270553   3.326   6.826   2.765 -0.0466 -0.1775 -0.0343
16380TIP3   OH270554   3.894   2.348   1.969  0.4634 -0.6291  0.5067
16380TIP3    H170555   3.872   2.352   2.061  1.6617  1.2346  0.7285
16380TIP3    H270556   3.852   2.424   1.930  0.4868 -1.0613 -0.3829
16381TIP3   OH270557   3.480   1.850   4.073  0.6854 -0.1442  0.9203
16381TIP3    H170558   3.534   1.915   4.118 -1.8332  0.7020  2.7897
16381TIP3    H270559   3.455   1.788   4.141 -0.2245 -0.8833 -0.0672
16382TIP3   OH270560   1.623   2.658  15.496 -0.3162  0.2470 -0.4505
16382TIP3    H170561   1.661   2.578  15.459 -0.9267  0.2228 -1.0256
16382TIP3    H270562   1.538   2.629  15.530 -0.9000  0.8376 -1.4149
16383TIP3   OH270563   0.506   6.056   1.934 -0.5676 -0.3061 -0.3418
16383TIP3    H170564   0.535   6.088   2.020 -1.4029  0.0755 -0.2046
16383TIP3    H270565   0.584   6.012   1.898  0.4375  1.3542 -0.2814
16384TIP3   OH270566   4.948   2.319  16.377 -0.0865  0.2364  0.2370
16384TIP3    H170567   5.037   2.355  16.383  0.1555 -0.6148  2.0240
16384TIP3    H270568   4.892   2.387  16.413 -0.1646  0.7496 -0.8366
16385TIP3   OH270569   5.321   1.208  12.254  0.4129 -0.0058  0.1098
16385TIP3    H170570   5.311   1.221  12.160  1.2699  0.0271  0.0186
16385TIP3    H270571   5.232   1.208  12.288  0.1195  0.3496 -0.6551
16386TIP3   OH270572   1.005   1.211   5.434 -1.0459  0.6391 -0.0092
16386TIP3    H170573   1.002   1.259   5.351  0.9645 -0.6133 -0.8289
16386TIP3    H270574   0.917   1.174   5.443 -0.9959 -0.0614 -2.0937
16387TIP3   OH270575   0.050   0.651  10.537  0.5233  0.3621 -0.3723
16387TIP3    H170576   0.032   0.579  10.476  0.2886  1.3166 -1.4547
16387TIP3    H270577  -0.032   0.662  10.586  0.5140 -0.0089 -0.3048
16388TIP3   OH270578   6.544   5.949  15.170  0.4375  0.0391  0.0106
16388TIP3    H170579   6.462   5.992  15.144  0.8955  0.3144 -1.0008
16388TIP3    H270580   6.600   5.955  15.092  1.2457 -0.5769  0.5376
16389TIP3   OH270581   5.326   2.952   4.713  0.2131  0.6946 -0.4861
16389TIP3    H170582   5.284   2.972   4.796  0.2735  1.4157 -0.6278
16389TIP3    H270583   5.389   2.883   4.734 -2.0937 -1.4779 -0.5682
16390TIP3   OH270584   5.470   3.801   3.721 -0.1398  0.2955 -0.1751
16390TIP3    H170585   5.424   3.878   3.755 -0.1590 -1.1506  3.3198
16390TIP3    H270586   5.403   3.752   3.674 -0.3952  1.8136 -1.4406
16391TIP3   OH270587   2.641   4.234  13.628  0.1443 -0.0236  0.8143
16391TIP3    H170588   2.684   4.152  13.652 -1.3778 -1.5915 -1.6236
16391TIP3    H270589   2.690   4.266  13.552 -0.5706  0.1970  0.4409
16392TIP3   OH270590   1.603   5.104  16.249  0.0577  0.2777  0.1170
16392TIP3    H170591   1.669   5.104  16.318  2.1086  0.3431 -1.7773
16392TIP3    H270592   1.653   5.102  16.168 -2.2971 -0.4775 -1.3853
16393TIP3   OH270593   6.125   3.881  16.640 -0.0003  0.5938  0.6824
16393TIP3    H170594   6.187   3.810  16.623  1.1898  0.7807  3.8892
16393TIP3    H270595   6.168   3.935  16.707 -2.5898  2.0755  1.2260
16394TIP3   OH270596   6.576   5.122  14.853  0.1446 -0.0697 -0.4467
16394TIP3    H170597   6.554   5.213  14.831  1.5376  0.0972 -1.2235
16394TIP3    H270598   6.600   5.125  14.945  0.3515  0.3923 -0.5110
16395TIP3   OH270599   6.696   5.811   6.149  0.0195 -0.3809 -0.2648
16395TIP3    H170600   6.615   5.825   6.198 -0.8869 -0.1290 -1.7928
16395TIP3    H270601   6.705   5.890   6.096  1.0549 -0.5876 -0.4010
16396TIP3   OH270602   0.408   0.359   0.687  0.4287  0.7428 -0.3474
16396TIP3    H170603   0.334   0.419   0.694 -1.3900 -1.5186  0.5392
16396TIP3    H270604   0.438   0.348   0.778  0.1997 -0.3233 -0.3961
16397TIP3   OH270605   1.468   4.789  13.138 -0.0117  0.4795 -0.2109
16397TIP3    H170606   1.387   4.758  13.099 -0.9031  2.2490  0.1806
16397TIP3    H270607   1.526   4.805  13.063  0.0448 -0.9092 -0.4770
16398TIP3   OH270608   6.482   3.374   1.417  0.5221  0.1676 -0.3327
16398TIP3    H170609   6.504   3.377   1.510 -2.3357  2.3934  0.3618
16398TIP3    H270610   6.388   3.354   1.415  0.7921 -1.0903 -2.8018
16399TIP3   OH270611   1.257   3.343   2.618 -0.0089 -0.1659  0.4196
16399TIP3    H170612   1.195   3.302   2.558 -0.7981 -0.8865  1.7217
16399TIP3    H270613   1.246   3.297   2.701  3.0962 -1.0839  0.3800
16400TIP3   OH270614   5.390   1.661   1.573 -0.3644 -0.3838  0.1477
16400TIP3    H170615   5.355   1.573   1.558  0.6238 -0.6435 -0.6520
16400TIP3    H270616   5.314   1.719   1.562 -0.7742 -1.0352 -0.4968
16401TIP3   OH270617   6.341   2.278   2.225  0.7897  0.5437 -0.4370
16401TIP3    H170618   6.369   2.294   2.135  0.1249 -0.1410 -0.7799
16401TIP3    H270619   6.257   2.324   2.233  0.3651 -0.2100 -0.4832
16402TIP3   OH270620   5.046   1.684  16.844  0.8561  0.8778 -0.1736
16402TIP3    H170621   4.975   1.679  16.779  1.2817 -1.9008 -0.4633
16402TIP3    H270622   5.126   1.687  16.792  1.1056  0.7246  0.1985
16403TIP3   OH270623   0.724   2.423  10.886  0.2437 -0.5005 -0.0774
16403TIP3    H170624   0.674   2.353  10.927  1.9913 -1.4726  0.4018
16403TIP3    H270625   0.801   2.380  10.849  0.2409  0.8301 -1.6853
16404TIP3   OH270626   2.795   4.821  17.199 -0.1774 -0.4170 -0.3251
16404TIP3    H170627   2.814   4.796  17.289 -1.3244  0.1100  0.0668
16404TIP3    H270628   2.728   4.889  17.206 -0.4369 -0.5319 -1.5860
16405TIP3   OH270629   3.004   5.034  14.684 -0.4241 -0.2183  0.5365
16405TIP3    H170630   3.076   4.998  14.736 -0.3572 -0.0860  0.5367
16405TIP3    H270631   2.925   5.002  14.727 -0.3765 -2.7612 -1.1439
16406TIP3   OH270632   6.621   6.480   5.773 -0.2612 -0.8417 -0.3781
16406TIP3    H170633   6.591   6.565   5.741 -1.7387 -1.2296 -0.0600
16406TIP3    H270634   6.666   6.440   5.699  0.6573  0.3183 -0.4496
16407TIP3   OH270635   3.143   3.917  10.132 -0.0055  0.2542  0.5883
16407TIP3    H170636   3.109   3.875  10.211 -0.6373  2.1367  1.3371
16407TIP3    H270637   3.171   4.004  10.160  1.6992  0.2032 -0.8582
16408TIP3   OH270638   5.384   1.164  14.228  0.3529  0.2526  0.3025
16408TIP3    H170639   5.463   1.126  14.266  0.4966  2.4316  2.3199
16408TIP3    H270640   5.408   1.185  14.138  1.0768 -1.8854 -0.0369
16409TIP3   OH270641   3.569   2.070  15.093 -0.4386  0.0777 -0.8511
16409TIP3    H170642   3.558   1.976  15.111  0.1761 -0.3034 -2.3531
16409TIP3    H270643   3.482   2.107  15.106 -0.5391 -0.5945  0.4155
16410TIP3   OH270644   6.382   3.998  12.162 -0.2248 -0.1628  0.5585
16410TIP3    H170645   6.398   3.949  12.081  0.8584  2.3285 -0.7873
16410TIP3    H270646   6.452   3.968  12.221 -0.4700 -1.3223  0.2807
16411TIP3   OH270647   0.454   3.917  12.879  0.1581  0.2833 -0.2378
16411TIP3    H170648   0.452   3.891  12.971  2.7358  1.2194  0.1161
16411TIP3    H270649   0.457   4.012  12.880 -0.1961  0.3212 -1.3298
16412TIP3   OH270650   1.382   0.084  12.888 -0.2513  0.3626  0.1321
16412TIP3    H170651   1.370   0.175  12.912  1.5434  0.7380 -0.3102
16412TIP3    H270652   1.333   0.074  12.806 -4.3613 -0.3130  2.5055
16413TIP3   OH270653   3.135   1.169  11.077 -0.0972 -0.5622  0.9031
16413TIP3    H170654   3.149   1.255  11.117 -1.3052  0.1732 -0.1869
16413TIP3    H270655   3.055   1.137  11.119  0.7593 -1.4937  1.8447
16414TIP3   OH270656   2.786   6.207  12.048  0.4702 -0.0487  0.1143
16414TIP3    H170657   2.760   6.238  12.134  0.1198 -1.4145  0.5210
16414TIP3    H270658   2.710   6.227  11.992  0.3920  0.1622  0.2974
16415TIP3   OH270659   3.459   5.511  17.010  0.7278 -0.9597 -0.5334
16415TIP3    H170660   3.417   5.502  17.095  0.4006  0.5902 -0.5110
16415TIP3    H270661   3.514   5.589  17.019  0.2891 -0.4803 -1.8967
16416TIP3   OH270662   2.935   4.367   2.159 -0.5578 -0.4429  0.0410
16416TIP3    H170663   2.959   4.282   2.196 -0.4112 -0.9644 -1.2360
16416TIP3    H270664   2.841   4.375   2.176 -0.4700 -0.6222  0.6258
16417TIP3   OH270665   2.275   2.808  13.491  0.4054  0.3993  0.8355
16417TIP3    H170666   2.337   2.801  13.419 -2.1197  2.3594 -1.6379
16417TIP3    H270667   2.306   2.883  13.542  1.0868  0.2407  0.6620
16418TIP3   OH270668   0.419   2.907   5.945  0.4239 -0.1072 -0.0569
16418TIP3    H170669   0.398   2.880   6.034 -1.5503  1.4384 -0.0155
16418TIP3    H270670   0.469   2.988   5.955  0.5390 -0.1426 -0.3460
16419TIP3   OH270671   0.383   0.949  14.972  0.0926 -0.2724  0.3648
16419TIP3    H170672   0.421   0.874  15.017  0.5191  1.1060  2.3621
16419TIP3    H270673   0.298   0.918  14.939  0.4807 -1.7439  0.7539
16420TIP3   OH270674   0.066   4.742  15.368  0.0549 -0.1080 -0.1247
16420TIP3    H170675   0.028   4.736  15.281  0.3191  0.0304 -0.2497
16420TIP3    H270676   0.154   4.705  15.359  1.0926  2.3352 -0.5274
16421TIP3   OH270677   2.348   3.612  17.028 -0.3347 -0.2323 -0.3231
16421TIP3    H170678   2.371   3.627  17.120 -0.6619  1.5914 -0.5163
16421TIP3    H270679   2.425   3.569  16.990  0.0274 -0.4649  0.6489
16422TIP3   OH270680   6.664   2.083   1.898 -0.1165  0.5080 -0.0748
16422TIP3    H170681   6.654   2.150   1.965 -0.3888  0.2046  0.1911
16422TIP3    H270682   6.755   2.054   1.907  0.3725  1.6967 -1.0106
16423TIP3   OH270683   1.407   6.402   0.152  0.6913 -0.2655  0.2522
16423TIP3    H170684   1.447   6.423   0.237  0.0233 -0.0126  0.5110
16423TIP3    H270685   1.382   6.311   0.159  3.1058 -1.0518 -0.6753
16424TIP3   OH270686   0.160   5.133   4.336  0.3834  0.4594 -0.2218
16424TIP3    H170687   0.198   5.126   4.424  2.3790 -2.7096 -1.2332
16424TIP3    H270688   0.068   5.107   4.348  0.0339  2.2627  1.2606
16425TIP3   OH270689   3.877   2.340   2.959 -0.0116  0.3619 -0.4528
16425TIP3    H170690   3.971   2.326   2.948  0.0901  1.7575 -1.5908
16425TIP3    H270691   3.858   2.417   2.905 -1.8929 -0.1890 -0.6334
16426TIP3   OH270692   6.695   2.395  12.594 -0.5812 -0.4399  0.1457
16426TIP3    H170693   6.707   2.490  12.586 -1.0624 -0.1769  2.1439
16426TIP3    H270694   6.725   2.375  12.683 -2.4658 -1.8259  0.5009
16427TIP3   OH270695   0.837   0.868  13.929 -0.4058 -0.6440 -0.4318
16427TIP3    H170696   0.745   0.888  13.910 -0.2969 -1.6002 -2.0495
16427TIP3    H270697   0.877   0.856  13.843  1.2951 -0.0422  0.2501
16428TIP3   OH270698   4.121   4.682   3.664 -0.3094  0.1079 -0.4520
16428TIP3    H170699   4.067   4.620   3.712 -0.1306 -0.9253 -1.5593
16428TIP3    H270700   4.187   4.628   3.621 -0.0827  1.0687 -1.3245
16429TIP3   OH270701   3.918   0.502  13.921  0.3764 -0.1618 -0.0596
16429TIP3    H170702   3.853   0.432  13.908  1.5613 -1.0879 -1.1202
16429TIP3    H270703   3.881   0.578  13.876 -0.1922 -0.5510 -0.2554
16430TIP3   OH270704   1.591   2.293  15.192  0.1822  0.0476 -0.3525
16430TIP3    H170705   1.669   2.258  15.235  0.4914  2.3349  1.0261
16430TIP3    H270706   1.615   2.382  15.166 -1.5590  0.3402 -1.0465
16431TIP3   OH270707   1.927   2.584  13.005  0.6420 -0.3298  0.8670
16431TIP3    H170708   1.941   2.677  13.025  1.4532 -0.4226  0.7320
16431TIP3    H270709   1.865   2.554  13.071 -1.2008  0.8037 -0.2854
16432TIP3   OH270710   6.765   0.686   2.060  0.3731  0.3339  0.2065
16432TIP3    H170711   6.742   0.606   2.014  0.0319  0.6508 -0.1836
16432TIP3    H270712   6.681   0.731   2.073  0.6407  1.0091 -0.3095
16433TIP3   OH270713   3.747   6.416   2.227  0.2405 -0.3401  0.1449
16433TIP3    H170714   3.724   6.485   2.289 -1.5026 -2.1071  1.5562
16433TIP3    H270715   3.766   6.462   2.145  3.4091  2.1105  2.1458
16434TIP3   OH270716   4.567   0.405   5.434  0.3149 -0.2492  0.2045
16434TIP3    H170717   4.619   0.329   5.459  4.7302  2.8030  0.8547
16434TIP3    H270718   4.558   0.398   5.339 -1.1606 -2.6198  0.4890
16435TIP3   OH270719   2.641   5.164  15.590 -0.2043 -0.5274  0.1383
16435TIP3    H170720   2.644   5.252  15.626 -0.8060 -0.9362  1.1962
16435TIP3    H270721   2.720   5.121  15.624  0.6901 -0.0696 -1.2822
16436TIP3   OH270722   6.683   3.359   1.188  0.3264 -0.4822 -0.0476
16436TIP3    H170723   6.658   3.319   1.271  0.6561  1.3417  0.9548
16436TIP3    H270724   6.760   3.412   1.208 -0.3976  1.0722 -1.2061
16437TIP3   OH270725   4.865   4.405  11.288 -0.2279 -0.6020  0.3864
16437TIP3    H170726   4.854   4.318  11.326  0.2387 -0.6180  0.4880
16437TIP3    H270727   4.943   4.398  11.233  0.4899  0.0544  1.3034
16438TIP3   OH270728   5.411   5.085  10.621 -0.1642  0.2690 -0.3608
16438TIP3    H170729   5.397   5.157  10.560 -0.8164 -0.5761 -1.2101
16438TIP3    H270730   5.351   5.103  10.693  0.0993  0.8826 -0.2876
16439TIP3   OH270731   4.983   4.899  13.371  0.1072 -0.1233 -0.3056
16439TIP3    H170732   5.010   4.888  13.462 -0.9392  0.7004  0.1183
16439TIP3    H270733   4.977   4.993  13.358 -0.5300 -0.2476 -0.9928
16440TIP3   OH270734   3.663   5.094  11.044  0.0334  0.0850 -0.5979
16440TIP3    H170735   3.679   5.111  10.951  0.0815  1.2488 -0.3806
16440TIP3    H270736   3.585   5.145  11.065 -0.5968 -1.0131 -0.2540
16441TIP3   OH270737   6.040   6.413   2.495 -0.6501 -0.9509 -0.1233
16441TIP3    H170738   5.979   6.353   2.451 -0.0950 -0.8459 -1.0494
16441TIP3    H270739   6.119   6.411   2.441 -0.3922  0.1056  0.2045
16442TIP3   OH270740   0.766   4.082  12.771  0.4236 -0.2830 -0.2262
16442TIP3    H170741   0.680   4.097  12.732 -0.4685  0.2589  1.8730
16442TIP3    H270742   0.770   4.144  12.844  1.3554 -2.3723  1.5497
16443TIP3   OH270743   0.008   2.662  16.405 -0.0291 -0.1320 -0.0272
16443TIP3    H170744  -0.052   2.599  16.445  0.3558  0.2809  1.2249
16443TIP3    H270745  -0.027   2.747  16.429 -1.1765  0.1836 -2.6620
16444TIP3   OH270746   5.992   2.779   2.998  0.0019  0.2451  0.3240
16444TIP3    H170747   5.940   2.857   2.981  0.3950  0.1412 -1.4434
16444TIP3    H270748   6.050   2.805   3.069 -0.4131  1.3188  0.2861
16445TIP3   OH270749   1.965   1.000   1.618 -0.1439  0.2441 -0.9817
16445TIP3    H170750   1.965   1.016   1.523 -1.9299  0.3358 -0.9730
16445TIP3    H270751   1.911   1.070   1.654 -0.1142 -0.2494  0.0360
16446TIP3   OH270752   3.978   2.801   5.551 -0.2186  0.0765  0.1776
16446TIP3    H170753   3.939   2.821   5.636 -0.7680 -0.6496  0.1026
16446TIP3    H270754   3.966   2.707   5.541  0.4055  0.0623 -0.4256
16447TIP3   OH270755   1.410   1.671   5.333  0.1545 -0.0122  0.1558
16447TIP3    H170756   1.360   1.672   5.252 -0.2209  0.3978  0.3864
16447TIP3    H270757   1.358   1.723   5.394  0.7655  0.2449  0.4648
16448TIP3   OH270758   1.004   1.680  11.260  0.5266  0.3345 -0.3272
16448TIP3    H170759   1.034   1.611  11.319  1.1360  2.7596  2.3688
16448TIP3    H270760   0.916   1.653  11.234 -0.7481  0.2448  3.6510
16449TIP3   OH270761   0.901   1.365  12.275 -0.7741 -0.1693  0.2293
16449TIP3    H170762   0.844   1.289  12.291 -2.1744  0.2976 -2.3421
16449TIP3    H270763   0.845   1.441  12.295 -0.4693  0.2539 -0.5359
16450TIP3   OH270764   3.088   4.300   1.597 -0.5563 -0.0944  0.5638
16450TIP3    H170765   3.003   4.325   1.562  0.1813 -0.2524 -1.4650
16450TIP3    H270766   3.120   4.378   1.641 -0.5615  0.8940 -1.1145
16451TIP3   OH270767   5.936   0.177   4.075 -0.2333 -0.4253 -0.7014
16451TIP3    H170768   6.010   0.190   4.015 -0.0821 -0.0717 -0.4399
16451TIP3    H270769   5.859   0.187   4.020 -0.1147  0.7932 -0.6787
16452TIP3   OH270770   4.366   2.489  14.445 -0.1606  0.4197  0.2011
16452TIP3    H170771   4.457   2.479  14.417  0.3034  0.7399  1.5539
16452TIP3    H270772   4.369   2.558  14.511 -1.6162  1.5153 -0.8327
16453TIP3   OH270773   1.070   3.370   4.584  0.0618 -0.1705  0.2307
16453TIP3    H170774   1.055   3.337   4.672  1.8595 -1.6962 -0.0037
16453TIP3    H270775   1.163   3.394   4.583 -0.2513  1.0551 -0.8627
16454TIP3   OH270776   5.499   1.827  12.231  0.4930 -0.2170  0.7427
16454TIP3    H170777   5.448   1.905  12.249  1.3008  0.5375 -0.1853
16454TIP3    H270778   5.534   1.801  12.316 -1.5886 -0.8763  1.4292
16455TIP3   OH270779   1.930   0.330   3.537  0.5033 -0.1961  0.1869
16455TIP3    H170780   1.990   0.280   3.592  0.3795  0.0278  0.5244
16455TIP3    H270781   1.957   0.421   3.548  1.0895 -0.2313 -0.8614
16456TIP3   OH270782   6.019   6.729   4.910  0.5048  0.4422 -0.3708
16456TIP3    H170783   5.956   6.662   4.936  0.0078  1.2269  0.4876
16456TIP3    H270784   6.060   6.695   4.830 -0.5603 -0.3515 -0.5775
16457TIP3   OH270785   4.883   1.654   6.173  0.0761  0.6491  0.3697
16457TIP3    H170786   4.908   1.715   6.104 -0.1013 -0.6458 -0.8712
16457TIP3    H270787   4.822   1.704   6.228 -0.6266  1.3618 -1.0316
16458TIP3   OH270788   5.477   3.154   3.303  0.0485  0.2445  0.5837
16458TIP3    H170789   5.526   3.110   3.234 -0.1046  1.9195 -0.6176
16458TIP3    H270790   5.438   3.083   3.353  0.4669 -1.0145 -0.8327
16459TIP3   OH270791   4.096   2.990  16.969 -0.4360 -0.5224 -0.3847
16459TIP3    H170792   4.099   2.937  16.890  2.0304  0.2990 -0.9083
16459TIP3    H270793   4.143   3.070  16.945  0.8001 -0.4834  2.0394
16460TIP3   OH270794   4.970   5.278  15.699  0.7120 -0.0512 -0.1695
16460TIP3    H170795   4.905   5.310  15.761  1.9250  0.3946  0.8902
16460TIP3    H270796   4.919   5.245  15.625 -0.8522 -2.0961  1.7450
16461TIP3   OH270797   2.183   6.721  13.918  0.8432 -0.6314 -0.2963
16461TIP3    H170798   2.147   6.670  13.991  0.5107  3.2192  2.4130
16461TIP3    H270799   2.277   6.705  13.922  0.6857 -1.5148  0.1037
16462TIP3   OH270800   2.549   5.883  10.558 -0.4214  0.5617  0.7843
16462TIP3    H170801   2.549   5.979  10.560 -0.5124  0.6321 -1.4797
16462TIP3    H270802   2.460   5.859  10.532 -1.1173 -0.2567  3.6828
16463TIP3   OH270803   3.355   4.173   0.395  0.4582 -0.5054 -0.0939
16463TIP3    H170804   3.354   4.258   0.351  0.4637 -1.1900 -1.4154
16463TIP3    H270805   3.439   4.172   0.442  0.0506  0.5911  0.6816
16464TIP3   OH270806   6.586   4.434   2.899 -0.6772  0.2254 -0.4417
16464TIP3    H170807   6.550   4.346   2.915  1.7299 -0.6872  0.2688
16464TIP3    H270808   6.578   4.478   2.984  2.2257 -0.9123  0.4986
16465TIP3   OH270809   4.221   5.659  14.802 -0.4267 -0.9331  0.4966
16465TIP3    H170810   4.292   5.600  14.826 -0.2875 -0.3126  1.6278
16465TIP3    H270811   4.261   5.721  14.742  0.3748  0.3363  2.3162
16466TIP3   OH270812   6.042   2.914  15.033  0.5176  0.0149  0.2614
16466TIP3    H170813   6.124   2.873  15.005  0.4216  0.2465 -0.3753
16466TIP3    H270814   6.048   3.004  15.000  0.1617  0.1380  0.5237
16467TIP3   OH270815   2.658   0.984  13.711 -0.1818  0.4874  0.9796
16467TIP3    H170816   2.631   0.894  13.727  2.2662 -0.3384  0.6639
16467TIP3    H270817   2.728   0.999  13.775  0.7255  1.5225 -0.2563
16468TIP3   OH270818   4.548   0.999   5.446 -0.5125  0.2604 -0.4757
16468TIP3    H170819   4.477   0.974   5.387 -0.3062  1.2141 -1.1399
16468TIP3    H270820   4.522   0.963   5.531 -0.7178 -1.2927 -1.1651
16469TIP3   OH270821   6.760   4.221  16.726 -0.0423  0.1135  0.6763
16469TIP3    H170822   6.754   4.224  16.630  2.4872 -0.7706  0.4558
16469TIP3    H270823   6.746   4.312  16.753 -1.4695  0.2548 -0.4664
16470TIP3   OH270824   2.933   1.195  13.560 -0.0892  0.0819 -0.4041
16470TIP3    H170825   2.891   1.243  13.631 -1.2540 -0.2761 -0.8321
16470TIP3    H270826   2.963   1.113  13.600  1.5493  0.9694  0.2361
16471TIP3   OH270827   4.774   0.464  14.354 -0.8104 -0.4917 -0.2179
16471TIP3    H170828   4.713   0.402  14.395  0.6208 -2.3473 -0.8314
16471TIP3    H270829   4.859   0.441  14.391  0.3495 -1.4915 -3.4071
16472TIP3   OH270830   2.230   1.774  16.886  0.4028 -0.6035  0.5191
16472TIP3    H170831   2.159   1.711  16.895  0.3958 -0.7670 -0.7033
16472TIP3    H270832   2.309   1.724  16.905  0.2811 -0.6438  0.9309
16473TIP3   OH270833   0.219   5.498   1.390  0.1774 -0.4931  0.1619
16473TIP3    H170834   0.253   5.588   1.383  0.0672 -0.4184  0.6110
16473TIP3    H270835   0.133   5.508   1.430  1.5908 -1.0784  3.4508
16474TIP3   OH270836   6.080   1.944  12.116  0.7940  0.1913  0.9084
16474TIP3    H170837   6.164   1.909  12.086 -0.3703 -1.2138 -0.7906
16474TIP3    H270838   6.100   2.034  12.142  2.7771 -0.0353  0.2892
16475TIP3   OH270839   5.368   2.921  11.594 -0.6094  0.2729  0.1123
16475TIP3    H170840   5.396   2.837  11.557  0.2751 -0.4157  2.2698
16475TIP3    H270841   5.276   2.929  11.569 -0.2126 -0.4952 -1.6186
16476TIP3   OH270842   5.371   4.526  16.453 -0.7077  0.6017 -0.3087
16476TIP3    H170843   5.363   4.530  16.358 -1.0857  0.3045 -0.2931
16476TIP3    H270844   5.380   4.433  16.472  3.6495  0.9372 -0.3856
16477TIP3   OH270845   4.776   3.576  11.724  0.2440  0.0460  0.5073
16477TIP3    H170846   4.771   3.484  11.698  0.7895  0.4777 -1.2251
16477TIP3    H270847   4.799   3.575  11.816 -3.0507 -1.6071  1.3926
16478TIP3   OH270848   4.130   5.800  14.317  0.4765  0.3353 -0.3521
16478TIP3    H170849   4.070   5.734  14.284 -1.3763  1.4975  0.6146
16478TIP3    H270850   4.170   5.838  14.239  0.7663 -1.1777 -0.9596
16479TIP3   OH270851   4.054   1.012   0.287 -0.1166  0.1476  0.0461
16479TIP3    H170852   4.017   0.925   0.269  0.5216 -0.0104 -0.5231
16479TIP3    H270853   3.982   1.060   0.329 -0.9660 -0.1758 -1.0014
16480TIP3   OH270854   1.661   1.952  16.776  0.4118 -0.7079 -0.3522
16480TIP3    H170855   1.756   1.949  16.790  0.4640 -0.0332 -0.5255
16480TIP3    H270856   1.648   2.032  16.725 -0.5354  0.5834  1.8644
16481TIP3   OH270857   3.109   3.564  12.093  0.8072 -0.1328  0.1333
16481TIP3    H170858   3.106   3.595  12.183  0.1021  0.0874  0.0345
16481TIP3    H270859   3.142   3.474  12.100 -0.4940 -0.5732  0.7287
16482TIP3   OH270860   2.721   3.137  11.892 -0.3460 -0.3208 -0.5659
16482TIP3    H170861   2.760   3.050  11.892  0.4201  0.0169 -1.2976
16482TIP3    H270862   2.692   3.151  11.802 -1.0932 -0.0864 -0.2998
16483TIP3   OH270863   4.063   6.350  13.756  0.2900  0.5179 -0.6451
16483TIP3    H170864   4.075   6.418  13.821  0.4929  1.3519 -1.5407
16483TIP3    H270865   4.096   6.270  13.798  1.6304  1.2908 -0.2051
16484TIP3   OH270866   3.576   5.432   5.511 -0.1777  0.7340 -0.1995
16484TIP3    H170867   3.664   5.401   5.492 -0.1744 -0.0926  1.1629
16484TIP3    H270868   3.520   5.355   5.501 -0.7129  1.1624 -0.6502
16485TIP3   OH270869   0.246   5.979   1.847 -0.3552 -0.1080  0.3555
16485TIP3    H170870   0.205   6.047   1.795 -0.4338  1.1701  2.0495
16485TIP3    H270871   0.326   6.019   1.882  1.4920 -2.0346 -1.5238
16486TIP3   OH270872   3.697   4.271   1.448 -0.2177  0.0142 -0.4143
16486TIP3    H170873   3.662   4.357   1.427 -0.9420 -0.7343 -2.4524
16486TIP3    H270874   3.705   4.270   1.543  1.8854  3.1007 -0.5074
16487TIP3   OH270875   6.213   2.376  16.074 -0.6941 -0.0028  0.1612
16487TIP3    H170876   6.126   2.376  16.113 -1.8622 -1.4538 -2.2652
16487TIP3    H270877   6.213   2.450  16.013 -0.3122 -0.1488 -0.0225
16488TIP3   OH270878   4.050   0.861   4.661  0.3581 -0.0261 -0.1600
16488TIP3    H170879   3.987   0.897   4.724  1.1166  0.5515  0.2702
16488TIP3    H270880   4.125   0.920   4.665  0.5313 -0.1460 -1.3971
16489TIP3   OH270881   5.188   0.931  14.625  0.1442 -0.0719  0.0392
16489TIP3    H170882   5.268   0.906  14.670  1.7292  2.3002 -1.3594
16489TIP3    H270883   5.185   0.873  14.548  0.9424  0.3759 -0.3294
16490TIP3   OH270884   2.193   1.446  13.029  0.0093 -0.3142 -0.1084
16490TIP3    H170885   2.119   1.426  12.970 -0.0182 -0.3986 -0.0454
16490TIP3    H270886   2.251   1.500  12.976 -0.5186  0.4863  0.1193
16491TIP3   OH270887   0.680   0.914   3.677  0.4408 -0.3594  0.4861
16491TIP3    H170888   0.684   0.819   3.692 -1.0854 -0.4076  0.7026
16491TIP3    H270889   0.768   0.938   3.647  0.3326 -2.1423 -1.3591
16492TIP3   OH270890   6.180   2.651  13.362  0.4930 -0.0342 -0.4935
16492TIP3    H170891   6.212   2.591  13.429 -0.4260  0.9970  0.9007
16492TIP3    H270892   6.169   2.734  13.407 -0.1737  0.6800 -1.9261
16493TIP3   OH270893   5.983   4.778  10.971  0.0392 -0.1529 -0.2424
16493TIP3    H170894   5.964   4.692  10.933 -0.4412 -0.6966  1.1742
16493TIP3    H270895   6.068   4.802  10.934 -0.7314 -0.3207 -2.1916
16494TIP3   OH270896   4.196   3.434   2.344 -0.4788 -0.4309  0.4058
16494TIP3    H170897   4.110   3.396   2.360 -0.3391 -0.9116  0.0239
16494TIP3    H270898   4.237   3.439   2.431 -1.2639  0.7203  0.7285
16495TIP3   OH270899   3.124   4.073  11.223 -0.3104 -0.0778  0.0757
16495TIP3    H170900   3.047   4.076  11.281  0.7385 -0.6310  1.5317
16495TIP3    H270901   3.188   4.020  11.271  1.9489  2.5123  0.0891
16496TIP3   OH270902   1.639   4.413  12.918  0.7233 -0.3597  0.5346
16496TIP3    H170903   1.664   4.403  12.826  2.1545  1.4250  0.7034
16496TIP3    H270904   1.721   4.402  12.967  0.2173  0.0736  1.5033
16497TIP3   OH270905   0.591   0.883   6.100 -0.1348  0.2663  0.3394
16497TIP3    H170906   0.513   0.909   6.149  0.9803  1.2343  1.6582
16497TIP3    H270907   0.652   0.852   6.168  0.3259 -1.2930 -0.7516
16498TIP3   OH270908   1.572   1.252  15.396  0.3356  0.2241 -0.8119
16498TIP3    H170909   1.597   1.341  15.370  1.4757  0.7102  1.7574
16498TIP3    H270910   1.504   1.265  15.463  0.1714 -0.8434 -0.7671
16499TIP3   OH270911   2.140   1.398   3.064  0.1750  0.1231  0.4487
16499TIP3    H170912   2.100   1.478   3.099  0.1340  0.1370  0.3705
16499TIP3    H270913   2.147   1.340   3.140 -0.1360  0.0639  0.4326
16500TIP3   OH270914   4.288   4.083  16.122  0.2866 -0.6539 -0.1656
16500TIP3    H170915   4.327   3.996  16.128 -1.2008 -1.3239  0.2282
16500TIP3    H270916   4.194   4.066  16.112  0.0007  0.9068 -0.2604
16501TIP3   OH270917   1.663   4.163   0.515 -0.1191  0.3870  0.3477
16501TIP3    H170918   1.749   4.151   0.554  1.9542  3.0362 -3.1626
16501TIP3    H270919   1.644   4.080   0.471  1.1771  0.2012  0.1388
16502TIP3   OH270920   4.571   5.065  14.212  0.7772  0.5481  0.1107
16502TIP3    H170921   4.655   5.105  14.189  1.8317 -1.4492  0.3906
16502TIP3    H270922   4.545   5.109  14.294  1.3981  1.3724 -0.1349
16503TIP3   OH270923   2.398   3.438   5.994  0.2387 -0.2707 -0.3326
16503TIP3    H170924   2.335   3.490   6.044  1.1175 -0.4653  1.0062
16503TIP3    H270925   2.438   3.381   6.059  3.3181  1.3292 -0.7724
16504TIP3   OH270926   1.710   4.535   2.388 -0.0971 -0.4321  0.3604
16504TIP3    H170927   1.745   4.548   2.300  0.5255 -1.2141  0.4793
16504TIP3    H270928   1.753   4.602   2.441 -1.5338  0.9515 -0.1897
16505TIP3   OH270929   2.029   1.665  15.053  0.5669  0.1906 -0.0758
16505TIP3    H170930   2.105   1.665  15.112  1.2485 -0.5775 -0.9482
16505TIP3    H270931   2.044   1.740  14.995  0.8084 -0.1396 -0.4403
16506TIP3   OH270932   2.405   0.250   5.697 -0.0605 -0.1786 -0.5960
16506TIP3    H170933   2.387   0.253   5.791  0.0626  0.6986 -0.5878
16506TIP3    H270934   2.363   0.170   5.666  1.1725 -1.2490  0.4683
16507TIP3   OH270935   4.948   1.287  11.743  0.1750  0.0733  0.2662
16507TIP3    H170936   4.944   1.259  11.835  2.0597 -0.2744  0.2769
16507TIP3    H270937   4.905   1.373  11.742 -1.7150 -0.8416  1.0631
16508TIP3   OH270938   6.708   2.971   0.269  0.1004 -0.1017  0.0356
16508TIP3    H170939   6.729   2.920   0.191  1.0100 -1.3246  1.0653
16508TIP3    H270940   6.620   2.941   0.294 -0.9712  1.6184 -1.5524
16509TIP3   OH270941   1.002   4.385   1.660 -0.0691 -0.0513  0.1851
16509TIP3    H170942   0.995   4.363   1.567 -1.1342 -1.7641  0.6459
16509TIP3    H270943   1.007   4.300   1.704 -0.5822  0.7291  1.7670
16510TIP3   OH270944   1.996   2.878  12.242  0.5540 -0.5351  0.6421
16510TIP3    H170945   1.943   2.893  12.320  1.8138 -0.7164  1.5390
16510TIP3    H270946   2.072   2.830  12.274  1.4637  0.0871 -0.5774
16511TIP3   OH270947   1.514   2.173   1.467 -0.4398  0.2476 -0.6545
16511TIP3    H170948   1.517   2.130   1.381 -2.2178  0.3637 -0.7928
16511TIP3    H270949   1.539   2.104   1.528 -0.7637 -0.2918 -1.1208
16512TIP3   OH270950   4.732   5.036   3.588 -0.0624  0.5063  0.3521
16512TIP3    H170951   4.699   5.047   3.677 -1.2395  0.1118 -0.0285
16512TIP3    H270952   4.819   4.998   3.599 -0.7072 -0.7084  1.2961
16513TIP3   OH270953   6.498   4.784  15.347 -0.5155 -0.2495  0.0837
16513TIP3    H170954   6.555   4.716  15.384  0.4332 -0.1666 -1.2164
16513TIP3    H270955   6.538   4.866  15.374  1.5001 -0.1609 -3.0606
16514TIP3   OH270956   2.240   4.548  10.415  0.1358 -0.3080  0.7455
16514TIP3    H170957   2.324   4.585  10.442  0.4947 -0.1129 -0.5684
16514TIP3    H270958   2.261   4.499  10.335 -1.0105 -0.2078  0.3756
16515TIP3   OH270959   3.176   6.675  16.781  0.6012  0.2562 -0.0041
16515TIP3    H170960   3.231   6.697  16.856  1.0123 -0.7894  0.0056
16515TIP3    H270961   3.128   6.597  16.809  1.7394 -0.9411 -1.2934
16516TIP3   OH270962   0.440   0.071  11.364  0.1814  0.5733  0.0845
16516TIP3    H170963   0.530   0.085  11.393 -0.0117  1.7523  0.1643
16516TIP3    H270964   0.446   0.002  11.298  1.0973  0.4120  0.3351
16517TIP3   OH270965   4.950   1.295  14.291 -0.1067 -0.2173  0.5748
16517TIP3    H170966   5.025   1.314  14.235 -0.9571  1.5090 -0.0203
16517TIP3    H270967   4.892   1.370  14.280 -2.0615 -1.6512  0.7992
16518TIP3   OH270968   3.172   1.001   2.873  0.3096  0.1126  0.1531
16518TIP3    H170969   3.179   1.052   2.792  0.6400 -0.7880 -0.3979
16518TIP3    H270970   3.092   0.949   2.862  0.6852 -0.4691  0.1356
16519TIP3   OH270971   3.945   5.519  11.863 -0.1719 -0.0375  0.0564
16519TIP3    H170972   3.967   5.576  11.937  0.4020  0.7059 -0.6786
16519TIP3    H270973   4.022   5.462  11.854  0.4655  0.9670 -0.9955
16520TIP3   OH270974   3.483   0.181  12.796  0.3014 -0.3081 -0.0614
16520TIP3    H170975   3.407   0.225  12.834  0.8881  0.1732  0.5734
16520TIP3    H270976   3.553   0.246  12.801  0.5137 -0.4095 -1.5359
16521TIP3   OH270977   0.317   4.306   3.240  0.0843 -0.3035  0.5437
16521TIP3    H170978   0.354   4.222   3.215  0.7715 -0.2790  1.4580
16521TIP3    H270979   0.393   4.361   3.258 -0.3603  0.6164 -0.3713
16522TIP3   OH270980   6.332   5.523  13.881 -0.6993 -0.7973 -0.5685
16522TIP3    H170981   6.266   5.530  13.949 -0.7134 -0.3555 -0.6228
16522TIP3    H270982   6.347   5.614  13.853 -0.6298 -0.9672 -1.0866
16523TIP3   OH270983   3.470   5.063  15.223  0.2039 -0.3815  0.6887
16523TIP3    H170984   3.443   4.992  15.166 -0.1430  1.2777 -1.2865
16523TIP3    H270985   3.388   5.094  15.263  0.2289 -0.4935  0.8259
16524TIP3   OH270986   5.848   1.468   1.573 -0.1209 -0.2395  0.8288
16524TIP3    H170987   5.863   1.531   1.503  0.1475 -0.5117  0.6368
16524TIP3    H270988   5.778   1.412   1.541  0.4289 -0.7547  0.5064
16525TIP3   OH270989   1.002   0.471   5.508 -0.3343 -1.2614 -0.1340
16525TIP3    H170990   1.042   0.430   5.431  1.5774 -0.3253  0.3267
16525TIP3    H270991   0.964   0.399   5.557 -2.9092 -1.7430 -2.6758
16526TIP3   OH270992   4.205   2.087  13.160  0.3718  0.3226  0.8661
16526TIP3    H170993   4.190   2.070  13.067 -1.4605  1.3804  0.9471
16526TIP3    H270994   4.247   2.007  13.192 -0.6737 -0.8037 -0.4786
16527TIP3   OH270995   4.324   4.054  17.143 -0.3623 -0.3465  0.0974
16527TIP3    H170996   4.305   3.980  17.200  2.8688 -0.7451  0.7728
16527TIP3    H270997   4.328   4.130  17.201 -1.5034  0.0205 -0.2807
16528TIP3   OH270998   5.511   2.628  13.536  0.2110 -0.2495  0.7000
16528TIP3    H170999   5.424   2.657  13.564 -0.6334 -1.1337 -0.8952
16528TIP3    H271000   5.494   2.545  13.491  1.9546 -0.6855  0.8193
16529TIP3   OH271001   5.237   6.456  16.165 -0.0773  0.2453 -0.2525
16529TIP3    H171002   5.318   6.504  16.151 -0.4920  0.7771 -0.8471
16529TIP3    H271003   5.180   6.517  16.212 -0.6537  0.4023 -1.1318
16530TIP3   OH271004   0.978   1.727   2.713 -0.0046 -0.1179  0.6131
16530TIP3    H171005   0.947   1.661   2.775  1.5411 -1.1447  0.3185
16530TIP3    H271006   1.010   1.798   2.768 -0.2869 -0.2569  0.9593
16531TIP3   OH271007   6.603   3.558  16.855 -0.2227  0.0711  0.4943
16531TIP3    H171008   6.579   3.590  16.942 -1.5796  2.2568 -0.6394
16531TIP3    H271009   6.651   3.630  16.815 -2.7848  0.5360 -1.8893
16532TIP3   OH271010   3.865   2.279   1.334 -0.3976  0.0935  0.0415
16532TIP3    H171011   3.921   2.317   1.402 -0.6765 -0.7823  0.7659
16532TIP3    H271012   3.827   2.201   1.375  0.9342 -1.5290 -1.7277
16533TIP3   OH271013   3.126   3.249   4.338  0.1994  0.0629  1.1686
16533TIP3    H171014   3.112   3.340   4.309  1.6674  0.7546  2.5429
16533TIP3    H271015   3.043   3.225   4.380  0.0699  1.0710  1.5172
16534TIP3   OH271016   5.080   4.269  16.369 -0.4678 -0.0658 -0.0659
16534TIP3    H171017   5.005   4.252  16.426  0.5179  0.6154  1.4630
16534TIP3    H271018   5.042   4.310  16.291 -1.6022  0.9614  1.0021
16535TIP3   OH271019   0.575   4.810   2.393  0.2231 -0.1942 -0.3995
16535TIP3    H171020   0.609   4.813   2.482  0.4238 -0.2430 -0.4747
16535TIP3    H271021   0.510   4.880   2.390 -1.0264 -1.2946  0.2942
16536TIP3   OH271022   2.569   0.035   0.159 -0.5455  0.0753  0.4120
16536TIP3    H171023   2.514   0.100   0.114 -1.2892 -0.1432  0.9914
16536TIP3    H271024   2.565  -0.043   0.103 -0.7394  0.0931  0.4008
16537TIP3   OH271025   6.352   5.223   2.729 -0.2559 -0.3876 -0.4770
16537TIP3    H171026   6.327   5.217   2.637 -0.2287 -1.2576 -0.4287
16537TIP3    H271027   6.275   5.192   2.777 -0.3103  0.1684 -0.1931
16538TIP3   OH271028   6.403   2.012   2.760 -0.2468 -0.5019  0.2875
16538TIP3    H171029   6.474   1.954   2.789  0.1012 -0.7996 -1.1367
16538TIP3    H271030   6.373   1.974   2.678 -1.0935  0.4386  0.1601
16539TIP3   OH271031   2.717   2.747  14.753  0.1688 -0.5480  0.5346
16539TIP3    H171032   2.714   2.659  14.792  0.5233 -0.0578  1.6970
16539TIP3    H271033   2.705   2.806  14.827  0.0224  0.3879 -0.2336
16540TIP3   OH271034   4.963   2.096   4.497 -0.1438  0.3223 -0.4334
16540TIP3    H171035   4.921   2.161   4.441 -0.4121 -0.0185 -0.6288
16540TIP3    H271036   4.891   2.056   4.545 -0.1405 -0.8908 -1.4232
16541TIP3   OH271037   5.121   4.296   5.957  0.1079 -0.0507 -0.2370
16541TIP3    H171038   5.152   4.245   6.032  0.7033  0.3540 -0.2026
16541TIP3    H271039   5.105   4.383   5.992  0.3869  0.1411 -0.5787
16542TIP3   OH271040   5.319   1.288  10.466  0.0457 -0.1864  0.3592
16542TIP3    H171041   5.288   1.359  10.522  0.2008  0.2130 -0.0623
16542TIP3    H271042   5.250   1.221  10.472  0.5401 -0.5745  1.8233
16543TIP3   OH271043   3.704   0.021  12.874 -0.3996  0.2692 -0.7215
16543TIP3    H171044   3.727   0.079  12.946 -1.0381  0.2487 -0.4990
16543TIP3    H271045   3.632   0.065  12.830 -1.3934 -0.7180 -0.0888
16544TIP3   OH271046   0.421   3.284   5.527 -0.4059  0.5999 -0.0007
16544TIP3    H171047   0.494   3.339   5.501  0.1157 -1.1179 -2.3951
16544TIP3    H271048   0.457   3.227   5.595 -0.1828  1.3791  0.5308
16545TIP3   OH271049   1.155   5.995  12.277 -0.1615  0.5484 -0.2526
16545TIP3    H171050   1.211   6.005  12.355  1.1552  0.3810 -1.1659
16545TIP3    H271051   1.068   5.975  12.313  0.3696  0.7166  1.1837
16546TIP3   OH271052   4.247   0.225  11.477 -0.6313 -0.1215  0.2238
16546TIP3    H171053   4.187   0.299  11.467 -0.2424  0.2693  0.8007
16546TIP3    H271054   4.189   0.152  11.500 -1.0821 -0.1375 -0.9147
16547TIP3   OH271055   1.954   2.810   0.478 -0.1111  0.3667 -0.2580
16547TIP3    H171056   1.903   2.768   0.410 -0.1720 -1.7219  1.0307
16547TIP3    H271057   2.007   2.875   0.432 -1.4441  0.2163 -2.0356
16548TIP3   OH271058   5.011   3.891   5.924  0.2879  0.3288  0.0911
16548TIP3    H171059   4.938   3.906   5.985  0.6571 -0.5290  0.7599
16548TIP3    H271060   5.084   3.866   5.981 -0.0529 -3.0279 -0.8956
16549TIP3   OH271061   4.402   6.154   1.495  0.5206 -0.1691 -0.3275
16549TIP3    H171062   4.468   6.176   1.429 -0.6283  0.7853 -1.1726
16549TIP3    H271063   4.452   6.141   1.576  1.6503  1.4549 -0.7582
16550TIP3   OH271064   2.031   5.137   1.030  0.5356 -0.2049 -0.4407
16550TIP3    H171065   2.127   5.139   1.029  0.5491 -0.6686 -3.1463
16550TIP3    H271066   2.009   5.055   1.075  1.4222 -0.4248 -0.4026
16551TIP3   OH271067   6.321   5.814   0.888  0.4639 -0.1978 -0.2418
16551TIP3    H171068   6.232   5.849   0.893  0.3029 -0.5414 -0.6360
16551TIP3    H271069   6.312   5.734   0.837  0.7076 -1.2249  1.3156
16552TIP3   OH271070   5.380   2.270  14.837 -0.0150 -0.2474 -0.7293
16552TIP3    H171071   5.383   2.174  14.843 -1.0715 -0.1510  2.4608
16552TIP3    H271072   5.406   2.300  14.924  0.3267  2.4016 -1.6884
16553TIP3   OH271073   1.646   3.388  15.253  0.1186  0.1250  0.2954
16553TIP3    H171074   1.647   3.346  15.167  1.5850 -0.1874  0.4490
16553TIP3    H271075   1.577   3.454  15.247  1.5428  1.4819 -1.7706
16554TIP3   OH271076   0.092   2.646   3.352  0.0471  0.2644  0.1781
16554TIP3    H171077   0.025   2.619   3.415 -2.2500 -0.0618 -2.3027
16554TIP3    H271078   0.171   2.657   3.404 -1.4547 -1.2698  2.8897
16555TIP3   OH271079   1.176   1.417   5.661 -0.8202 -0.1531  0.0659
16555TIP3    H171080   1.152   1.482   5.595 -2.4851 -1.8945 -1.0838
16555TIP3    H271081   1.235   1.357   5.614 -2.8374 -1.9948 -0.1857
16556TIP3   OH271082   2.459   6.133   3.760 -0.3060 -0.6039  0.0880
16556TIP3    H171083   2.366   6.126   3.781 -0.1744  0.0963  0.9541
16556TIP3    H271084   2.503   6.092   3.835  0.1447  0.9900  0.7116
16557TIP3   OH271085   2.509   6.445   1.101  0.0506 -0.0661 -0.2155
16557TIP3    H171086   2.473   6.518   1.052  0.8171 -0.1121 -0.8684
16557TIP3    H271087   2.434   6.391   1.124 -0.3108 -0.0436 -1.3489
16558TIP3   OH271088   2.789   5.274   1.947 -0.1499 -0.0039  0.3218
16558TIP3    H171089   2.736   5.353   1.937  0.3581  0.3914  0.6984
16558TIP3    H271090   2.873   5.306   1.980  0.2664 -0.6378 -0.1136
16559TIP3   OH271091   0.690   1.869   2.544  0.2953 -0.3131 -0.2675
16559TIP3    H171092   0.695   1.899   2.635  1.1157  0.6183 -0.6202
16559TIP3    H271093   0.714   1.776   2.549  3.9575  0.5763  0.0280
16560TIP3   OH271094   1.865   5.600   2.259 -0.2516  0.0186 -0.1215
16560TIP3    H171095   1.932   5.568   2.199 -0.7915 -0.1429 -0.6399
16560TIP3    H271096   1.784   5.560   2.228 -0.4964 -0.2583  0.8599
16561TIP3   OH271097   2.652   2.851   0.619  0.0901  0.0700  0.0108
16561TIP3    H171098   2.557   2.856   0.616  0.1596  0.6988 -3.7551
16561TIP3    H271099   2.671   2.757   0.623 -0.6560 -0.0280  1.5330
16562TIP3   OH271100   2.859   4.588   4.044 -0.3189 -0.8044  0.7589
16562TIP3    H171101   2.928   4.623   4.100 -0.2801  1.3009 -0.5336
16562TIP3    H271102   2.793   4.554   4.104  0.2599  0.3424  2.0624
16563TIP3   OH271103   6.314   3.350   6.317  0.6932  0.1231  0.0806
16563TIP3    H171104   6.265   3.343   6.399  1.8446  2.0324  0.9662
16563TIP3    H271105   6.247   3.359   6.249 -0.3000 -2.3475  0.6590
16564TIP3   OH271106   3.132   3.769   3.325  0.2568 -0.2780 -0.2113
16564TIP3    H171107   3.135   3.844   3.384  1.6657 -0.3433 -0.1795
16564TIP3    H271108   3.162   3.696   3.378  0.0745 -0.6307 -0.5899
16565TIP3   OH271109   6.453   0.818  10.981  0.2495  0.1986 -0.1990
16565TIP3    H171110   6.423   0.866  10.903  0.4452 -0.2896 -0.5761
16565TIP3    H271111   6.376   0.769  11.010  0.5726 -0.7933 -0.9722
16566TIP3   OH271112   0.032   4.636  12.526 -0.4452 -0.4489  0.3633
16566TIP3    H171113   0.035   4.545  12.499 -1.6813 -1.0146  2.0428
16566TIP3    H271114  -0.053   4.646  12.570 -0.4603  1.5785 -0.0474
16567TIP3   OH271115   4.468   2.879  12.603  0.1254 -0.5928 -0.3556
16567TIP3    H171116   4.549   2.915  12.567  1.6178 -1.1055  2.3367
16567TIP3    H271117   4.471   2.786  12.580 -0.2219 -0.4104 -1.1511
16568TIP3   OH271118   1.326   6.504   0.535 -0.2883 -0.0938 -0.3208
16568TIP3    H171119   1.277   6.428   0.567 -1.5514  0.6240 -0.5116
16568TIP3    H271120   1.310   6.504   0.441  0.1390  0.1164 -0.3950
16569TIP3   OH271121   0.704   4.608  15.518 -0.3480 -0.4382 -0.0014
16569TIP3    H171122   0.705   4.552  15.440  0.1762  1.1487 -1.1571
16569TIP3    H271123   0.746   4.689  15.490 -1.1594  0.5766  1.6389
16570TIP3   OH271124   4.117   3.056   1.729 -0.4831  0.4265  0.3484
16570TIP3    H171125   4.037   3.004   1.730  0.3710 -0.9270 -1.0836
16570TIP3    H271126   4.140   3.063   1.637 -1.0063  4.0260  0.4177
16571TIP3   OH271127   6.547   0.267   1.008  0.4156  0.1059  0.2946
16571TIP3    H171128   6.569   0.213   0.932  0.1682 -0.3428  0.5394
16571TIP3    H271129   6.627   0.317   1.025 -0.3385  2.1142 -1.8202
16572TIP3   OH271130   1.374   1.112   4.090  0.2192  0.3362  0.5671
16572TIP3    H171131   1.359   1.054   4.165  0.1842  0.4593  0.6546
16572TIP3    H271132   1.460   1.150   4.106 -0.0078  0.7552  0.8020
16573TIP3   OH271133   2.774   4.724   4.733  0.1593  0.2732  0.2910
16573TIP3    H171134   2.754   4.805   4.779  0.2405 -0.5672  1.8653
16573TIP3    H271135   2.865   4.733   4.705  0.2460  0.6199  0.6870
16574TIP3   OH271136   3.229   3.223  13.595  0.3834  0.0071  0.0809
16574TIP3    H171137   3.226   3.128  13.582  1.1045  0.0883 -0.7473
16574TIP3    H271138   3.258   3.258  13.510 -2.2302  1.1523 -0.3934
16575TIP3   OH271139   1.466   4.046  14.728 -0.2711 -0.1628 -0.4478
16575TIP3    H171140   1.376   4.037  14.697  0.2091 -0.2222 -1.8632
16575TIP3    H271141   1.517   3.990  14.670  0.6369 -0.4558  0.6034
16576TIP3   OH271142   6.618   4.559  15.459  0.2441 -0.3351 -0.1158
16576TIP3    H171143   6.664   4.514  15.530  2.3414 -0.4515 -1.5188
16576TIP3    H271144   6.674   4.547  15.382 -0.5802  2.2151 -1.1672
16577TIP3   OH271145   3.848   5.308  15.104  0.2356 -0.2177 -0.2740
16577TIP3    H171146   3.900   5.234  15.072  0.8945 -0.5683  1.5462
16577TIP3    H271147   3.898   5.341  15.179 -1.0927  0.7975  0.1761
16578TIP3   OH271148   5.029   2.787   1.174  0.4596  0.2615 -0.6000
16578TIP3    H171149   4.963   2.727   1.208  2.4139 -2.1807 -0.9193
16578TIP3    H271150   4.989   2.824   1.095 -0.0985 -2.1748 -1.5274
16579TIP3   OH271151   5.317   3.433   3.529 -0.1589  0.3704 -0.3269
16579TIP3    H171152   5.392   3.428   3.470  0.4837  1.3406  0.3845
16579TIP3    H271153   5.355   3.445   3.616 -1.1232  0.1725  0.1320
16580TIP3   OH271154   0.350   1.265   5.672  0.4600  0.8127  0.5829
16580TIP3    H171155   0.265   1.229   5.699  1.0470  0.5347  2.1050
16580TIP3    H271156   0.331   1.313   5.592 -0.6724 -1.3799 -0.4914
16581TIP3   OH271157   1.520   0.280  11.228  0.3542  0.2938 -0.2525
16581TIP3    H171158   1.550   0.221  11.297  2.2130  0.7537 -0.6267
16581TIP3    H271159   1.552   0.239  11.147 -2.3766 -0.5962 -0.9349
16582TIP3   OH271160   0.233   0.832   5.065  0.3341 -0.4600 -0.4725
16582TIP3    H171161   0.286   0.754   5.047 -1.0200 -1.4565 -0.2511
16582TIP3    H271162   0.225   0.874   4.979  0.4891 -0.9488 -0.7345
16583TIP3   OH271163   1.706   6.198  10.852  0.0297  0.5907 -0.4218
16583TIP3    H171164   1.786   6.152  10.877  0.5999  1.0605 -1.3794
16583TIP3    H271165   1.656   6.204  10.934  1.6259  1.6073  0.5096
16584TIP3   OH271166   1.478   3.485  11.573 -0.9109 -0.0048 -0.2694
16584TIP3    H171167   1.394   3.460  11.611 -2.6315  2.0751 -2.5898
16584TIP3    H271168   1.499   3.569  11.614  0.4824 -0.8641  0.8686
16585TIP3   OH271169   1.646   0.709   3.118 -0.0213  0.3578 -0.0115
16585TIP3    H171170   1.623   0.650   3.046  1.4695 -0.5970  0.2802
16585TIP3    H271171   1.698   0.656   3.177 -2.0093  0.8830  2.2712
16586TIP3   OH271172   6.480   0.501  11.275 -0.3989  0.1966 -0.2975
16586TIP3    H171173   6.545   0.563  11.308 -1.4875  0.7213  0.9113
16586TIP3    H271174   6.494   0.421  11.326 -1.0501  0.4887  0.3439
16587TIP3   OH271175   1.234   1.504  15.470  0.1329  0.4843 -0.3908
16587TIP3    H171176   1.277   1.419  15.474 -1.8898 -0.4821  1.9323
16587TIP3    H271177   1.183   1.502  15.390  0.6311 -0.2319 -0.6921
16588TIP3   OH271178   1.410   3.425   6.552  1.1291  0.1144 -0.6734
16588TIP3    H171179   1.378   3.488   6.616  2.0325 -1.1082  1.0068
16588TIP3    H271180   1.483   3.470   6.509  2.2287 -0.0401  1.0138
16589TIP3   OH271181   4.757   1.268  12.555  0.1492  0.4818 -0.2175
16589TIP3    H171182   4.682   1.313  12.516  1.3707  3.1187  0.3382
16589TIP3    H271183   4.793   1.331  12.618  2.2659 -1.0742  0.2002
16590TIP3   OH271184   4.884   3.100  12.982  0.3869 -0.0838 -0.2320
16590TIP3    H171185   4.837   3.179  12.956  1.5054  1.1235  1.3489
16590TIP3    H271186   4.830   3.028  12.948 -0.9559  1.3303 -1.1648
16591TIP3   OH271187   4.079   5.324  11.565  0.1078  0.2402 -0.1280
16591TIP3    H171188   4.132   5.315  11.644  0.2485  0.6076 -0.1821
16591TIP3    H271189   4.142   5.344  11.496 -0.0545  0.2704 -0.2679
16592TIP3   OH271190   0.387   3.491  16.958 -0.1315 -0.5324 -0.4065
16592TIP3    H171191   0.363   3.533  17.040  1.8434 -0.4002  0.1186
16592TIP3    H271192   0.356   3.401  16.968  0.5476 -0.6577  0.7136
16593TIP3   OH271193   1.812   5.047  15.794 -0.3211  0.0910  0.2122
16593TIP3    H171194   1.746   5.032  15.726  0.1855  0.2883 -0.3304
16593TIP3    H271195   1.862   4.965  15.797  1.5814  1.0987 -1.7958
16594TIP3   OH271196   6.670   3.920  12.316  0.2317 -0.2022 -0.3077
16594TIP3    H171197   6.700   3.830  12.303  0.7502  0.4106 -3.8496
16594TIP3    H271198   6.750   3.972  12.317 -0.1832  0.4461 -0.2939
16595TIP3   OH271199   6.172   5.887  12.144  0.0624  0.0769 -0.1996
16595TIP3    H171200   6.146   5.966  12.097  0.0087 -0.4718 -1.1076
16595TIP3    H271201   6.159   5.816  12.081 -0.9964 -0.8029  0.9762
16596TIP3   OH271202   4.146   3.228   0.242 -0.0942 -0.0521 -0.1737
16596TIP3    H171203   4.055   3.257   0.233 -0.2348 -0.0921  1.0854
16596TIP3    H271204   4.190   3.263   0.164 -1.0499  0.5126 -0.4658
16597TIP3   OH271205   3.456   4.471  11.821  0.4133 -0.1639 -0.2490
16597TIP3    H171206   3.469   4.565  11.824 -0.6000  0.1091 -2.7393
16597TIP3    H271207   3.378   4.455  11.873 -1.1523  0.7846 -2.2484
16598TIP3   OH271208   3.288   3.339  12.237 -0.2039 -0.1780  0.1540
16598TIP3    H171209   3.276   3.289  12.318  0.4026  0.6434  0.7487
16598TIP3    H271210   3.348   3.285  12.185 -1.6834 -1.3830 -0.3409
16599TIP3   OH271211   5.915   2.447   3.323  0.3150  0.0865  0.0230
16599TIP3    H171212   5.887   2.536   3.344 -0.1130 -0.0209 -0.0880
16599TIP3    H271213   5.871   2.427   3.240  1.5764  0.3151 -0.7035
16600TIP3   OH271214   5.752   1.616   4.199  0.2039  0.0284 -0.1243
16600TIP3    H171215   5.800   1.608   4.282  1.5622 -0.1097 -0.9010
16600TIP3    H271216   5.709   1.701   4.204  0.8135  0.3054  0.4664
16601TIP3   OH271217   2.730   4.591   5.923 -0.0494 -0.2826 -0.0168
16601TIP3    H171218   2.761   4.586   6.014  1.0512  0.6690 -0.3251
16601TIP3    H271219   2.714   4.684   5.909  0.3007 -0.3651 -0.9671
16602TIP3   OH271220   1.583   1.890  12.200 -0.5792 -0.2445 -0.1381
16602TIP3    H171221   1.624   1.976  12.199  0.3346 -0.6618  0.9110
16602TIP3    H271222   1.651   1.831  12.169 -1.1958 -0.6019 -0.8238
16603TIP3   OH271223   5.103   4.242  11.879  0.0013 -0.6343  0.6472
16603TIP3    H171224   5.137   4.331  11.887 -0.2978 -0.5592  1.1169
16603TIP3    H271225   5.133   4.212  11.793 -0.5377  0.1919  0.1652
16604TIP3   OH271226   3.791   3.170   5.348  0.4803 -0.3336 -0.0611
16604TIP3    H171227   3.820   3.130   5.266  1.0629  1.2920 -0.6810
16604TIP3    H271228   3.725   3.110   5.382  1.2579 -1.7502 -0.9947
16605TIP3   OH271229   5.580   6.570  12.475  0.2257 -0.1491  0.0022
16605TIP3    H171230   5.577   6.654  12.521  1.3125 -0.3610  0.4625
16605TIP3    H271231   5.490   6.556  12.445 -0.1220  0.8104  0.5780
16606TIP3   OH271232   6.722   2.234  16.331 -0.1058 -0.2788 -0.2175
16606TIP3    H171233   6.717   2.321  16.373  1.1053 -0.5315  0.4609
16606TIP3    H271234   6.815   2.212  16.332 -0.3531 -1.3797 -0.8438
16607TIP3   OH271235   6.327   3.731  16.533  0.1694  0.5231  1.3048
16607TIP3    H171236   6.400   3.677  16.503 -1.1415 -1.5027  1.6805
16607TIP3    H271237   6.278   3.752  16.454  0.1213  0.3289  1.2847
16608TIP3   OH271238   1.514   5.907   2.419  0.1710 -0.2415 -0.3236
16608TIP3    H171239   1.557   5.976   2.369  0.4958 -0.2164 -0.0170
16608TIP3    H271240   1.509   5.833   2.360  2.4641 -0.9051  0.2669
16609TIP3   OH271241   3.884   4.770  12.872  0.0575 -0.0344  0.0083
16609TIP3    H171242   3.963   4.739  12.917  0.8183  0.1173 -1.1889
16609TIP3    H271243   3.848   4.837  12.930  1.6627  0.9657 -0.1019
16610TIP3   OH271244   6.170   6.261  16.723 -0.4403  0.4287 -0.0226
16610TIP3    H171245   6.190   6.336  16.667  0.2702  0.1377 -0.1582
16610TIP3    H271246   6.230   6.270  16.797  1.3972 -1.3821 -1.2489
16611TIP3   OH271247   1.401   6.596   2.263  0.3223  0.3904  0.1554
16611TIP3    H171248   1.377   6.507   2.290 -1.5713  0.6472 -0.5888
16611TIP3    H271249   1.466   6.583   2.194 -1.1149 -0.4707 -1.0520
16612TIP3   OH271250   5.774   1.315  11.903  0.2497 -0.2651  0.5843
16612TIP3    H171251   5.735   1.345  11.821 -0.1659 -2.3011 -0.0051
16612TIP3    H271252   5.868   1.329  11.891  0.1674 -0.2751 -0.1454
16613TIP3   OH271253   6.593   1.234  12.524  0.3470  0.7738  0.5540
16613TIP3    H171254   6.683   1.203  12.528  0.0475 -0.2657 -0.6941
16613TIP3    H271255   6.593   1.313  12.579  1.9354  0.6307  0.7906
16614TIP3   OH271256   1.502   4.578  16.122  0.5612  0.2137 -0.4030
16614TIP3    H171257   1.425   4.593  16.178  0.1573  1.2017 -1.2083
16614TIP3    H271258   1.467   4.530  16.047  0.3093  2.4870 -1.7881
16615TIP3   OH271259   2.042   3.250   0.630  0.5321 -0.5409  0.5099
16615TIP3    H171260   2.077   3.207   0.709  1.3856 -0.0952  0.3829
16615TIP3    H271261   2.006   3.178   0.578  0.4509 -0.9046  1.0557
16616TIP3   OH271262   0.915   4.021   1.312 -0.2122  0.0581  0.6697
16616TIP3    H171263   0.841   4.034   1.252  0.4105  1.2840  0.1367
16616TIP3    H271264   0.974   3.962   1.264 -1.3696 -1.8849  1.5851
16617TIP3   OH271265   0.545   3.463  10.478  0.3203 -0.1920  0.5543
16617TIP3    H171266   0.495   3.527  10.428  0.9155 -1.3621 -1.5888
16617TIP3    H271267   0.492   3.446  10.556 -1.8709 -0.2718 -0.9185
16618TIP3   OH271268   4.060   0.981  15.140 -0.2564  0.6901 -0.1410
16618TIP3    H171269   4.021   0.968  15.226  0.1434  0.2323 -0.0249
16618TIP3    H271270   4.133   1.042  15.155 -0.0019  0.3767 -0.1061
16619TIP3   OH271271   4.811   3.477   0.920 -0.0775 -0.0127  0.5025
16619TIP3    H171272   4.868   3.431   0.983  1.0211 -1.0220 -1.1836
16619TIP3    H271273   4.858   3.559   0.902  0.2636 -0.3165  0.0039
16620TIP3   OH271274   2.679   0.234  15.192 -0.2069 -0.0457 -0.4381
16620TIP3    H171275   2.669   0.327  15.213 -1.2120 -0.4704  0.9810
16620TIP3    H271276   2.702   0.193  15.275  0.0573 -1.1096 -1.0264
16621TIP3   OH271277   1.833   4.772   5.345  0.0317 -0.1384 -0.2654
16621TIP3    H171278   1.831   4.746   5.437  1.8951  1.1227  0.1678
16621TIP3    H271279   1.837   4.690   5.297  0.3945 -0.7732  0.8378
16622TIP3   OH271280   5.562   4.610  15.357 -0.1229  0.2285  0.0699
16622TIP3    H171281   5.637   4.665  15.336 -1.9892  2.2419 -1.6110
16622TIP3    H271282   5.502   4.668  15.405 -1.1133 -0.9970  0.3587
16623TIP3   OH271283   0.529   4.318   2.977 -0.1487 -0.3881  0.9541
16623TIP3    H171284   0.507   4.240   3.029  0.9597  0.0211  2.0825
16623TIP3    H271285   0.593   4.364   3.031 -1.2710  1.6414  0.5915
16624TIP3   OH271286   6.164   6.560   4.324  0.0475 -0.3873  0.4047
16624TIP3    H171287   6.100   6.530   4.388 -1.4843 -0.8294 -1.3112
16624TIP3    H271288   6.232   6.493   4.323 -1.3346 -1.7994 -0.4598
16625TIP3   OH271289   2.456   0.131  12.062  0.3663  0.0853  0.7223
16625TIP3    H171290   2.392   0.148  12.130 -0.4471 -0.7355  0.1742
16625TIP3    H271291   2.426   0.050  12.021  1.2870  0.1463 -0.0860
16626TIP3   OH271292   6.349   4.597   4.670 -0.1616 -0.6634  0.6093
16626TIP3    H171293   6.348   4.682   4.713 -0.9007  0.2590 -1.1955
16626TIP3    H271294   6.326   4.535   4.740 -1.1485  0.7699  1.5881
16627TIP3   OH271295   1.003   5.052  15.678 -0.0683  0.1822 -0.3812
16627TIP3    H171296   0.997   4.961  15.649  1.0527 -0.1566  0.4302
16627TIP3    H271297   0.946   5.100  15.617  0.1710 -0.8931 -1.4776
16628TIP3   OH271298   3.206   4.862   3.408 -0.0749  0.2639  0.0309
16628TIP3    H171299   3.219   4.939   3.352  0.3764 -0.2970 -0.6342
16628TIP3    H271300   3.112   4.844   3.403 -0.1772  0.7484  0.1627
16629TIP3   OH271301   1.091   6.498  15.225  0.3534  0.0537 -0.4174
16629TIP3    H171302   1.166   6.503  15.165  0.5519  0.2318 -0.1540
16629TIP3    H271303   1.023   6.550  15.182  0.1833 -0.5797 -0.9375
16630TIP3   OH271304   0.091   5.625  12.529  0.1011  0.1959 -0.1720
16630TIP3    H171305   0.123   5.705  12.489  0.5388  0.5846  0.9413
16630TIP3    H271306  -0.004   5.629  12.518  0.1359  0.7873 -0.2379
16631TIP3   OH271307   5.692   4.568  16.172  0.5583 -0.2514 -0.1642
16631TIP3    H171308   5.739   4.514  16.235 -0.0133 -0.7121 -0.1352
16631TIP3    H271309   5.655   4.506  16.109  0.1594  0.1238 -0.3004
16632TIP3   OH271310   5.197   1.150   4.561 -0.7522  0.4503  0.5435
16632TIP3    H171311   5.192   1.168   4.655 -1.4040 -0.8920  0.7812
16632TIP3    H271312   5.224   1.058   4.557  1.1136  1.0272 -0.5971
16633TIP3   OH271313   5.176   5.960   2.872  0.1364 -0.0631  0.8004
16633TIP3    H171314   5.200   5.960   2.779 -0.1931  0.6902  0.7168
16633TIP3    H271315   5.091   5.916   2.875  0.4899 -0.7624  0.8419
16634TIP3   OH271316   3.906   6.475   3.968 -0.1944  0.5288 -0.4897
16634TIP3    H171317   3.858   6.558   3.971 -0.3737  0.3866  1.0600
16634TIP3    H271318   3.886   6.439   3.882 -0.6542  1.7749 -0.9226
16635TIP3   OH271319   3.150   3.274  16.030  0.2526 -0.1943  0.1266
16635TIP3    H171320   3.224   3.220  16.059  1.4814  1.1514 -0.4152
16635TIP3    H271321   3.079   3.253  16.090  1.0664 -1.5667  0.6178
16636TIP3   OH271322   3.178   2.400  12.290  0.2827 -0.0930  0.1083
16636TIP3    H171323   3.246   2.429  12.351  2.2523  1.4318 -2.6798
16636TIP3    H271324   3.153   2.479  12.242 -1.5548 -1.1524 -0.7490
16637TIP3   OH271325   2.317   6.707  11.971 -0.3370 -0.5165  0.0272
16637TIP3    H171326   2.238   6.655  11.987  0.5541 -1.8827  0.1013
16637TIP3    H271327   2.328   6.705  11.876 -1.1979  0.9199 -0.1195
16638TIP3   OH271328   5.628   0.459   2.392 -0.1197 -0.1611  0.1630
16638TIP3    H171329   5.559   0.473   2.457  0.3939 -0.9291  0.8924
16638TIP3    H271330   5.596   0.388   2.336 -0.2643  0.0276  0.0069
16639TIP3   OH271331   4.224   5.276  12.792 -0.1002  0.1399 -0.4222
16639TIP3    H171332   4.239   5.183  12.773 -0.1617 -0.1595  0.9552
16639TIP3    H271333   4.256   5.288  12.881  1.3683  1.8162 -1.1477
16640TIP3   OH271334   5.306   2.609  12.861 -0.0913 -0.5356  0.4395
16640TIP3    H171335   5.351   2.686  12.895  0.0515  0.8127 -2.6400
16640TIP3    H271336   5.368   2.570  12.799 -1.6278 -0.9132 -0.8961
16641TIP3   OH271337   1.664   5.360   2.527 -0.1621  0.8285 -0.6088
16641TIP3    H171338   1.727   5.407   2.581 -0.7691 -0.6834  1.4992
16641TIP3    H271339   1.581   5.405   2.542 -0.6260 -0.4699  0.9558
16642TIP3   OH271340   0.570   1.350  11.711 -0.8786 -0.1002 -0.1323
16642TIP3    H171341   0.607   1.294  11.642  1.0137 -0.9681  1.5378
16642TIP3    H271342   0.631   1.341  11.784 -0.7172  3.9230  0.3147
16643TIP3   OH271343   4.667   0.308  13.565 -0.0440 -0.1522  0.1147
16643TIP3    H171344   4.637   0.374  13.628  1.0837  1.6969 -1.2138
16643TIP3    H271345   4.717   0.245  13.618 -0.3729  0.5438  1.2789
16644TIP3   OH271346   6.600   3.540   1.893 -0.0003 -0.0368  0.4665
16644TIP3    H171347   6.615   3.571   1.983  0.4084  1.1255  0.0109
16644TIP3    H271348   6.540   3.604   1.856 -1.7298 -1.6088  0.5128
16645TIP3   OH271349   4.758   1.879  16.545 -0.3534 -0.2806  0.1995
16645TIP3    H171350   4.728   1.891  16.455 -0.2881  0.2791  0.2523
16645TIP3    H271351   4.755   1.967  16.583  2.7229  0.0889 -0.2247
16646TIP3   OH271352   2.337   2.139   3.041  0.2463  0.9335  0.1580
16646TIP3    H171353   2.356   2.084   3.117  2.1836  2.1006  0.5544
16646TIP3    H271354   2.366   2.227   3.067 -0.9271  1.7486 -1.1936
16647TIP3   OH271355   4.500   2.133   0.569  0.1585  0.1392 -0.0443
16647TIP3    H171356   4.534   2.057   0.521  1.4531  1.4252 -1.2341
16647TIP3    H271357   4.451   2.095   0.642 -1.0342 -1.8595 -1.8161
16648TIP3   OH271358   0.011   4.580  10.901  0.1657 -0.6094  0.5958
16648TIP3    H171359  -0.050   4.629  10.956  0.3984 -0.0421  0.3584
16648TIP3    H271360  -0.018   4.489  10.907 -0.4801 -0.3931  0.7714
16649TIP3   OH271361   5.014   5.787   2.504 -0.2861  0.5450  0.0991
16649TIP3    H171362   5.005   5.692   2.498 -1.1097  0.5662  0.9156
16649TIP3    H271363   5.073   5.810   2.432 -0.9128 -0.4575 -0.7516
16650TIP3   OH271364   3.310   4.288   1.907  0.3416 -0.3789  0.2290
16650TIP3    H171365   3.376   4.235   1.863  0.0201 -1.9893  1.6276
16650TIP3    H271366   3.231   4.234   1.905 -0.0131  0.0639  1.6011
16651TIP3   OH271367   2.310   2.689   6.127 -0.5339  0.6819 -0.5525
16651TIP3    H171368   2.390   2.736   6.152  0.7150 -1.2279 -0.8909
16651TIP3    H271369   2.335   2.636   6.052 -1.7309 -1.0816  0.2522
16652TIP3   OH271370   6.670   0.848  11.552 -0.2333  0.0435  0.0393
16652TIP3    H171371   6.651   0.940  11.570 -0.8233 -0.2384  0.8601
16652TIP3    H271372   6.651   0.838  11.459 -0.8823  0.5689  0.1154
16653TIP3   OH271373   1.025   1.117  10.724 -0.1397  0.2817 -0.0863
16653TIP3    H171374   1.106   1.123  10.775 -0.2219  1.3835 -0.0810
16653TIP3    H271375   1.048   1.150  10.638 -0.0363 -1.4705 -0.7599
16654TIP3   OH271376   3.503   6.746  13.823  0.0567  0.2077  0.0618
16654TIP3    H171377   3.493   6.651  13.831 -0.7348  0.3962  1.4909
16654TIP3    H271378   3.448   6.782  13.892 -1.6340  1.8218 -2.0636
16655TIP3   OH271379   3.870   2.629   3.118 -0.3525 -0.6941  0.6252
16655TIP3    H171380   3.807   2.681   3.168 -0.1297  0.3049 -0.1235
16655TIP3    H271381   3.817   2.584   3.052 -0.1709  0.9620 -0.6798
16656TIP3   OH271382   6.271   0.460   0.473 -0.4707 -0.2581  0.1388
16656TIP3    H171383   6.293   0.502   0.390  2.0664  0.6254  1.1980
16656TIP3    H271384   6.273   0.366   0.454 -0.4638 -0.0475 -0.9246
16657TIP3   OH271385   2.309   0.574   4.875  0.5458  0.1147 -1.0050
16657TIP3    H171386   2.373   0.623   4.824  0.9510  0.5661 -0.0792
16657TIP3    H271387   2.358   0.501   4.912  0.9264  1.3736  1.0383
16658TIP3   OH271388   1.484   0.900  16.962 -0.0425  0.1662 -0.7176
16658TIP3    H171389   1.401   0.946  16.976  0.0975  0.8260 -1.9668
16658TIP3    H271390   1.549   0.970  16.960  0.8363 -0.4964  2.2512
16659TIP3   OH271391   0.502   3.130  13.884 -0.0844 -0.2062  0.3767
16659TIP3    H171392   0.596   3.142  13.897 -0.1949 -0.6005  1.5955
16659TIP3    H271393   0.470   3.216  13.858  0.7810 -0.3191 -1.1472
16660TIP3   OH271394   1.792   6.710  15.473  0.0633  0.0050 -0.2487
16660TIP3    H171395   1.797   6.615  15.474 -0.6741 -0.0543 -0.9721
16660TIP3    H271396   1.771   6.735  15.563 -1.9457 -0.6711 -0.5117
16661TIP3   OH271397   0.800   4.620  16.134  0.5614  0.1896  0.9009
16661TIP3    H171398   0.763   4.672  16.206  2.2949  2.6020  0.1214
16661TIP3    H271399   0.881   4.583  16.170  0.0922 -0.7772  0.9850
16662TIP3   OH271400   0.139   4.108   4.210 -0.4149 -0.2225  0.5207
16662TIP3    H171401   0.132   4.023   4.167 -0.6090 -0.2607  0.6251
16662TIP3    H271402   0.195   4.160   4.153 -0.2919 -0.4247  0.4599
16663TIP3   OH271403   0.987   3.044  14.032  0.6580 -0.1190  0.8215
16663TIP3    H171404   1.070   2.998  14.025  1.0141  0.2867  2.2746
16663TIP3    H271405   0.922   2.974  14.041  0.9653 -0.3989  0.8621
16664TIP3   OH271406   2.821   5.518  16.453 -0.5449  0.2095  0.0905
16664TIP3    H171407   2.876   5.514  16.531 -0.1885 -1.0869 -0.2253
16664TIP3    H271408   2.883   5.523  16.380 -0.8765  1.7260 -0.1023
16665TIP3   OH271409   2.290   5.526  15.641 -0.2504  0.2380 -0.0010
16665TIP3    H171410   2.268   5.468  15.714  0.1156  1.2119  0.9090
16665TIP3    H271411   2.292   5.614  15.681  0.4196  0.7220 -1.0849
16666TIP3   OH271412   1.274   4.145  11.874 -0.1972 -0.4410 -0.6715
16666TIP3    H171413   1.193   4.098  11.892 -0.1224 -0.0456  0.8138
16666TIP3    H271414   1.264   4.228  11.922  2.1913 -1.5194  1.8530
16667TIP3   OH271415   5.984   5.727   0.393 -0.0043 -0.0260 -0.5476
16667TIP3    H171416   6.030   5.769   0.321  0.9527  0.8753  0.5536
16667TIP3    H271417   5.949   5.800   0.445 -0.5224 -0.6495  0.0015
16668TIP3   OH271418   4.590   3.090  16.396  0.2192 -0.8268  0.0225
16668TIP3    H171419   4.547   3.013  16.359  1.4995 -0.9373 -1.2576
16668TIP3    H271420   4.675   3.058  16.427  1.8357  0.5227 -2.8298
16669TIP3   OH271421   0.958   6.520   3.908  0.4612 -0.5094 -0.7092
16669TIP3    H171422   0.866   6.507   3.929  0.4746  1.0827  0.3829
16669TIP3    H271423   0.967   6.614   3.894  1.6213 -0.8348 -2.2793
16670TIP3   OH271424   3.842   4.593   1.953 -0.0476 -0.0253 -0.5254
16670TIP3    H171425   3.765   4.547   1.919  0.2910 -0.2800 -0.9579
16670TIP3    H271426   3.895   4.524   1.992  0.3446  0.0331 -0.9538
16671TIP3   OH271427   4.722   1.186  16.401  0.9577 -0.7234 -0.3843
16671TIP3    H171428   4.802   1.232  16.423  1.3205 -1.8263  0.6345
16671TIP3    H271429   4.701   1.215  16.312  1.6388  0.7403 -0.0704
16672TIP3   OH271430   5.610   1.644  16.481  0.6248 -0.2377  0.3317
16672TIP3    H171431   5.541   1.693  16.436  2.2252  0.0420 -1.9050
16672TIP3    H271432   5.644   1.706  16.546  2.1208  1.4275 -1.9603
16673TIP3   OH271433   6.746   1.405  13.689  0.7129 -0.4127 -0.2269
16673TIP3    H171434   6.763   1.480  13.631 -0.2699  1.4008  1.7724
16673TIP3    H271435   6.650   1.400  13.692  0.7044  0.9492  3.0165
16674TIP3   OH271436   2.165   4.589  13.165  0.0200 -0.7079  0.1265
16674TIP3    H171437   2.247   4.540  13.156  0.2524 -0.2775 -0.0969
16674TIP3    H271438   2.118   4.571  13.084 -0.0019 -0.7583  0.1506
16675TIP3   OH271439   0.389   3.686  13.102 -0.3101 -0.1487 -0.2589
16675TIP3    H171440   0.359   3.632  13.028 -0.7999  0.5032 -0.5411
16675TIP3    H271441   0.394   3.625  13.175 -0.6529 -0.6263 -0.6264
16676TIP3   OH271442   0.887   4.315   0.992  0.1316  0.1598 -0.0589
16676TIP3    H171443   0.944   4.283   1.062  0.0663  1.4312  0.5887
16676TIP3    H271444   0.947   4.346   0.925  0.2237  1.2115  0.4924
16677TIP3   OH271445   1.145   5.179  17.014 -0.1186  0.0594  0.2013
16677TIP3    H171446   1.067   5.177  16.959 -0.9785 -1.1352  1.4246
16677TIP3    H271447   1.211   5.132  16.963 -0.9156 -1.0684  0.1792
16678TIP3   OH271448   3.817   0.511  12.966 -0.5519  0.0939  0.1370
16678TIP3    H171449   3.845   0.462  13.043 -0.8756 -0.5705 -0.1550
16678TIP3    H271450   3.898   0.544  12.926 -0.2600 -0.8984 -0.1107
16679TIP3   OH271451   5.659   1.883   4.444 -0.1965  0.2089  0.5327
16679TIP3    H171452   5.609   1.958   4.477 -1.4320 -0.7766  0.9512
16679TIP3    H271453   5.618   1.863   4.359  0.1708  0.0469  0.3923
16680TIP3   OH271454   3.923   3.705  12.748  0.2774  0.4603 -0.9838
16680TIP3    H171455   3.901   3.790  12.709  0.7240  1.2238  0.3976
16680TIP3    H271456   3.882   3.707  12.835  1.7193 -0.0444 -0.2823
16681TIP3   OH271457   0.102   3.681  11.418  0.0799 -0.0601 -0.7373
16681TIP3    H171458   0.074   3.686  11.326 -0.7180  1.2181 -0.4360
16681TIP3    H271459   0.196   3.699  11.415 -0.1284  0.9819 -1.2113
16682TIP3   OH271460   1.535   0.714   5.499 -0.5474  0.3869 -0.0670
16682TIP3    H171461   1.533   0.802   5.539 -1.0806  0.5391 -0.4342
16682TIP3    H271462   1.444   0.695   5.478 -0.3161  0.1475 -0.8676
16683TIP3   OH271463   0.572   1.293   6.248 -0.1440 -0.3443 -0.4446
16683TIP3    H171464   0.644   1.253   6.199  0.0780  0.2082 -0.5756
16683TIP3    H271465   0.541   1.224   6.307 -1.2328 -1.4111 -2.2239
16684TIP3   OH271466   6.524   2.513  14.152 -0.4358  0.3387  0.0087
16684TIP3    H171467   6.522   2.601  14.189  1.0539  1.1079 -1.6654
16684TIP3    H271468   6.612   2.504  14.116 -1.3272 -0.9199 -1.9730
16685TIP3   OH271469   0.839   0.346   4.530  0.4485  0.7336 -0.1701
16685TIP3    H171470   0.771   0.412   4.543  1.3305  1.7887 -0.7545
16685TIP3    H271471   0.901   0.388   4.470  1.1988 -0.5086 -0.2719
16686TIP3   OH271472   5.245   6.571  11.706  0.2113 -0.4909 -0.7802
16686TIP3    H171473   5.290   6.643  11.662 -0.0557 -0.3205 -0.7743
16686TIP3    H271474   5.202   6.523  11.636 -0.6333  0.0768 -0.6478
16687TIP3   OH271475   4.325   4.790   1.015 -0.2560 -0.5149  0.2450
16687TIP3    H171476   4.394   4.748   1.066  0.3342 -1.2513 -1.1461
16687TIP3    H271477   4.248   4.735   1.029 -0.3852 -0.1087  1.1951
16688TIP3   OH271478   6.408   1.543  15.912  0.3624  0.1304 -0.2391
16688TIP3    H171479   6.466   1.515  15.983  0.7043  1.2653 -0.0618
16688TIP3    H271480   6.413   1.639  15.913  0.1909  0.1624 -1.6485
16689TIP3   OH271481   4.873   4.515   3.252  0.1139 -0.2821  0.0705
16689TIP3    H171482   4.875   4.420   3.246  0.8142 -0.2658 -0.0463
16689TIP3    H271483   4.844   4.544   3.165  0.6623 -0.3663 -0.1433
16690TIP3   OH271484   5.571   3.740  16.916  0.0032 -0.3627  0.2615
16690TIP3    H171485   5.505   3.797  16.955 -0.2571  0.0799 -0.8048
16690TIP3    H271486   5.623   3.709  16.990 -0.5426  0.3724  0.9631
16691TIP3   OH271487   3.138   0.309   2.508 -0.2593  0.0829 -0.0100
16691TIP3    H171488   3.199   0.306   2.581 -0.9476  0.4300  0.5769
16691TIP3    H271489   3.136   0.219   2.474  0.4259  0.0273  0.0804
16692TIP3   OH271490   1.754   1.213  11.911  0.1023  0.6530  0.3889
16692TIP3    H171491   1.763   1.123  11.942  1.5586  0.4486 -0.5481
16692TIP3    H271492   1.669   1.216  11.868  1.4835 -1.2497 -2.6280
16693TIP3   OH271493   1.588   4.360   0.332  0.3409 -0.2308  0.2674
16693TIP3    H171494   1.664   4.415   0.313  0.7033 -1.0262 -0.5805
16693TIP3    H271495   1.617   4.301   0.401  0.5124 -0.5540 -0.0768
16694TIP3   OH271496   6.437   3.444   2.362 -0.8008  0.0451  0.1472
16694TIP3    H171497   6.474   3.418   2.278 -2.7238 -0.2618 -0.6442
16694TIP3    H271498   6.460   3.536   2.372  0.2340 -0.1623 -0.2623
16695TIP3   OH271499   5.749   4.137  10.922 -0.3038  0.1641  0.2517
16695TIP3    H171500   5.728   4.206  10.860 -1.6889  1.2864  1.9129
16695TIP3    H271501   5.837   4.157  10.951  0.5883 -0.7105 -1.7589
16696TIP3   OH271502   2.490   1.011   0.118 -0.5951  0.5274 -0.4311
16696TIP3    H171503   2.424   0.999   0.050 -0.9098  0.6127 -0.1458
16696TIP3    H271504   2.478   0.936   0.176 -0.2419  0.3858 -0.5403
16697TIP3   OH271505   5.020   3.374   4.176 -0.4757 -0.0193  0.2919
16697TIP3    H171506   5.066   3.444   4.223  0.0869  1.3528 -2.1875
16697TIP3    H271507   4.930   3.406   4.168 -0.1321  0.6370 -1.1708
16698TIP3   OH271508   3.446   0.263  11.886  0.0985 -0.3642 -0.3329
16698TIP3    H171509   3.387   0.208  11.937 -2.1504  1.9259 -0.3855
16698TIP3    H271510   3.432   0.351  11.919 -0.6936  1.0397 -4.1890
16699TIP3   OH271511   3.629   4.759  14.664 -0.5238  0.0181  0.2282
16699TIP3    H171512   3.707   4.722  14.621 -1.4664 -0.7301 -0.8673
16699TIP3    H271513   3.583   4.683  14.699 -0.4936  0.5094  1.3477
16700TIP3   OH271514   0.554   4.690   4.080  0.4045  0.1468  0.2322
16700TIP3    H171515   0.557   4.767   4.024  1.8265  0.9473  1.3640
16700TIP3    H271516   0.643   4.683   4.116  0.1403 -1.6768  0.5968
16701TIP3   OH271517   6.325   3.421  17.223 -0.0842 -0.2433  0.4463
16701TIP3    H171518   6.313   3.370  17.303  0.6342 -1.4525 -0.2000
16701TIP3    H271519   6.420   3.418  17.208 -0.1015  0.8160  0.0871
16702TIP3   OH271520   3.155   5.942  17.224 -0.0395  0.1833 -0.5024
16702TIP3    H171521   3.214   5.867  17.210 -0.2792 -0.0483 -0.2770
16702TIP3    H271522   3.092   5.911  17.289 -0.7077  0.2570 -1.0971
16703TIP3   OH271523   3.406   0.976  12.851 -0.1755 -0.0525  0.0074
16703TIP3    H171524   3.434   0.995  12.761 -0.6825  1.3933  0.1413
16703TIP3    H271525   3.333   0.915  12.840 -0.1631  0.0249 -0.5617
16704TIP3   OH271526   1.680   0.703  13.289  0.1638 -0.3592 -0.1302
16704TIP3    H171527   1.756   0.682  13.234  0.2785 -3.6882  1.1971
16704TIP3    H271528   1.702   0.668  13.376 -2.0150  0.5239  0.8326
16705TIP3   OH271529   5.015   1.522  17.219  0.5448  0.4697 -0.1946
16705TIP3    H171530   4.988   1.600  17.267  0.8531  1.2380 -1.2478
16705TIP3    H271531   4.940   1.463  17.224  0.5924  0.5235  1.2561
16706TIP3   OH271532   4.628   3.976  15.991  0.0281 -0.0608  0.4866
16706TIP3    H171533   4.601   3.901  16.043  0.6351  0.5300  1.6714
16706TIP3    H271534   4.649   3.940  15.905  0.1697 -1.2205  1.0018
16707TIP3   OH271535   0.960   0.151  11.415 -0.1213  0.1618 -0.1897
16707TIP3    H171536   0.933   0.061  11.434  1.8117 -0.3255  0.3877
16707TIP3    H271537   0.937   0.163  11.323 -1.2439 -0.6069 -0.0185
16708TIP3   OH271538   2.725   4.086  15.636  0.1379 -0.2954 -0.2714
16708TIP3    H171539   2.774   4.134  15.702 -0.0546  3.1190 -2.4440
16708TIP3    H271540   2.658   4.148  15.605 -0.0996 -1.9101 -3.2700
16709TIP3   OH271541   1.165   4.923  14.268 -0.2244 -0.4708  0.2801
16709TIP3    H171542   1.135   4.833  14.278 -0.2919 -0.5169 -0.3116
16709TIP3    H271543   1.132   4.950  14.182  0.3905 -0.1198  0.1495
16710TIP3   OH271544   6.233   0.042  11.160  0.2342  0.1062 -0.1123
16710TIP3    H171545   6.300   0.025  11.094  1.5115  1.2830  0.8356
16710TIP3    H271546   6.170   0.099  11.117  0.3608 -0.2152 -0.7210
16711TIP3   OH271547   4.740   1.306   4.338 -0.1587 -0.3864  0.4037
16711TIP3    H171548   4.666   1.276   4.285 -1.8246  3.0296  0.6511
16711TIP3    H271549   4.714   1.287   4.428 -0.2076 -0.3180  0.4046
16712TIP3   OH271550   1.598   3.272   5.882 -0.1951 -0.5599 -0.2665
16712TIP3    H171551   1.635   3.279   5.970 -1.1969  0.5145  0.0715
16712TIP3    H271552   1.672   3.291   5.824 -0.3554  2.6148  0.4327
16713TIP3   OH271553   1.661   5.317  10.657  0.2474  0.1041 -0.3409
16713TIP3    H171554   1.584   5.327  10.713  0.6956 -0.5945  0.4083
16713TIP3    H271555   1.724   5.269  10.711  1.1323  0.4971 -1.0225
16714TIP3   OH271556   6.317   6.577  16.743  0.3227  0.0797  0.1476
16714TIP3    H171557   6.265   6.567  16.664 -0.7317  2.8725  0.4477
16714TIP3    H271558   6.400   6.615  16.713 -0.5910  2.4291  0.4903
16715TIP3   OH271559   5.704   6.312  16.194 -0.2480  0.1832  1.3450
16715TIP3    H171560   5.701   6.221  16.165  1.5165  0.6799 -0.5381
16715TIP3    H271561   5.780   6.317  16.251  2.2646  1.3089 -1.9101
16716TIP3   OH271562   6.642   5.440  15.839 -0.4476 -0.2492 -0.1372
16716TIP3    H171563   6.624   5.449  15.746  0.1280 -0.1802 -0.2393
16716TIP3    H271564   6.667   5.349  15.851 -2.4988 -0.7960  0.2877
16717TIP3   OH271565   1.262   4.696   1.312  0.0303  0.0646 -0.5141
16717TIP3    H171566   1.313   4.742   1.245 -0.1295  0.9857 -0.0016
16717TIP3    H271567   1.173   4.731   1.303 -0.5544 -1.5532 -1.4202
16718TIP3   OH271568   5.382   4.798   0.660  0.4155 -0.3488  0.4162
16718TIP3    H171569   5.403   4.711   0.627  0.5263  0.1353 -0.8619
16718TIP3    H271570   5.442   4.812   0.732  0.7202 -1.1443  0.3220
16719TIP3   OH271571   5.354   6.164   0.299  0.0154  0.1363  0.0726
16719TIP3    H171572   5.320   6.137   0.385 -0.6884  0.0415 -0.2267
16719TIP3    H271573   5.435   6.210   0.319 -0.6336  0.9579  0.8709
16720TIP3   OH271574   3.780   3.953   2.143 -0.0104 -0.2085  1.2271
16720TIP3    H171575   3.866   3.994   2.152  0.2603 -0.1521 -1.4291
16720TIP3    H271576   3.725   4.021   2.104  0.1870 -1.9501 -2.2953
16721TIP3   OH271577   1.776   4.587  14.056 -0.2505 -0.3985 -0.2618
16721TIP3    H171578   1.832   4.568  14.131  1.7208  1.7766 -1.1097
16721TIP3    H271579   1.754   4.501  14.020  1.2325 -1.3536  1.0265
16722TIP3   OH271580   3.909   5.995   0.699  1.0000 -0.2816  0.4812
16722TIP3    H171581   3.872   5.907   0.684 -1.4793  0.7286  0.4816
16722TIP3    H271582   3.837   6.055   0.682  3.9885  2.2000 -4.9281
16723TIP3   OH271583   1.459   3.665  10.634 -0.3388 -1.0748 -0.1807
16723TIP3    H171584   1.477   3.577  10.669  2.1463 -0.5094  0.0103
16723TIP3    H271585   1.503   3.666  10.549 -1.1230 -0.3041 -0.5789
16724TIP3   OH271586   1.187   3.108  11.725 -0.3485  0.4753  0.0567
16724TIP3    H171587   1.183   3.060  11.642 -1.6460  1.2970 -0.3637
16724TIP3    H271588   1.119   3.067  11.779  1.2402 -0.8115  1.1456
16725TIP3   OH271589   0.623   3.429  12.422 -1.0897 -0.6210  0.1514
16725TIP3    H171590   0.627   3.513  12.376  0.8312 -0.2131  1.0399
16725TIP3    H271591   0.713   3.410  12.446 -1.5653 -2.7150  0.4043
16726TIP3   OH271592   3.999   2.694   4.318  0.5044 -0.5516  0.2803
16726TIP3    H171593   3.962   2.661   4.236  0.5823  0.9399 -0.3608
16726TIP3    H271594   3.936   2.758   4.350  1.2854  0.1173  0.5131
16727TIP3   OH271595   4.444   5.623   1.990  1.1042 -0.4776  0.7173
16727TIP3    H171596   4.384   5.548   1.995 -0.6950  0.9322  0.8728
16727TIP3    H271597   4.471   5.627   1.898 -0.5301 -0.0089  0.2453
16728TIP3   OH271598   0.854   2.440   4.414  0.6602  0.4164  0.7746
16728TIP3    H171599   0.814   2.498   4.348  1.6654 -0.0429 -0.2574
16728TIP3    H271600   0.828   2.352   4.387  3.2482  0.0286 -0.5538
16729TIP3   OH271601   6.204   0.596   4.242  0.3689  0.0478 -0.2238
16729TIP3    H171602   6.222   0.636   4.157  0.5067  0.8663  0.1909
16729TIP3    H271603   6.180   0.669   4.299  1.1560 -0.3864  0.6799
16730TIP3   OH271604   0.895   6.574  12.205  0.8542  0.4737  0.0007
16730TIP3    H171605   0.822   6.612  12.255  1.5725  1.3392  0.3932
16730TIP3    H271606   0.937   6.514  12.268 -0.1082 -0.7994 -0.5322
16731TIP3   OH271607   0.199   1.221   2.828 -0.1711  0.8065 -0.4152
16731TIP3    H171608   0.233   1.254   2.911 -0.0307  0.4146 -0.3157
16731TIP3    H271609   0.229   1.130   2.824 -0.6256  0.6638 -0.6468
16732TIP3   OH271610   2.310   2.538  12.010 -0.7780  0.1677 -0.3195
16732TIP3    H171611   2.291   2.624  12.047 -0.3354  0.4966 -0.8563
16732TIP3    H271612   2.325   2.554  11.917 -0.0898 -0.4001 -0.3101
16733TIP3   OH271613   5.384   1.458  10.914  0.1192 -0.1132 -0.1285
16733TIP3    H171614   5.303   1.470  10.864 -0.3489  0.9368  0.8619
16733TIP3    H271615   5.404   1.365  10.904 -1.0050 -0.3139 -0.6881
16734TIP3   OH271616   3.134   3.180   3.598  0.0613 -0.1677 -0.6923
16734TIP3    H171617   3.154   3.273   3.610  1.7359 -0.5935 -0.0604
16734TIP3    H271618   3.142   3.142   3.685 -0.0645 -1.0085 -1.0379
16735TIP3   OH271619   1.745   0.505   4.947  0.3000  0.1591  0.0327
16735TIP3    H171620   1.764   0.531   5.037  1.5782  1.8950 -0.6921
16735TIP3    H271621   1.792   0.423   4.935  1.4785  0.7580  0.4791
16736TIP3   OH271622   2.831   1.856   1.858 -0.3163 -0.0420  0.8326
16736TIP3    H171623   2.771   1.794   1.816  0.4040 -0.4685  0.4220
16736TIP3    H271624   2.774   1.915   1.907 -1.2007  0.6298 -0.9618
16737TIP3   OH271625   3.802   0.625   0.061 -0.4200  0.1226 -0.2674
16737TIP3    H171626   3.832   0.616  -0.030 -0.9505 -0.1723 -0.4191
16737TIP3    H271627   3.778   0.536   0.087 -1.2699  0.3681 -0.1939
16738TIP3   OH271628   5.373   4.142   5.005 -0.0484  0.1568  0.4202
16738TIP3    H171629   5.346   4.051   4.998  2.8714 -0.7404  0.2479
16738TIP3    H271630   5.423   4.146   5.087  1.6009  1.1246 -0.6088
16739TIP3   OH271631   3.944   5.872   1.301 -0.0065  0.2009  0.4103
16739TIP3    H171632   3.888   5.901   1.373  1.4964  0.9762  1.2910
16739TIP3    H271633   3.993   5.950   1.276  1.6963 -0.8030  0.5884
16740TIP3   OH271634   6.517   2.852  14.131  0.1746 -0.0396 -0.5446
16740TIP3    H171635   6.422   2.849  14.129  0.0823  2.4245 -2.6298
16740TIP3    H271636   6.538   2.919  14.197  0.4688 -0.5234 -0.1405
16741TIP3   OH271637   1.239   2.994   3.365 -0.1032  0.3875  0.5734
16741TIP3    H171638   1.166   3.028   3.313  1.1262  1.2052 -0.6799
16741TIP3    H271639   1.249   2.903   3.336  0.9668  1.0110 -1.1434
16742TIP3   OH271640   5.568   1.874  11.158  0.4327 -0.1023 -0.6948
16742TIP3    H171641   5.585   1.961  11.122 -1.7917  1.0626  0.9498
16742TIP3    H271642   5.606   1.877  11.246  1.5649 -1.2705 -1.1416
16743TIP3   OH271643   6.012   1.198   1.338  0.4678  0.4729 -0.4562
16743TIP3    H171644   6.085   1.251   1.307 -0.1299  0.8116 -1.3394
16743TIP3    H271645   6.020   1.116   1.290 -0.6579  1.1266 -1.8094
16744TIP3   OH271646   4.909   2.201   2.480 -0.2774  0.1775  0.3650
16744TIP3    H171647   4.989   2.171   2.522  0.1959  1.0095  0.0593
16744TIP3    H271648   4.847   2.216   2.552  0.1276  0.3979  0.6674
16745TIP3   OH271649   6.678   2.764  16.745 -0.7124 -1.0044  0.1690
16745TIP3    H171650   6.605   2.734  16.691 -0.5574 -0.3861 -0.4061
16745TIP3    H271651   6.640   2.831  16.802 -0.5470 -0.4524 -0.3524
16746TIP3   OH271652   3.255   0.074   6.187  0.3153 -0.3610  0.4520
16746TIP3    H171653   3.332   0.040   6.234  0.2746  1.0986  1.6045
16746TIP3    H271654   3.200   0.111   6.256 -0.4976  0.4024 -0.5963
16747TIP3   OH271655   6.355   2.551   1.393 -0.2714 -0.2652  0.5760
16747TIP3    H171656   6.448   2.574   1.394 -0.0779 -0.9614 -0.2475
16747TIP3    H271657   6.354   2.455   1.382 -1.0723 -0.4009  1.7036
16748TIP3   OH271658   0.820   5.909   0.065  0.4071 -0.1720 -0.3270
16748TIP3    H171659   0.749   5.851   0.092  1.4063 -1.5311 -0.5337
16748TIP3    H271660   0.779   5.995   0.053 -0.7757 -0.4490  1.6368
16749TIP3   OH271661   1.407   0.817  13.631  0.5402 -0.3583 -0.0515
16749TIP3    H171662   1.435   0.816  13.539  2.0881  0.3367  0.3983
16749TIP3    H271663   1.418   0.727  13.661  0.1818 -0.5521 -0.4912
16750TIP3   OH271664   0.576   6.555  14.828 -0.3395  0.2755 -0.0421
16750TIP3    H171665   0.662   6.580  14.863 -0.1584  0.0632 -0.3337
16750TIP3    H271666   0.577   6.583  14.737 -0.8204  0.8421  0.1216
16751TIP3   OH271667   4.759   0.090  12.963  0.1671 -0.2810  0.4664
16751TIP3    H171668   4.687   0.060  13.018  1.0251 -1.9909  0.6930
16751TIP3    H271669   4.838   0.069  13.013  0.8749  0.6749 -0.2124
16752TIP3   OH271670   1.341   1.978  11.655 -0.0488 -0.4982 -0.0100
16752TIP3    H171671   1.307   1.934  11.733  2.1686 -2.7354 -0.2418
16752TIP3    H271672   1.430   1.945  11.645  0.2916  0.9983 -2.5762
16753TIP3   OH271673   2.711   4.844  10.673  0.6134  0.0434  0.4978
16753TIP3    H171674   2.730   4.902  10.599  0.8333 -0.4888  0.1361
16753TIP3    H271675   2.635   4.884  10.716  0.4124  0.2904 -0.0862
16754TIP3   OH271676   6.538   6.600  11.540  0.4856 -0.4960  0.0387
16754TIP3    H171677   6.633   6.610  11.530  0.9936 -1.8386  2.9030
16754TIP3    H271678   6.510   6.682  11.579  0.3211  0.1865 -1.4719
16755TIP3   OH271679   6.519   0.095   1.344 -0.1790 -0.0706 -0.6653
16755TIP3    H171680   6.601   0.108   1.296  0.6690 -0.9273  0.5252
16755TIP3    H271681   6.483   0.183   1.354  0.3513  0.2642 -1.6139
16756TIP3   OH271682   5.593   5.904   6.338 -0.1112  0.6788  0.1785
16756TIP3    H171683   5.637   5.820   6.323  1.1711  1.5222 -1.0207
16756TIP3    H271684   5.532   5.888   6.409 -0.8520 -1.6088 -0.9383
16757TIP3   OH271685   4.729   3.293  14.348  0.3835 -0.4881  0.3321
16757TIP3    H171686   4.680   3.351  14.406  0.7284  0.4418 -0.2949
16757TIP3    H271687   4.675   3.214  14.342  0.3149 -0.5687  1.8522
16758TIP3   OH271688   2.974   2.806   5.558 -0.2620 -0.6463  0.0346
16758TIP3    H171689   2.894   2.758   5.578  0.5970 -1.5699  1.2642
16758TIP3    H271690   2.991   2.859   5.636  1.1673 -1.6222  0.4068
16759TIP3   OH271691   3.993   2.107   2.221 -0.9136  0.5608  0.4153
16759TIP3    H171692   3.921   2.045   2.222 -1.4960  1.2305  0.9260
16759TIP3    H271693   3.951   2.193   2.231 -0.1335  1.0473 -0.3458
16760TIP3   OH271694   5.115   6.084   1.664  0.2188 -0.3414 -0.3729
16760TIP3    H171695   5.109   6.159   1.605  0.8316  0.9663  1.1977
16760TIP3    H271696   5.203   6.050   1.651 -0.3263 -1.3105 -1.6719
16761TIP3   OH271697   2.972   2.861  15.862  0.1003  0.3778  0.4295
16761TIP3    H171698   2.933   2.909  15.935 -1.7807  0.1207 -0.4012
16761TIP3    H271699   3.005   2.929  15.804  0.8104  0.5955  1.0713
16762TIP3   OH271700   2.599   4.850  13.829 -0.1513 -0.1124 -0.0080
16762TIP3    H171701   2.558   4.932  13.802  1.5553  1.0359  0.8039
16762TIP3    H271702   2.589   4.848  13.925 -1.5209 -1.5991 -0.1603
16763TIP3   OH271703   6.131   4.852   6.030 -0.2615 -0.4509 -0.1315
16763TIP3    H171704   6.155   4.776   5.977 -1.3996 -2.3111  1.9244
16763TIP3    H271705   6.043   4.832   6.062  0.1272  0.9292  1.8866
16764TIP3   OH271706   2.624   1.223  16.356 -0.1335  0.0686  0.8312
16764TIP3    H171707   2.611   1.314  16.327 -0.9277 -0.2694  0.1027
16764TIP3    H271708   2.654   1.178  16.277  1.0490 -0.1370  1.3915
16765TIP3   OH271709   0.306   3.662  12.105 -0.0641 -0.1191  0.5278
16765TIP3    H171710   0.332   3.730  12.167 -0.2120  0.2831  0.1569
16765TIP3    H271711   0.380   3.602  12.102  1.5687  1.9431 -1.8449
16766TIP3   OH271712   5.534   2.756   0.351 -0.4368 -0.1871  0.1359
16766TIP3    H171713   5.485   2.727   0.428 -0.0791  0.1511  0.4904
16766TIP3    H271714   5.621   2.718   0.362 -0.0992  0.6689  0.3783
16767TIP3   OH271715   5.703   0.277  14.859 -0.0697 -0.0842  0.2420
16767TIP3    H171716   5.661   0.309  14.779  0.8883  0.6801  0.0477
16767TIP3    H271717   5.646   0.205  14.888  0.2971 -1.2310 -1.8289
16768TIP3   OH271718   3.659   6.097  12.877  0.7971 -0.0203 -0.7042
16768TIP3    H171719   3.688   6.184  12.848  1.0770  1.1054  2.7989
16768TIP3    H271720   3.732   6.040  12.856  1.4858  0.9838 -1.0832
16769TIP3   OH271721   2.912   5.309   5.112  0.1723 -0.2560 -0.1533
16769TIP3    H171722   2.931   5.267   5.196 -1.6949 -0.4075  0.2195
16769TIP3    H271723   2.959   5.392   5.115 -0.0625 -0.1541  1.1541
16770TIP3   OH271724   1.415   4.177   2.340 -0.1803 -0.2004  0.2562
16770TIP3    H171725   1.485   4.213   2.394  1.4428 -2.1624 -0.4777
16770TIP3    H271726   1.378   4.252   2.295  1.3323  0.8901  0.8018
16771TIP3   OH271727   0.312   5.034  14.813  0.0974 -0.2517  0.2825
16771TIP3    H171728   0.402   5.005  14.826  0.7262  1.5513  0.1838
16771TIP3    H271729   0.282   5.060  14.900  0.2704  0.7492  0.0538
16772TIP3   OH271730   3.750   4.341   6.084 -0.1070 -0.1246 -0.3155
16772TIP3    H171731   3.660   4.308   6.081 -0.0240 -0.3706 -0.0076
16772TIP3    H271732   3.744   4.421   6.136 -0.2555  0.1972 -0.8182
16773TIP3   OH271733   0.925   3.921   0.863  0.2318  0.1196  0.1136
16773TIP3    H171734   0.953   4.012   0.851 -0.2997  0.0409 -1.9655
16773TIP3    H271735   0.981   3.871   0.803 -1.4382 -0.5687 -0.8793
16774TIP3   OH271736   5.307   3.296   5.005 -0.8017  0.8544 -0.4672
16774TIP3    H171737   5.368   3.361   5.041  0.1219  0.9984 -2.2161
16774TIP3    H271738   5.255   3.345   4.942 -2.6687  0.6913  0.9155
16775TIP3   OH271739   4.679   3.885   5.772  0.1195 -0.0544 -0.3282
16775TIP3    H171740   4.757   3.870   5.718  1.3769 -0.4656  1.5179
16775TIP3    H271741   4.669   3.980   5.773  1.1220  0.0632  0.0758
16776TIP3   OH271742   3.319   0.913  16.488 -0.3351  0.0166 -0.1061
16776TIP3    H171743   3.311   0.986  16.550  2.6289  0.8588 -0.6256
16776TIP3    H271744   3.368   0.846  16.535 -1.1099 -0.7601 -0.3835
16777TIP3   OH271745   0.167   1.745   1.849 -0.3670  0.6609 -0.5078
16777TIP3    H171746   0.186   1.761   1.756 -0.1751  0.1220 -0.5581
16777TIP3    H271747   0.167   1.833   1.888  1.2212  0.7520 -0.6855
16778TIP3   OH271748   2.445   3.363  13.661 -0.4913  0.9894  0.4168
16778TIP3    H171749   2.443   3.413  13.579 -0.5041  0.4108  0.0647
16778TIP3    H271750   2.438   3.272  13.634 -0.9086  0.8172  1.0882
16779TIP3   OH271751   2.928   5.341  14.739 -0.6429 -0.1024 -0.4854
16779TIP3    H171752   2.898   5.251  14.724  2.7243 -1.0327 -2.1713
16779TIP3    H271753   3.020   5.331  14.766 -0.2400  2.8315 -0.6537
16780TIP3   OH271754   1.739   4.195   1.745  0.5266  0.3464 -0.1141
16780TIP3    H171755   1.695   4.280   1.744 -0.2638 -0.0344  1.1165
16780TIP3    H271756   1.828   4.213   1.776  0.0200  0.5796  1.2382
16781TIP3   OH271757   2.044   0.151  13.309 -0.0178 -0.1949 -0.7641
16781TIP3    H171758   2.039   0.195  13.394  2.4633 -0.5908 -0.3497
16781TIP3    H271759   2.050   0.058  13.332  0.6724 -0.2986 -1.3581
16782TIP3   OH271760   1.352   3.883   1.793  0.2620  0.0514 -0.0069
16782TIP3    H171761   1.447   3.897   1.795  0.3538 -0.4505 -0.5546
16782TIP3    H271762   1.330   3.855   1.882  1.3262 -4.0862 -0.9345
16783TIP3   OH271763   1.498   3.876   5.542 -0.1698 -0.3974  0.2073
16783TIP3    H171764   1.503   3.788   5.579  0.0854 -0.4411  0.0724
16783TIP3    H271765   1.542   3.869   5.458 -1.2192 -0.4216 -0.3483
16784TIP3   OH271766   5.763   3.178  12.931 -0.3190  0.1012  0.5450
16784TIP3    H171767   5.749   3.271  12.911  2.1305 -0.0029 -2.0362
16784TIP3    H271768   5.855   3.173  12.957 -0.6081 -1.5236  1.2976
16785TIP3   OH271769   1.155   1.449   2.902  0.0453 -0.0987 -0.0271
16785TIP3    H171770   1.136   1.454   2.996 -0.3844  3.4158 -0.2002
16785TIP3    H271771   1.074   1.415   2.864 -0.7221  0.9023  0.6616
16786TIP3   OH271772   6.571   4.539  13.067 -0.1893  0.7675 -0.1354
16786TIP3    H171773   6.656   4.553  13.026  0.0814 -1.2651 -0.3129
16786TIP3    H271774   6.563   4.611  13.131  1.7346  0.8553  0.0371
16787TIP3   OH271775   0.267   1.208  14.630  0.4415 -1.0510  0.1790
16787TIP3    H171776   0.267   1.149  14.706  2.2251  0.1327  1.1396
16787TIP3    H271777   0.194   1.268  14.647 -0.1602 -1.7796  0.1708
16788TIP3   OH271778   0.280   5.002   0.604 -0.1580 -0.0024  0.5211
16788TIP3    H171779   0.274   5.097   0.615  0.0021  0.1976 -1.0205
16788TIP3    H271780   0.223   4.966   0.672 -2.3433  1.2728 -0.5990
16789TIP3   OH271781   4.511   6.094   2.987  0.1143 -0.1659  0.8075
16789TIP3    H171782   4.439   6.073   2.928 -0.5624 -0.5583  1.7672
16789TIP3    H271783   4.534   6.010   3.027 -0.8471  0.4442  2.6928
16790TIP3   OH271784   6.266   1.555  17.021  0.0250 -0.2058  0.5309
16790TIP3    H171785   6.228   1.643  17.018  2.0695  0.6902 -0.2259
16790TIP3    H271786   6.273   1.529  16.929 -0.7702 -1.2519  0.7654
16791TIP3   OH271787   0.280   5.363   5.883 -0.8397 -0.6537  0.2173
16791TIP3    H171788   0.202   5.384   5.833 -1.4431 -0.6771  1.1339
16791TIP3    H271789   0.286   5.268   5.881 -0.3310 -0.6094 -0.5995
16792TIP3   OH271790   0.187   0.201   4.005 -0.1842  0.4584  0.4258
16792TIP3    H171791   0.118   0.241   3.953 -0.4084 -0.7926 -0.2645
16792TIP3    H271792   0.250   0.272   4.021  0.6299  0.5355 -2.8274
16793TIP3   OH271793   0.576   0.664   1.243  0.1191  0.3465 -0.5041
16793TIP3    H171794   0.631   0.688   1.168  2.0179  0.3348  0.8713
16793TIP3    H271795   0.499   0.721   1.234 -0.3850 -0.6776 -3.2598
16794TIP3   OH271796   6.089   1.307   3.762 -0.8140  0.6147  0.2181
16794TIP3    H171797   6.100   1.346   3.675 -2.1907 -1.0184 -0.7134
16794TIP3    H271798   6.143   1.228   3.761  0.3100  1.3360  1.3765
16795TIP3   OH271799   5.172   3.742  15.308  0.6826  0.1653  0.3938
16795TIP3    H171800   5.077   3.744  15.323  0.4802 -0.9589 -0.6098
16795TIP3    H271801   5.205   3.676  15.368  0.7374  0.0628  0.2503
16796TIP3   OH271802   2.139   5.381   6.101  0.3242  0.0795 -0.1378
16796TIP3    H171803   2.050   5.386   6.067  0.5633 -1.2104 -1.0068
16796TIP3    H271804   2.136   5.315   6.170  1.1240 -1.9860 -2.0040
16797TIP3   OH271805   2.520   2.344  14.207 -0.2141  0.1698  0.3252
16797TIP3    H171806   2.556   2.428  14.176 -2.4144  1.2894  0.6937
16797TIP3    H271807   2.546   2.340  14.299  1.7039 -0.5726 -0.2378
16798TIP3   OH271808   0.055   6.039   2.188 -0.1930  0.2906  0.2613
16798TIP3    H171809   0.129   6.021   2.246  0.2730  3.2345  0.6556
16798TIP3    H271810   0.071   5.983   2.112  1.3215 -0.6495  1.2330
16799TIP3   OH271811   6.376   1.612   3.600 -0.3090 -0.3930 -0.0074
16799TIP3    H171812   6.351   1.590   3.690 -0.3529 -1.2146 -0.2162
16799TIP3    H271813   6.463   1.574   3.588 -0.3929 -0.4770 -0.3833
16800TIP3   OH271814   5.439   2.773  15.140  0.3897 -0.8227 -0.3725
16800TIP3    H171815   5.409   2.744  15.054  1.9570  0.0421 -1.2198
16800TIP3    H271816   5.531   2.747  15.144 -0.0608 -2.2797  1.6897
16801TIP3   OH271817   4.465   5.702  17.014 -0.4585 -0.5000 -0.2443
16801TIP3    H171818   4.431   5.621  17.052 -0.5762 -0.0968  0.5394
16801TIP3    H271819   4.555   5.708  17.047 -0.4202 -0.3631 -0.3737
16802TIP3   OH271820   1.389   4.829  17.178 -0.0593  0.6504  0.5605
16802TIP3    H171821   1.394   4.925  17.175  0.3903  0.7351  3.1344
16802TIP3    H271822   1.343   4.810  17.259 -0.9500 -1.3283 -0.3724
16803TIP3   OH271823   3.235   3.617  15.675  0.0045  0.1929 -0.0337
16803TIP3    H171824   3.289   3.696  15.673  0.1401  0.1174  0.7268
16803TIP3    H271825   3.293   3.549  15.708 -0.5400  0.1040  0.7474
16804TIP3   OH271826   3.052   4.518  13.859  0.0691  0.4679 -0.2561
16804TIP3    H171827   3.094   4.552  13.938  0.5536  0.9395 -0.7099
16804TIP3    H271828   3.122   4.476  13.810 -0.2873 -0.0823 -0.3037
16805TIP3   OH271829   1.017   6.118   6.321 -0.1743  0.0296 -0.1777
16805TIP3    H171830   0.988   6.138   6.410  0.9494 -0.2523  0.2656
16805TIP3    H271831   1.019   6.022   6.317  1.0329  0.0430 -0.0728
16806TIP3   OH271832   0.287   2.101  13.224  0.5444  0.3555 -1.1013
16806TIP3    H171833   0.271   2.018  13.270 -0.8918 -0.1421 -2.4657
16806TIP3    H271834   0.261   2.168  13.286  1.6526 -0.2012 -0.0055
16807TIP3   OH271835   0.486   6.425   6.342 -0.5971 -0.2523 -0.5595
16807TIP3    H171836   0.437   6.405   6.422 -1.2151  0.9868 -0.6169
16807TIP3    H271837   0.543   6.498   6.367  1.1155 -1.5489 -0.5439
16808TIP3   OH271838   0.916   6.281  12.625 -0.1477 -0.4393  0.4739
16808TIP3    H171839   0.972   6.222  12.675 -0.9277 -1.1444  0.5373
16808TIP3    H271840   0.869   6.332  12.691 -3.1582 -3.2164  0.5898
16809TIP3   OH271841   2.526   6.473  16.849 -0.3593 -0.2543  0.4705
16809TIP3    H171842   2.508   6.553  16.900  0.3353 -0.5375  1.1665
16809TIP3    H271843   2.568   6.414  16.912  0.3084 -0.6876 -0.3851
16810TIP3   OH271844   4.942   0.598  12.752 -0.7229  0.1991  0.3431
16810TIP3    H171845   5.008   0.535  12.782 -0.1367 -0.0040 -1.3043
16810TIP3    H271846   4.889   0.616  12.830  0.8711 -0.1288  1.5502
16811TIP3   OH271847   5.787   0.959  15.636  0.1491 -0.0131 -0.8941
16811TIP3    H171848   5.743   0.875  15.622 -1.3734  0.0404  3.0838
16811TIP3    H271849   5.860   0.938  15.695 -0.2967  1.4580  0.1990
16812TIP3   OH271850   4.934   6.125   4.568  0.7822  0.0200 -0.4633
16812TIP3    H171851   4.970   6.064   4.634 -0.8315  0.2858  0.6941
16812TIP3    H271852   4.909   6.069   4.495 -1.5941 -0.9024  0.9803
16813TIP3   OH271853   3.031   2.423   4.508 -0.1269 -0.4539 -0.0890
16813TIP3    H171854   3.112   2.372   4.505  1.0465  1.3365 -0.3048
16813TIP3    H271855   2.988   2.405   4.425  0.0953 -1.3619 -0.0080
16814TIP3   OH271856   1.854   2.004  13.168 -0.1381 -0.0754 -0.1846
16814TIP3    H171857   1.771   1.959  13.156  0.0777 -0.5905  0.2020
16814TIP3    H271858   1.832   2.097  13.169 -0.8714 -0.2478  1.1092
16815TIP3   OH271859   0.220   5.908  12.768  0.3268 -0.0467  0.5283
16815TIP3    H171860   0.288   5.920  12.702 -0.6421 -0.7600 -0.6282
16815TIP3    H271861   0.218   5.991  12.815  1.4149  0.2793  0.0235
16816TIP3   OH271862   2.099   6.741  14.488 -0.0384  0.1483 -0.2986
16816TIP3    H171863   2.074   6.704  14.573 -0.1533 -0.4234 -0.5812
16816TIP3    H271864   2.024   6.794  14.461 -0.4994 -0.6512 -0.6139
16817TIP3   OH271865   5.434   0.731  15.800 -0.2505  0.2034  0.2075
16817TIP3    H171866   5.403   0.666  15.863  0.7579 -0.5674 -0.0801
16817TIP3    H271867   5.427   0.815  15.846  2.8441 -0.5843  2.3061
16818TIP3   OH271868   6.723   3.411   0.234  0.4396  0.0195  0.1279
16818TIP3    H171869   6.738   3.433   0.326  0.4262 -1.3579  0.4617
16818TIP3    H271870   6.705   3.496   0.192 -0.3297  0.5713  1.5330
16819TIP3   OH271871   2.881   2.003   3.147  0.2173  0.0430 -0.3738
16819TIP3    H171872   2.866   1.922   3.197 -0.6403  1.2506  1.3942
16819TIP3    H271873   2.974   2.021   3.158  0.4058 -0.6658 -0.7431
16820TIP3   OH271874   0.315   2.169   2.667 -0.2226  0.0594 -0.0924
16820TIP3    H171875   0.393   2.201   2.621 -1.3109  0.3632 -1.7420
16820TIP3    H271876   0.347   2.148   2.755  1.5994  0.7530 -0.5589
16821TIP3   OH271877   2.440   4.014  15.808  0.1156  0.2950 -0.9003
16821TIP3    H171878   2.403   3.966  15.734  0.3723 -1.3848  0.0375
16821TIP3    H271879   2.366   4.028  15.867 -0.0765  1.5779 -1.4358
16822TIP3   OH271880   4.848   2.335   1.405 -0.8552 -0.6298  0.0930
16822TIP3    H171881   4.879   2.408   1.351 -2.5789  0.1408  0.1031
16822TIP3    H271882   4.754   2.353   1.417 -1.1244 -2.4290  0.7609
16823TIP3   OH271883   5.869   1.220  15.016  0.1575  0.4962 -0.5827
16823TIP3    H171884   5.827   1.272  14.948  0.2438  0.5796 -0.5715
16823TIP3    H271885   5.824   1.244  15.097 -1.6019 -1.3931 -0.9609
16824TIP3   OH271886   1.066   4.634   1.810  0.1906 -0.2639 -0.1230
16824TIP3    H171887   1.042   4.548   1.775 -0.9373  0.1301 -0.3186
16824TIP3    H271888   1.129   4.669   1.746  0.1918 -0.6835 -0.3551
16825TIP3   OH271889   5.142   2.306   3.800 -0.2941  0.6022 -0.2819
16825TIP3    H171890   5.137   2.263   3.885  2.2104 -1.4906 -1.1488
16825TIP3    H271891   5.108   2.241   3.738  0.9655  0.8573 -1.2645
16826TIP3   OH271892   5.394   0.063  16.840  0.5391 -0.1552 -0.0420
16826TIP3    H171893   5.314   0.082  16.790  0.8157  1.2079  0.0352
16826TIP3    H271894   5.465   0.072  16.776  0.5098 -3.4480 -0.6579
16827TIP3   OH271895   5.903   6.694   2.760  0.0465  0.0967 -0.1263
16827TIP3    H171896   5.819   6.649   2.768 -1.2330  2.4778  0.4540
16827TIP3    H271897   5.956   6.659   2.831  0.3121 -2.9074 -1.7177
16828TIP3   OH271898   4.785   5.021  11.395  0.6932  0.2666 -0.4790
16828TIP3    H171899   4.809   5.114  11.397  1.1573  0.1387  0.2445
16828TIP3    H271900   4.786   4.998  11.302  0.0201  1.1272 -0.7063
16829TIP3   OH271901   0.481   1.919   3.400 -0.0355 -0.0890 -0.2250
16829TIP3    H171902   0.489   1.907   3.495 -0.3640 -0.6212 -0.2630
16829TIP3    H271903   0.541   1.855   3.363  0.1407  0.1631 -0.3768
16830TIP3   OH271904   2.182   3.855  15.773 -0.0245  0.1652 -0.2379
16830TIP3    H171905   2.090   3.880  15.779 -0.3539 -0.8185 -1.1900
16830TIP3    H271906   2.182   3.760  15.782  0.6169 -0.1369 -3.2280
16831TIP3   OH271907   1.185   1.464   1.699 -0.4659 -0.6785 -0.2539
16831TIP3    H171908   1.164   1.461   1.793  0.2338  0.0941 -0.0666
16831TIP3    H271909   1.274   1.427   1.694  0.4391  1.4311 -0.3096
16832TIP3   OH271910   3.466   4.951   2.641  0.0290  0.0331  0.0276
16832TIP3    H171911   3.398   5.005   2.600  1.2071  1.1224 -0.5115
16832TIP3    H271912   3.460   4.867   2.595 -1.6234 -0.2281  0.6777
16833TIP3   OH271913   0.529   1.392  12.196  0.3535  0.1695 -0.1234
16833TIP3    H171914   0.588   1.432  12.259  1.4517 -0.4964 -0.7107
16833TIP3    H271915   0.478   1.330  12.249 -1.5547  2.4797  0.8326
16834TIP3   OH271916   0.224   1.477   0.584  0.7160  0.4198  0.4247
16834TIP3    H171917   0.277   1.400   0.565 -0.6149 -0.0343 -1.5482
16834TIP3    H271918   0.259   1.545   0.525 -0.4262  0.3203 -0.3700
16835TIP3   OH271919   1.780   0.402  16.039  0.7298  0.5150  0.1141
16835TIP3    H171920   1.685   0.398  16.051  0.9111  1.0910  1.8764
16835TIP3    H271921   1.791   0.443  15.953 -0.6091 -0.2075 -0.4336
16836TIP3   OH271922   5.789   2.365  17.054  0.4322  0.3928  0.7876
16836TIP3    H171923   5.806   2.359  17.148  0.3947  2.8479  0.9851
16836TIP3    H271924   5.853   2.429  17.021 -0.9242  1.1704 -0.4447
16837TIP3   OH271925   2.133   1.353  11.600  0.2824 -0.5189 -0.1867
16837TIP3    H171926   2.073   1.289  11.562  0.2935 -0.7856  0.2342
16837TIP3    H271927   2.202   1.300  11.640  0.3540 -0.2403  0.0573
16838TIP3   OH271928   1.019   5.819  16.509 -0.2270 -0.0481  0.2952
16838TIP3    H171929   0.940   5.867  16.484 -1.6782 -2.6783 -0.3905
16838TIP3    H271930   1.019   5.742  16.452  2.0497 -0.8380  1.3013
16839TIP3   OH271931   0.121   2.060  12.438  0.1386  0.3822  0.5859
16839TIP3    H171932   0.165   1.994  12.492  0.7277  0.9903  0.8553
16839TIP3    H271933   0.156   2.045  12.350 -2.0769 -1.7082  0.0239
16840TIP3   OH271934   2.250   4.435   0.606  0.7904 -0.6193 -0.2584
16840TIP3    H171935   2.281   4.525   0.605  1.0654 -0.7264 -1.5237
16840TIP3    H271936   2.223   4.420   0.697 -0.3627  1.1009 -0.3092
16841TIP3   OH271937   4.295   4.273  15.603 -0.3333 -0.3834 -0.2473
16841TIP3    H171938   4.311   4.240  15.692  2.1098 -2.2184 -1.2992
16841TIP3    H271939   4.341   4.357  15.600  0.1678 -0.6480 -0.0025
16842TIP3   OH271940   4.379   3.713  14.930  0.4777  0.6804  0.3283
16842TIP3    H171941   4.465   3.740  14.962  1.0247 -0.0215 -0.5161
16842TIP3    H271942   4.348   3.787  14.878  0.3091  1.1617  1.0959
16843TIP3   OH271943   0.820   2.473   4.113 -0.3811 -0.0783 -0.2999
16843TIP3    H171944   0.799   2.524   4.034 -0.5919 -0.6640 -0.6236
16843TIP3    H271945   0.889   2.524   4.156  0.3664 -0.2107 -1.3254
16844TIP3   OH271946   4.196   6.311   3.914 -0.1425 -0.3377 -0.0495
16844TIP3    H171947   4.112   6.302   3.870 -0.5737  2.3058  0.1726
16844TIP3    H271948   4.226   6.399   3.892  1.4371 -0.3679  1.8148
16845TIP3   OH271949   1.864   5.920   1.364  0.1804  0.2257 -0.2263
16845TIP3    H171950   1.824   5.844   1.407  0.8549  0.4000  0.7232
16845TIP3    H271951   1.895   5.886   1.280 -0.2008 -0.3707 -0.1323
16846TIP3   OH271952   1.913   5.337  16.743 -0.5009 -0.1241  0.2679
16846TIP3    H171953   1.853   5.263  16.741  0.7588 -1.1765  0.3363
16846TIP3    H271954   1.966   5.327  16.663  3.0431 -2.2188  2.7261
16847TIP3   OH271955   1.513   0.004  13.707 -0.1008  0.3743 -0.5875
16847TIP3    H171956   1.537   0.064  13.778  1.0363 -0.4502 -0.2438
16847TIP3    H271957   1.579  -0.066  13.713 -1.2447 -0.7649 -1.1354
16848TIP3   OH271958   2.170   5.670   0.090 -0.4148  0.0045 -0.8354
16848TIP3    H171959   2.111   5.680   0.015 -0.4326  1.2421 -0.6661
16848TIP3    H271960   2.112   5.653   0.164 -0.4079 -1.0411 -1.0633
16849TIP3   OH271961   6.115   5.046  16.255  0.2764  0.6602 -0.7961
16849TIP3    H171962   6.073   5.086  16.179 -2.7554  1.7664  1.3794
16849TIP3    H271963   6.081   4.957  16.257 -2.2477  1.6039  1.0584
16850TIP3   OH271964   4.944   6.371   4.290  0.5180  0.2805  0.5693
16850TIP3    H171965   4.862   6.402   4.252 -0.3568 -0.8417  1.4988
16850TIP3    H271966   4.964   6.435   4.358 -0.2972 -0.1459  1.2271
16851TIP3   OH271967   2.936   5.847   5.303  0.3660  0.0614  0.2860
16851TIP3    H171968   2.866   5.871   5.364  0.8161 -0.9383  1.2004
16851TIP3    H271969   2.926   5.753   5.290  1.5593 -0.0946  0.4564
16852TIP3   OH271970   5.846   4.833   4.726  0.0113  0.2168 -0.0311
16852TIP3    H171971   5.857   4.925   4.749 -1.1635  0.5863 -0.8629
16852TIP3    H271972   5.913   4.816   4.660 -0.8457  0.9593 -1.1228
16853TIP3   OH271973   5.572   0.224  12.312 -0.7138  0.3304  0.3637
16853TIP3    H171974   5.603   0.138  12.282 -1.9018 -0.1834  0.5827
16853TIP3    H271975   5.614   0.286  12.253 -1.1567 -0.5139 -0.8604
16854TIP3   OH271976   0.176   1.292  16.398 -0.7424 -0.1992  0.1438
16854TIP3    H171977   0.239   1.348  16.444  2.0366 -3.2409  0.2422
16854TIP3    H271978   0.124   1.252  16.468  0.3233 -1.1919  0.3876
16855TIP3   OH271979   4.691   0.951  16.862  0.2358 -0.4140 -0.1253
16855TIP3    H171980   4.637   0.957  16.783 -0.1459 -1.8888  0.0087
16855TIP3    H271981   4.703   1.041  16.890 -1.3144 -0.0117 -0.7321
16856TIP3   OH271982   3.764   4.725   3.776  0.2601  0.1706 -0.6401
16856TIP3    H171983   3.765   4.768   3.862 -1.8335 -0.4014 -0.2955
16856TIP3    H271984   3.721   4.789   3.719 -0.2328 -0.2805 -0.7792
16857TIP3   OH271985   4.253   0.204  16.394  0.0547  0.1361  0.1998
16857TIP3    H171986   4.157   0.207  16.392 -0.0163 -1.5963 -0.1888
16857TIP3    H271987   4.278   0.189  16.303  0.7690  1.7512  0.1154
16858TIP3   OH271988   2.646   1.794   4.554  0.1459 -0.2182  0.3966
16858TIP3    H171989   2.598   1.849   4.616  1.7643  0.3808  1.1583
16858TIP3    H271990   2.695   1.732   4.609  0.1253 -0.9139 -0.3630
16859TIP3   OH271991   1.261   0.235   4.324  0.0291  0.4310 -0.2227
16859TIP3    H171992   1.353   0.258   4.310  0.1620 -0.7889 -1.4565
16859TIP3    H271993   1.263   0.170   4.394  0.1268  0.2391 -0.4028
16860TIP3   OH271994   0.700   3.821   2.247 -0.6507 -0.1698  0.1786
16860TIP3    H171995   0.755   3.745   2.263 -1.1186 -0.5794 -0.1405
16860TIP3    H271996   0.613   3.794   2.276 -0.8358  0.2104 -0.0191
16861TIP3   OH271997   0.337   2.165  13.548 -0.3039 -0.1750  0.1583
16861TIP3    H171998   0.280   2.088  13.556 -0.4248 -0.0028  1.0085
16861TIP3    H271999   0.365   2.183  13.638  1.7091 -0.7221 -0.3458
16862TIP3   OH272000   1.081   3.306   4.855 -0.0655 -0.7038  0.1768
16862TIP3    H172001   1.084   3.314   4.950 -0.7091 -1.2638  0.2488
16862TIP3    H272002   1.171   3.284   4.829  0.1089 -0.5443  0.6530
16863TIP3   OH272003   4.864   5.543  12.173 -0.4296  0.0255  0.0905
16863TIP3    H172004   4.784   5.494  12.153 -1.4455  1.8968 -0.5285
16863TIP3    H272005   4.835   5.634  12.181  1.4012  0.5111  1.4102
16864TIP3   OH272006   2.687   4.864  15.715 -0.2572  0.2761  0.3744
16864TIP3    H172007   2.764   4.908  15.679 -0.9009 -0.2805 -1.7074
16864TIP3    H272008   2.625   4.859  15.642 -2.1786  0.4774  1.9490
16865TIP3   OH272009   1.013   6.425  15.691 -0.6228 -0.1564  0.0491
16865TIP3    H172010   1.055   6.435  15.776  0.5930 -0.8867 -0.4497
16865TIP3    H272011   1.029   6.509  15.647 -1.4598  0.3059  0.6273
16866TIP3   OH272012   2.242   1.294  11.109  0.2429  0.0578  0.0589
16866TIP3    H172013   2.167   1.235  11.114 -1.6534  2.3896 -0.0964
16866TIP3    H272014   2.279   1.277  11.022  1.2314 -2.6052  0.9405
16867TIP3   OH272015   3.746   1.245   4.061 -0.1766  0.1615 -0.0691
16867TIP3    H172016   3.726   1.336   4.083 -1.0094  0.1444 -0.7266
16867TIP3    H272017   3.756   1.245   3.966  1.5070 -0.1173  0.0937
16868TIP3   OH272018   2.118   1.026  16.454  0.3997 -0.3820 -0.2081
16868TIP3    H172019   2.172   1.035  16.533  1.1479 -0.8671 -0.6642
16868TIP3    H272020   2.177   1.048  16.382 -0.4262  0.6005 -0.5998
16869TIP3   OH272021   3.146   2.949  14.914 -0.6591 -0.0795 -0.8471
16869TIP3    H172022   3.145   2.858  14.943  3.5679 -0.7622 -2.3492
16869TIP3    H272023   3.083   2.952  14.842 -0.6179 -1.9102 -0.9911
16870TIP3   OH272024   5.764   5.972   3.703 -0.2600  0.1793  0.1076
16870TIP3    H172025   5.786   5.951   3.612  0.2617  0.7201  0.1097
16870TIP3    H272026   5.679   6.016   3.697  0.9117  2.4537 -0.3719
16871TIP3   OH272027   1.627   5.599   0.705  0.2014  0.0952 -0.7284
16871TIP3    H172028   1.681   5.632   0.633  0.0536  1.3243 -0.2829
16871TIP3    H272029   1.629   5.668   0.771 -1.8338  0.1081 -0.6531
16872TIP3   OH272030   3.469   2.671  15.343  0.0857 -0.3826  0.3390
16872TIP3    H172031   3.388   2.628  15.372  0.6181 -0.6029  1.5220
16872TIP3    H272032   3.536   2.639  15.403  1.1076 -0.3818 -0.7733
16873TIP3   OH272033   0.654   3.876   5.975  0.6224  0.2551 -0.3655
16873TIP3    H172034   0.720   3.944   5.973  0.0534  0.8180 -0.1214
16873TIP3    H272035   0.687   3.812   6.038  0.9710  0.4965 -0.3035
16874TIP3   OH272036   1.275   6.432  12.288 -1.3287  0.2562  0.3628
16874TIP3    H172037   1.305   6.344  12.268 -2.4870  0.0199 -0.4180
16874TIP3    H272038   1.282   6.479  12.205  0.5627  1.2879  1.0883
16875TIP3   OH272039   4.251   6.165  12.381  0.0224  0.4520 -0.0469
16875TIP3    H172040   4.175   6.208  12.422  0.4703  1.1732  0.0261
16875TIP3    H272041   4.216   6.082  12.348 -0.8843  0.9349 -0.3224
16876TIP3   OH272042   2.040   2.062  12.863 -0.4493 -0.1795  0.2894
16876TIP3    H172043   1.962   2.110  12.889 -0.8655 -1.1959  0.9681
16876TIP3    H272044   2.027   1.974  12.899  0.6465 -0.5793 -0.2621
16877TIP3   OH272045   4.479   4.324  12.801  0.3851  0.6208  0.1911
16877TIP3    H172046   4.523   4.286  12.877 -1.6494  0.9525  1.5912
16877TIP3    H272047   4.386   4.317  12.822 -0.1367  3.8698 -0.7460
16878TIP3   OH272048   0.145   6.559  13.347 -0.4781 -0.6976 -0.6769
16878TIP3    H172049   0.065   6.611  13.335 -0.7472 -0.8676  0.3425
16878TIP3    H272050   0.119   6.470  13.322 -0.4217 -0.6259 -0.9934
16879TIP3   OH272051   3.992   5.727  17.199 -0.7820  0.0462  0.3623
16879TIP3    H172052   4.023   5.751  17.112  1.4577 -0.3506  1.0252
16879TIP3    H272053   4.039   5.786  17.259 -1.1746 -0.6888  1.4163
16880TIP3   OH272054   1.144   4.403  15.087 -0.0812 -0.3303  0.1619
16880TIP3    H172055   1.142   4.484  15.139 -2.9477 -1.1322  1.4522
16880TIP3    H272056   1.218   4.414  15.028 -0.4216  3.2662  0.2558
16881TIP3   OH272057   1.113   2.000   3.961 -0.0054  0.6259 -0.1442
16881TIP3    H172058   1.205   2.023   3.948  0.2375 -0.2327 -0.0078
16881TIP3    H272059   1.112   1.905   3.953 -1.0790  0.7264 -1.3191
16882TIP3   OH272060   3.733   5.384   2.150  0.0088  0.2459 -0.0377
16882TIP3    H172061   3.739   5.438   2.229 -0.5352  1.0115 -0.5138
16882TIP3    H272062   3.656   5.328   2.164 -1.0473  1.5100 -0.7059
16883TIP3   OH272063   6.538   1.460   2.534  0.1958 -0.0440  0.1988
16883TIP3    H172064   6.594   1.510   2.474  0.2886  2.7088  2.4639
16883TIP3    H272065   6.598   1.430   2.603 -0.8259  1.7053  1.8902
16884TIP3   OH272066   2.179   3.788   0.775 -0.3564  0.1645 -0.0258
16884TIP3    H172067   2.211   3.699   0.765  0.2159  0.1076  1.9229
16884TIP3    H272068   2.226   3.838   0.709  1.1379 -0.5671  0.4562
16885TIP3   OH272069   6.202   6.198   3.972 -0.2345 -0.1705 -0.1889
16885TIP3    H172070   6.129   6.141   3.948 -0.3783  0.5758 -1.6313
16885TIP3    H272071   6.183   6.281   3.928 -0.2385  1.1350  2.1932
16886TIP3   OH272072   0.195   2.168   5.077  0.0386  0.5293 -0.0791
16886TIP3    H172073   0.133   2.170   5.150 -0.7234 -0.9638 -0.6737
16886TIP3    H272074   0.145   2.134   5.003  1.0622  1.1328 -1.0745
16887TIP3   OH272075   0.228   0.125  10.370  0.5246  0.0690 -0.2582
16887TIP3    H172076   0.309   0.087  10.337  0.6279 -0.7829  0.9362
16887TIP3    H272077   0.236   0.218  10.351  1.7789 -0.0140 -0.1915
16888TIP3   OH272078   2.425   5.362   4.787 -0.2574 -0.5632 -0.0210
16888TIP3    H172079   2.436   5.348   4.880 -1.0707 -1.0827  0.0050
16888TIP3    H272080   2.448   5.454   4.773 -0.5902 -0.3584  0.7698
16889TIP3   OH272081   0.059   0.471   3.124 -0.4791 -0.0972  0.1382
16889TIP3    H172082   0.111   0.481   3.044  0.7310 -1.3820  0.7272
16889TIP3    H272083   0.038   0.561   3.151  2.0961  0.4981  0.2843
16890TIP3   OH272084   4.030   3.659  14.488  0.2442 -0.5123 -0.2331
16890TIP3    H172085   4.057   3.670  14.397 -0.2901 -1.1741 -0.4731
16890TIP3    H272086   4.106   3.690  14.539  0.8326 -0.8345 -0.9018
16891TIP3   OH272087   5.712   1.238   6.285 -0.5209  0.2619  0.0075
16891TIP3    H172088   5.712   1.189   6.367  2.0323  1.7291  0.9525
16891TIP3    H272089   5.622   1.269   6.274 -1.5067 -2.2600  0.8171
16892TIP3   OH272090   3.803   1.921  15.008  0.2158 -0.1555  0.1018
16892TIP3    H172091   3.795   1.929  14.913  0.6689  1.2650  0.1718
16892TIP3    H272092   3.724   1.965  15.042  0.0561 -0.6570  0.3844
16893TIP3   OH272093   5.240   3.868   0.699 -0.4642  0.1276 -0.5789
16893TIP3    H172094   5.170   3.834   0.754 -0.8618  0.5455 -0.8194
16893TIP3    H272095   5.210   3.955   0.673  0.1633  0.3286 -0.6509
16894TIP3   OH272096   5.429   2.540  12.409 -0.3858 -0.3873  0.4833
16894TIP3    H172097   5.451   2.501  12.325 -2.9845 -0.5366 -0.1696
16894TIP3    H272098   5.467   2.628  12.406 -0.8065 -0.2521 -1.0072
16895TIP3   OH272099   3.624   2.505  15.560 -0.2053  0.1322  0.2871
16895TIP3    H172100   3.689   2.558  15.605 -0.0754  1.2539 -1.1614
16895TIP3    H272101   3.676   2.445  15.506 -0.3550 -1.0101  1.4199
16896TIP3   OH272102   5.920   1.838   0.240 -0.0761 -0.6971 -0.4829
16896TIP3    H172103   6.006   1.809   0.211  0.3514 -2.0677  1.9957
16896TIP3    H272104   5.862   1.765   0.220 -0.5406 -0.0465 -1.5284
16897TIP3   OH272105   5.879   6.554  17.033  0.3202 -0.3214  0.0657
16897TIP3    H172106   5.889   6.615  17.106 -1.0921  2.9311 -2.3954
16897TIP3    H272107   5.969   6.531  17.008  0.8693  1.2504  0.5941
16898TIP3   OH272108   3.355   4.478  14.182  0.0956 -0.2207 -0.3294
16898TIP3    H172109   3.335   4.496  14.090  1.1577  1.3367 -0.2816
16898TIP3    H272110   3.315   4.393  14.199 -1.6413  0.2843 -1.7302
16899TIP3   OH272111   1.307   1.617   3.335 -0.6992  0.7021  0.7957
16899TIP3    H172112   1.370   1.571   3.281 -1.2854 -1.1814  1.6768
16899TIP3    H272113   1.237   1.642   3.275 -1.0129 -0.7432  0.5504
16900TIP3   OH272114   4.590   3.902   4.192 -0.2536  0.1994  0.1326
16900TIP3    H172115   4.512   3.890   4.138  0.0746 -0.0603 -0.2814
16900TIP3    H272116   4.663   3.902   4.130  0.4217 -3.3222  0.8253
16901TIP3   OH272117   3.352   5.789  11.154  1.0484 -0.2986  0.7728
16901TIP3    H172118   3.326   5.824  11.069  0.8363  0.8045  1.2825
16901TIP3    H272119   3.438   5.827  11.171  1.0770 -0.4887  1.0686
16902TIP3   OH272120   0.099   0.760   4.199 -0.0198  0.4408  0.1535
16902TIP3    H172121   0.043   0.754   4.122  0.8207  0.5055 -0.4718
16902TIP3    H272122   0.054   0.822   4.257 -0.6646  0.3768 -0.2728
16903TIP3   OH272123   2.930   5.126   0.033  0.3077  0.0503  0.8744
16903TIP3    H172124   2.990   5.200   0.045 -0.4505  0.6462  0.9785
16903TIP3    H272125   2.846   5.158   0.064 -0.5922 -0.0043 -1.4305
16904TIP3   OH272126   4.033   3.680  16.622 -0.0401  0.5126  0.6352
16904TIP3    H172127   4.099   3.619  16.656 -0.7373  0.2054  1.4681
16904TIP3    H272128   4.063   3.766  16.650  0.6816  0.5075 -0.0995
16905TIP3   OH272129   5.574   5.803  11.865  0.0684 -0.2734 -0.1737
16905TIP3    H172130   5.649   5.827  11.920 -0.9237  0.4847  0.8750
16905TIP3    H272131   5.607   5.733  11.809  1.7456  0.4754 -0.1578
16906TIP3   OH272132   6.620   0.810  15.472  0.2309  0.6945  0.8355
16906TIP3    H172133   6.630   0.715  15.461 -0.4802  1.0021 -3.1810
16906TIP3    H272134   6.706   0.840  15.502  2.3335 -0.5814 -3.4461
16907TIP3   OH272135   4.878   2.396   1.676 -0.2558  0.0977  0.5292
16907TIP3    H172136   4.906   2.317   1.722  2.9923  1.0964  0.3835
16907TIP3    H272137   4.883   2.373   1.583 -1.4603 -0.1924  0.5285
16908TIP3   OH272138   4.229   1.232  15.162 -0.0032  0.0146 -0.1712
16908TIP3    H172139   4.281   1.283  15.100  0.8773 -0.8434 -0.1540
16908TIP3    H272140   4.250   1.268  15.248  0.7558 -0.4704 -0.1416
16909TIP3   OH272141   1.609   2.066  13.731  0.5749 -0.0347 -0.3626
16909TIP3    H172142   1.577   2.135  13.789 -0.0805  0.5651 -1.4199
16909TIP3    H272143   1.536   2.004  13.727 -0.0778  0.8120 -1.9428
16910TIP3   OH272144   4.863   0.609  11.049 -0.1347 -0.0880 -0.1963
16910TIP3    H172145   4.806   0.616  11.125 -0.2309  1.8309 -0.4308
16910TIP3    H272146   4.835   0.679  10.990 -0.4496 -1.9083 -2.2904
16911TIP3   OH272147   0.605   3.786  16.213 -0.0897  0.1087 -0.7724
16911TIP3    H172148   0.529   3.727  16.217 -0.2095  0.2279 -1.2681
16911TIP3    H272149   0.676   3.731  16.181  0.6631 -0.6329  2.0375
16912TIP3   OH272150   6.538   4.732  11.506 -0.0686 -0.0944 -0.1953
16912TIP3    H172151   6.561   4.749  11.415 -0.3830  0.4666 -0.1746
16912TIP3    H272152   6.574   4.645  11.524  2.1761  0.8112 -0.1028
16913TIP3   OH272153   6.671   6.765  12.832  0.7020 -0.2753  0.1464
16913TIP3    H172154   6.679   6.822  12.908  0.5019  1.4854 -1.1264
16913TIP3    H272155   6.750   6.711  12.834 -0.6501 -2.2485  3.1872
16914TIP3   OH272156   3.720   3.485   1.902 -0.0250  0.3276  0.2472
16914TIP3    H172157   3.810   3.512   1.886  0.2352  0.3253  1.6663
16914TIP3    H272158   3.705   3.414   1.840  0.9139  0.3810 -0.0546
16915TIP3   OH272159   3.450   4.554   3.375  0.4890  0.4132  0.6237
16915TIP3    H172160   3.489   4.471   3.402  2.1068  0.9030 -0.1400
16915TIP3    H272161   3.415   4.536   3.288  1.0900  0.6069  0.3416
16916TIP3   OH272162   1.826   3.976  10.649  0.1585 -0.2552 -0.2683
16916TIP3    H172163   1.776   3.918  10.706  0.9813  0.4722  1.2091
16916TIP3    H272164   1.762   4.009  10.586 -0.6007 -1.6472 -0.2498
16917TIP3   OH272165   3.188   6.176   1.698 -0.1781 -0.1159 -0.1316
16917TIP3    H172166   3.221   6.148   1.783 -1.4003 -2.5364 -0.3933
16917TIP3    H272167   3.133   6.103   1.668 -2.5031  2.0574 -1.4718
16918TIP3   OH272168   5.911   5.297  16.916 -0.0631  0.2491 -1.0038
16918TIP3    H172169   5.840   5.314  16.977 -0.6534 -1.9302 -1.0797
16918TIP3    H272170   5.883   5.339  16.834 -0.8295  0.2101 -0.7625
16919TIP3   OH272171   0.474   2.655  13.703  0.8530 -0.1563 -0.0959
16919TIP3    H172172   0.500   2.688  13.618  0.2856 -0.0184 -0.2140
16919TIP3    H272173   0.379   2.646  13.698  0.9557 -1.4538  0.0503
16920TIP3   OH272174   1.890   5.242   2.944 -0.2058 -0.6271 -0.6043
16920TIP3    H172175   1.947   5.273   2.874 -1.8877  1.3242 -1.1437
16920TIP3    H272176   1.844   5.167   2.906  1.2203 -1.5795 -0.4964
16921TIP3   OH272177   2.779   4.638   1.721 -0.3252 -0.0134  0.4905
16921TIP3    H172178   2.783   4.721   1.769  0.3643 -0.5203  1.3244
16921TIP3    H272179   2.718   4.584   1.772 -0.4034 -0.1906  0.2103
16922TIP3   OH272180   4.124   6.350  14.053  0.0375 -0.3673  0.5244
16922TIP3    H172181   4.116   6.331  14.146 -0.2649  0.8763  0.7594
16922TIP3    H272182   4.097   6.269  14.010 -0.6989 -0.6528  1.5033
16923TIP3   OH272183   6.008   4.142  16.290  0.2496  0.3690  0.2214
16923TIP3    H172184   6.083   4.199  16.306  0.1816  0.2296  1.0557
16923TIP3    H272185   5.980   4.164  16.202  2.4917 -0.9608 -0.8658
16924TIP3   OH272186   5.696   4.121  11.852 -0.1448  0.1164  0.3458
16924TIP3    H172187   5.727   4.121  11.942 -0.1940 -1.5562  0.3733
16924TIP3    H272188   5.774   4.142  11.800  0.9078 -3.1628  0.4807
16925TIP3   OH272189   5.804   1.997   3.409  0.2013 -0.2416  0.4092
16925TIP3    H172190   5.717   2.025   3.438  0.2399 -0.8322  1.0948
16925TIP3    H272191   5.861   2.070   3.430 -0.0457 -0.0390  0.3807
16926TIP3   OH272192   0.918   3.001   2.165 -0.3070  0.1098 -0.1113
16926TIP3    H172193   0.884   2.920   2.202 -0.2060 -0.2822 -0.8670
16926TIP3    H272194   0.841   3.056   2.152 -0.4974 -0.2616 -0.5607
16927TIP3   OH272195   2.974   1.576   2.400 -0.2186 -0.2046 -0.8491
16927TIP3    H172196   3.007   1.514   2.334 -1.0672 -0.5339 -0.9736
16927TIP3    H272197   2.931   1.520   2.465 -0.7633  0.2260 -0.8314
16928TIP3   OH272198   3.885   1.635  14.024 -0.1508 -0.4764  0.0169
16928TIP3    H172199   3.958   1.598  13.973 -0.3767  1.2639 -1.6159
16928TIP3    H272200   3.921   1.647  14.112  1.6190  0.5416 -0.8068
16929TIP3   OH272201   4.780   0.297   5.810  0.1473  0.8427 -0.0696
16929TIP3    H172202   4.699   0.266   5.769  0.6735  0.2558 -0.6595
16929TIP3    H272203   4.827   0.217   5.834  1.0196  1.1898 -0.6307
16930TIP3   OH272204   4.392   4.007   2.850 -0.8420  0.4434  0.4049
16930TIP3    H172205   4.420   4.094   2.821 -1.0704  1.0127  1.8360
16930TIP3    H272206   4.300   4.002   2.825 -0.6775  0.3704 -0.2048
16931TIP3   OH272207   3.631   5.965  13.786  0.1774  0.2927 -0.2446
16931TIP3    H172208   3.618   5.885  13.735  0.2933  1.3411 -1.9635
16931TIP3    H272209   3.654   5.934  13.874  1.5203 -1.5688 -1.2096
16932TIP3   OH272210   0.132   5.130   2.938  0.1574 -0.1033 -0.5690
16932TIP3    H172211   0.131   5.209   2.883 -0.1883 -0.3464 -0.9166
16932TIP3    H272212   0.047   5.132   2.983 -0.3218 -0.8580 -1.4178
16933TIP3   OH272213   4.997   4.716   5.161 -0.1158 -0.2346  0.1849
16933TIP3    H172214   4.945   4.702   5.240  1.1237 -0.9598  0.9025
16933TIP3    H272215   5.059   4.785   5.185  0.4934 -0.7001 -0.0219
16934TIP3   OH272216   4.542   2.590   3.822 -0.3172  0.8975 -0.0892
16934TIP3    H172217   4.577   2.501   3.817 -0.8898  0.7426 -1.4462
16934TIP3    H272218   4.602   2.643   3.769 -0.9237  1.0173 -0.6625
16935TIP3   OH272219   0.108   1.271  11.999  0.3271  0.4233  0.4175
16935TIP3    H172220   0.065   1.188  12.017 -0.3633  0.6577 -0.1160
16935TIP3    H272221   0.175   1.250  11.933 -0.2075  0.3759 -0.1218
16936TIP3   OH272222   0.250   4.001   2.468  0.0969 -0.0499 -0.0746
16936TIP3    H172223   0.318   4.067   2.457  1.4546 -1.2779  0.8293
16936TIP3    H272224   0.194   4.037   2.537  1.2870 -0.1895  0.9855
16937TIP3   OH272225   3.467   0.999  14.174  0.2267  0.1287 -0.1106
16937TIP3    H172226   3.502   0.978  14.088 -2.2179 -1.5913 -0.7242
16937TIP3    H272227   3.468   1.095  14.177 -0.3342  0.2331 -2.3219
16938TIP3   OH272228   4.907   0.615  16.370 -0.0558  0.1110 -0.1240
16938TIP3    H172229   4.907   0.654  16.458  2.4617  0.1124 -0.0866
16938TIP3    H272230   4.927   0.523  16.385 -1.1483 -0.2175 -0.6104
16939TIP3   OH272231   0.834   0.710   2.033  0.0758 -0.1103 -0.0663
16939TIP3    H172232   0.923   0.685   2.058  0.8856  1.8170 -0.9257
16939TIP3    H272233   0.834   0.706   1.938 -0.3237  1.3035 -0.1314
16940TIP3   OH272234   2.353   4.983  11.567  0.2388  0.2589 -0.5839
16940TIP3    H172235   2.441   4.965  11.533  0.5856  1.5923 -0.4100
16940TIP3    H272236   2.316   5.045  11.504 -0.3466  0.1754 -0.3218
16941TIP3   OH272237   3.686   0.729   5.264 -0.4973 -0.0960 -0.0251
16941TIP3    H172238   3.663   0.770   5.181 -0.3394 -0.0192 -0.0304
16941TIP3    H272239   3.754   0.785   5.301  2.2079 -2.2511 -1.6350
16942TIP3   OH272240   3.621   6.781  14.639 -0.3136 -0.1889 -0.2558
16942TIP3    H172241   3.589   6.691  14.637  2.1769 -1.1135 -1.1649
16942TIP3    H272242   3.714   6.772  14.659 -0.1343  2.2381  0.1311
16943TIP3   OH272243   5.741   0.357  11.612 -0.3336  0.4625 -0.4399
16943TIP3    H172244   5.655   0.332  11.645  0.4327 -1.2835  0.2931
16943TIP3    H272245   5.729   0.369  11.518 -1.5708  1.1585 -0.1987
16944TIP3   OH272246   5.519   3.114  16.804 -0.1613 -0.5479  0.4245
16944TIP3    H172247   5.519   3.065  16.722 -2.4307 -1.6608  1.0426
16944TIP3    H272248   5.426   3.127  16.824  0.3694  2.3463  1.2874
16945TIP3   OH272249   6.517   0.616   1.245 -0.0618  0.3165 -0.7414
16945TIP3    H172250   6.596   0.668   1.230 -0.1738  0.4258 -0.9463
16945TIP3    H272251   6.447   0.664   1.200 -0.7918  1.7633  1.8309
16946TIP3   OH272252   3.010   2.693  13.942  0.1044 -0.7565 -0.2955
16946TIP3    H172253   2.967   2.728  13.864  0.2026 -1.9393 -0.8892
16946TIP3    H272254   3.076   2.758  13.965  0.7860 -0.9003 -1.8177
16947TIP3   OH272255   6.002   1.339   0.965  0.1431  0.0501 -0.1415
16947TIP3    H172256   6.058   1.301   0.897 -0.2953  0.1091 -0.5407
16947TIP3    H272257   5.965   1.418   0.924 -0.7976 -0.3796 -0.1384
16948TIP3   OH272258   4.570   4.508  16.005  0.2053 -0.5041 -0.4827
16948TIP3    H172259   4.523   4.572  16.059  0.4974 -0.2715 -0.5040
16948TIP3    H272260   4.587   4.434  16.063 -0.9286 -0.9454 -0.6963
16949TIP3   OH272261   1.183   5.638   0.924 -0.1458  0.0052 -0.2098
16949TIP3    H172262   1.176   5.710   0.986  0.0087  0.2867 -0.5142
16949TIP3    H272263   1.276   5.616   0.922 -0.4035 -1.2394  1.0403
16950TIP3   OH272264   4.961   1.551  11.879  0.3653  0.1636 -0.1835
16950TIP3    H172265   4.969   1.559  11.975  0.3465  2.4665 -0.3444
16950TIP3    H272266   4.867   1.564  11.863  0.3005 -0.6572 -0.5013
16951TIP3   OH272267   5.090   1.536  11.361 -0.3331 -0.0719 -0.0926
16951TIP3    H172268   5.126   1.623  11.372 -0.1617 -0.0100 -1.0586
16951TIP3    H272269   5.071   1.530  11.267 -0.3438 -1.0660 -0.0325
16952TIP3   OH272270   0.653   0.484   5.046 -0.0173 -0.0735  0.2495
16952TIP3    H172271   0.632   0.455   5.135  0.7354 -0.4047  0.3200
16952TIP3    H272272   0.582   0.544   5.024 -0.3406 -0.1741  0.9834
16953TIP3   OH272273   2.975   6.583   1.941 -0.0856 -0.1851 -0.1898
16953TIP3    H172274   2.917   6.542   1.876  0.0268 -1.1751  0.3338
16953TIP3    H272275   3.060   6.543   1.925  0.4105  1.0962 -0.7988
16954TIP3   OH272276   1.652   4.955   3.607 -0.6435  0.5249  0.1439
16954TIP3    H172277   1.738   4.972   3.569  0.7220 -3.2194  1.3265
16954TIP3    H272278   1.603   4.911   3.537 -0.3619 -0.4856  0.5689
16955TIP3   OH272279   0.419   6.092   5.110 -0.9027  0.3463  0.8398
16955TIP3    H172280   0.392   6.150   5.038 -0.3766  1.2342  1.3516
16955TIP3    H272281   0.337   6.064   5.150 -1.2228 -0.5767 -0.4368
16956TIP3   OH272282   1.209   6.431   3.132  0.1254 -0.3899 -0.3886
16956TIP3    H172283   1.232   6.417   3.040  1.2072  0.2873 -0.2278
16956TIP3    H272284   1.135   6.373   3.147  1.3470 -2.1547 -1.0855
16957TIP3   OH272285   3.391   0.080  12.556 -0.6863 -0.8289  0.0252
16957TIP3    H172286   3.298   0.099  12.546 -0.3631  0.8819  0.1256
16957TIP3    H272287   3.418   0.131  12.632  1.1049  1.5744 -2.1191
16958TIP3   OH272288   5.008   3.654  10.573  0.0421 -0.3169  0.3273
16958TIP3    H172289   4.913   3.659  10.561  0.0518 -1.2417 -0.2133
16958TIP3    H272290   5.023   3.565  10.605  0.6606  0.0566  1.0831
16959TIP3   OH272291   6.094   4.016  12.185  0.5882  0.2136 -0.1661
16959TIP3    H172292   6.077   3.976  12.270  1.0008 -1.8575 -1.0231
16959TIP3    H272293   6.189   4.013  12.176  0.5432  0.4084 -0.7251
16960TIP3   OH272294   3.101   4.299  15.152 -0.0886  0.0623 -0.1754
16960TIP3    H172295   3.075   4.263  15.068  2.4635  0.5161 -1.2045
16960TIP3    H272296   3.195   4.313  15.144 -0.2441  2.6596  1.7834
16961TIP3   OH272297   2.553   3.719   2.579  0.5556 -0.3392  0.2369
16961TIP3    H172298   2.529   3.668   2.502 -2.1394  2.1890 -0.6954
16961TIP3    H272299   2.634   3.763   2.555  0.2643 -0.3478 -0.7747
16962TIP3   OH272300   0.082   4.954  12.279  0.0082  0.7964 -0.1505
16962TIP3    H172301   0.020   4.947  12.351 -0.4999  0.4564 -0.6145
16962TIP3    H272302   0.165   4.976  12.320 -0.1733  0.1126  0.5833
16963TIP3   OH272303   3.255   6.632  16.512 -0.3096  0.5136  0.2707
16963TIP3    H172304   3.211   6.703  16.464 -1.2550  0.4205  0.9819
16963TIP3    H272305   3.213   6.633  16.598  1.1555  0.4725  0.9882
16964TIP3   OH272306   4.274   4.343  14.180 -0.7450  0.2896  0.6194
16964TIP3    H172307   4.237   4.268  14.226 -1.6982 -0.0670 -0.6792
16964TIP3    H272308   4.359   4.314  14.150 -1.6290 -0.7172 -0.9614
16965TIP3   OH272309   4.013   1.418   4.640 -0.0839  0.2500  0.0830
16965TIP3    H172310   4.023   1.426   4.545  2.0727 -3.8845 -0.1756
16965TIP3    H272311   3.929   1.372   4.651  0.5762 -1.0088  0.0121
16966TIP3   OH272312   0.232   5.515  11.340 -0.0438 -0.0776 -0.4880
16966TIP3    H172313   0.214   5.478  11.254 -0.0250 -0.5076 -0.3043
16966TIP3    H272314   0.279   5.447  11.387  0.1133  0.2267 -0.1988
16967TIP3   OH272315   2.444   4.421  14.197  0.4157 -0.2976  0.1003
16967TIP3    H172316   2.537   4.409  14.213  0.1662 -3.0909 -0.2466
16967TIP3    H272317   2.429   4.384  14.110 -1.3542 -1.9432  1.0466
16968TIP3   OH272318   5.105   1.191   2.652 -0.0135 -0.6032  0.3390
16968TIP3    H172319   5.036   1.165   2.714  0.3394  0.0195  1.0040
16968TIP3    H272320   5.166   1.117   2.652 -2.3232 -2.6136 -2.7485
16969TIP3   OH272321   0.868   4.627  17.187 -0.4600  0.7247 -0.0719
16969TIP3    H172322   0.873   4.669  17.273 -2.0399 -0.0357  0.4275
16969TIP3    H272323   0.800   4.676  17.141  1.1235  1.8027 -1.3005
16970TIP3   OH272324   1.078   3.788  14.190  0.3588 -0.1578  0.5666
16970TIP3    H172325   1.087   3.695  14.167  1.9373 -0.7416  3.3210
16970TIP3    H272326   1.003   3.790  14.249 -0.3209  0.5144 -0.3011
16971TIP3   OH272327   6.346   6.229   2.845  0.3926 -0.2606 -0.3381
16971TIP3    H172328   6.386   6.266   2.923 -0.7474 -0.3871  0.3294
16971TIP3    H272329   6.255   6.260   2.848  0.0310 -1.2241 -0.9801
16972TIP3   OH272330   0.609   1.772  14.188  1.2492 -0.0979  0.9298
16972TIP3    H172331   0.562   1.849  14.156  0.9451  0.4622  2.6606
16972TIP3    H272332   0.576   1.700  14.135  0.3129  0.6967  0.4084
16973TIP3   OH272333   3.093   1.102   0.461 -0.7908  0.7497 -0.0451
16973TIP3    H172334   3.133   1.121   0.376  1.2241  2.5312  1.2446
16973TIP3    H272335   3.026   1.169   0.472 -1.0062  0.5600 -0.2196
16974TIP3   OH272336   1.911   4.986  12.230  1.1347 -0.5607 -0.4525
16974TIP3    H172337   1.868   4.970  12.314 -0.0937  4.0767 -0.0805
16974TIP3    H272338   2.004   4.981  12.250  0.8460 -1.6106  0.7116
16975TIP3   OH272339   4.604   5.202   0.613 -0.4602  0.9007  0.4357
16975TIP3    H172340   4.584   5.233   0.525 -2.4442 -3.5818 -0.8791
16975TIP3    H272341   4.522   5.212   0.661 -1.0585 -1.7585  0.0633
16976TIP3   OH272342   0.131   4.121   2.011  0.2186  0.3289 -0.6104
16976TIP3    H172343   0.139   4.197   1.953  0.0931  0.5482 -0.3419
16976TIP3    H272344   0.040   4.124   2.042 -0.2755 -0.8720 -1.8915
16977TIP3   OH272345   3.611   2.974   6.326 -0.4290  0.3370 -0.4299
16977TIP3    H172346   3.626   3.035   6.398  4.3506 -0.8644 -0.2950
16977TIP3    H272347   3.620   2.888   6.366  0.9543 -0.3503 -2.1879
16978TIP3   OH272348   2.273   6.430  14.777 -0.2429 -0.2824 -0.3435
16978TIP3    H172349   2.258   6.510  14.827 -0.4223 -0.0036 -0.8345
16978TIP3    H272350   2.334   6.379  14.831 -0.3555  0.0540  0.1064
16979TIP3   OH272351   3.989   1.465  12.273 -0.2733 -0.2441  0.4687
16979TIP3    H172352   4.069   1.414  12.268 -1.4952 -2.1139 -0.6415
16979TIP3    H272353   4.013   1.551  12.237  1.0853 -0.9620 -0.3913
16980TIP3   OH272354   3.481   4.967  14.572  0.2056 -0.2471  0.1819
16980TIP3    H172355   3.467   4.970  14.666  1.6408  1.9173  0.3627
16980TIP3    H272356   3.564   4.921  14.561  0.0217 -0.5296 -0.0237
16981TIP3   OH272357   2.935   1.054   1.042 -0.8316 -0.8650  0.1608
16981TIP3    H172358   2.882   1.007   1.106  0.8846 -1.0689  1.4780
16981TIP3    H272359   3.020   1.064   1.085 -0.2848  0.8325 -1.2791
16982TIP3   OH272360   6.181   2.490   3.277 -0.6163  0.3528  0.1977
16982TIP3    H172361   6.205   2.468   3.367 -0.2870  2.0875  0.5602
16982TIP3    H272362   6.087   2.474   3.273 -0.3591 -1.3330  0.3411
16983TIP3   OH272363   6.510   0.231  11.383 -0.5050 -0.3967  0.2830
16983TIP3    H172364   6.423   0.255  11.414 -0.9531 -1.6444  0.0032
16983TIP3    H272365   6.510   0.136  11.380  0.9954 -0.4295  0.6106
16984TIP3   OH272366   3.277   1.365   3.114 -0.2289  0.0879 -0.2878
16984TIP3    H172367   3.321   1.280   3.114  0.1500  0.2798 -1.6708
16984TIP3    H272368   3.342   1.426   3.150 -1.2495 -0.5594  2.8122
16985TIP3   OH272369   1.184   4.076  13.413  0.4617 -0.3124  0.3855
16985TIP3    H172370   1.184   4.063  13.318 -0.1593 -0.4880  0.4052
16985TIP3    H272371   1.167   4.170  13.425 -1.0950 -0.5800  0.3478
16986TIP3   OH272372   3.592   5.318  14.019 -0.6716 -0.1060 -0.3460
16986TIP3    H172373   3.550   5.376  14.082 -1.0303 -0.1384 -0.5566
16986TIP3    H272374   3.532   5.245  14.008 -0.1785 -0.5691 -0.0155
16987TIP3   OH272375   2.347   4.500  13.450 -0.4180 -0.3225  0.7939
16987TIP3    H172376   2.366   4.543  13.534 -0.5148  0.5589  0.3669
16987TIP3    H272377   2.260   4.462  13.462 -1.3188  1.5751  0.3954
16988TIP3   OH272378   6.648   0.136  13.613  0.5079  0.8935  0.2180
16988TIP3    H172379   6.618   0.169  13.529 -0.7094  1.1845  0.7500
16988TIP3    H272380   6.634   0.041  13.609 -1.2828  1.1127  0.7514
16989TIP3   OH272381   5.962   5.328   1.214  0.1323 -0.7755 -0.2719
16989TIP3    H172382   5.933   5.387   1.284  0.3080  1.5274 -2.0783
16989TIP3    H272383   6.058   5.326   1.223  0.1932 -0.0597 -0.7813
16990TIP3   OH272384   6.516   2.715  12.452 -0.4255 -0.1396  0.1124
16990TIP3    H172385   6.512   2.678  12.364  1.1065 -0.9838  0.3828
16990TIP3    H272386   6.607   2.704  12.478 -0.3850  2.0882  0.9636
16991TIP3   OH272387   5.068   1.145  12.385 -0.0304 -0.2454  0.2851
16991TIP3    H172388   5.007   1.219  12.390 -0.3130 -0.4353 -0.2269
16991TIP3    H272389   5.088   1.123  12.476 -0.5710 -0.0497  0.4512
16992TIP3   OH272390   0.115   4.697   5.441  0.1805  0.2658  0.0147
16992TIP3    H172391   0.063   4.621   5.412 -0.9720  0.7352  0.8351
16992TIP3    H272392   0.086   4.713   5.530  0.8434  1.3312  0.0406
16993TIP3   OH272393   0.453   5.713   5.267  0.3482  0.3392 -0.0209
16993TIP3    H172394   0.441   5.742   5.176  0.3770 -0.3641 -0.2510
16993TIP3    H272395   0.437   5.619   5.264 -1.2422  0.5727  1.0036
16994TIP3   OH272396   3.216   2.575   2.687 -0.2652 -0.1774  0.3767
16994TIP3    H172397   3.126   2.602   2.706 -0.4552 -0.8191  0.4169
16994TIP3    H272398   3.268   2.608   2.761 -0.0547  2.3475 -0.8668
16995TIP3   OH272399   0.674   3.180  16.246  0.1767  0.0227  0.2886
16995TIP3    H172400   0.731   3.205  16.174  1.8295 -2.0894  0.8430
16995TIP3    H272401   0.725   3.197  16.325 -0.0077 -1.6672  0.8023
16996TIP3   OH272402   5.290   2.304   4.297 -0.0625  1.1989 -0.6988
16996TIP3    H172403   5.348   2.379   4.297 -0.5532  1.5918  0.7185
16996TIP3    H272404   5.289   2.274   4.388  0.8581 -1.1000 -1.4095
16997TIP3   OH272405   6.402   2.262   3.178 -0.2241  0.5435 -0.3426
16997TIP3    H172406   6.438   2.309   3.253  1.1681  0.5403 -0.9879
16997TIP3    H272407   6.334   2.206   3.215  0.8601  0.1055  1.0086
16998TIP3   OH272408   4.088   4.506   0.103  0.0424  0.2778  0.4842
16998TIP3    H172409   4.167   4.480   0.152  0.5172 -0.7710 -0.8010
16998TIP3    H272410   4.109   4.486   0.012 -0.0716  4.1202 -0.4427
16999TIP3   OH272411   0.177   1.953   2.558 -0.6607  0.1836  0.6590
16999TIP3    H172412   0.213   2.038   2.582 -0.5540  0.4774 -0.5487
16999TIP3    H272413   0.216   1.933   2.473 -3.1242  0.3796 -0.5373
17000TIP3   OH272414   5.546   3.611   2.149 -0.2927 -0.1107  0.2603
17000TIP3    H172415   5.488   3.685   2.134 -0.1405  0.5153  2.6448
17000TIP3    H272416   5.607   3.640   2.216  1.6559 -1.3988 -0.8810
17001TIP3   OH272417   0.952   0.655   6.661 -0.2599 -0.1862  0.1362
17001TIP3    H172418   0.871   0.642   6.711 -0.2964 -1.6048 -0.2736
17001TIP3    H272419   0.936   0.735   6.611 -1.5347 -0.6150 -0.1773
17002TIP3   OH272420   0.056   2.487  14.103 -0.2892  0.2153  0.3447
17002TIP3    H172421   0.150   2.492  14.115 -0.5354  0.9605  2.1870
17002TIP3    H272422   0.026   2.424  14.168 -1.0572 -0.0978 -0.3005
17003TIP3   OH272423   3.321   6.317   3.999  0.2091 -0.6549 -0.0407
17003TIP3    H172424   3.312   6.228   3.965  1.0034 -0.6916 -0.1616
17003TIP3    H272425   3.365   6.306   4.083 -1.8041 -0.5724  1.0437
17004TIP3   OH272426   3.282   0.155  16.148 -0.0608  0.0535 -0.1331
17004TIP3    H172427   3.263   0.076  16.097  1.5052 -0.0690 -0.5487
17004TIP3    H272428   3.276   0.126  16.239  0.7432 -0.6166 -0.2845
17005TIP3   OH272429   0.237   4.308   0.738 -0.5349 -0.2070 -0.2864
17005TIP3    H172430   0.157   4.304   0.685 -1.0230 -0.8144  0.4895
17005TIP3    H272431   0.292   4.237   0.705 -0.2884  0.2279 -0.8381
17006TIP3   OH272432   3.274   4.950   6.398 -0.0645 -0.5574  0.1690
17006TIP3    H172433   3.195   4.913   6.359  0.5549 -1.0656 -0.6346
17006TIP3    H272434   3.273   4.919   6.488 -1.0868 -0.0598  0.3330
17007TIP3   OH272435   3.951   1.127  11.684 -0.1355 -0.6481  0.1004
17007TIP3    H172436   3.863   1.162  11.698  0.4354  0.7614  0.3215
17007TIP3    H272437   3.984   1.176  11.608  1.6988  1.3109  2.0672
17008TIP3   OH272438   4.004   0.124  11.835 -0.0458 -0.0824  0.0447
17008TIP3    H172439   3.959   0.076  11.905 -0.0748 -1.9337 -1.2319
17008TIP3    H272440   4.033   0.057  11.773  1.6150  1.3692 -0.8161
17009TIP3   OH272441   6.157   5.612   5.165  0.0855 -0.0007 -0.2785
17009TIP3    H172442   6.097   5.550   5.126 -1.2362  1.0747  0.0080
17009TIP3    H272443   6.188   5.665   5.092 -1.1163  0.9417 -0.1234
17010TIP3   OH272444   4.409   5.471  14.874  1.0529  0.0892 -0.1829
17010TIP3    H172445   4.419   5.430  14.788  0.3306  0.4335 -0.4311
17010TIP3    H272446   4.496   5.464  14.914  2.0887  2.2509 -1.9786
17011TIP3   OH272447   1.026   2.216  13.441 -0.1173  0.1186  0.3225
17011TIP3    H172448   1.063   2.270  13.511 -3.0796  0.8762  1.3864
17011TIP3    H272449   1.038   2.126  13.471 -0.8297  0.4216  1.5524
17012TIP3   OH272450   4.671   0.530  11.233  0.4329  0.3080 -0.5045
17012TIP3    H172451   4.667   0.440  11.203  1.2475  0.0964 -0.0228
17012TIP3    H272452   4.728   0.526  11.311 -0.8590  0.9716  0.4889
17013TIP3   OH272453   6.757   0.204   3.447  1.3042 -0.4758  0.0789
17013TIP3    H172454   6.766   0.114   3.415  0.1595 -1.1997  1.7181
17013TIP3    H272455   6.824   0.253   3.400  1.9313 -2.1812 -0.8517
17014TIP3   OH272456   1.738   2.704  14.350 -0.0203 -0.3998 -0.0575
17014TIP3    H172457   1.809   2.640  14.342 -0.2483 -1.0768  2.9092
17014TIP3    H272458   1.726   2.716  14.444 -0.6614  3.3215 -0.5281
17015TIP3   OH272459   4.239   3.313  10.743  0.4715 -0.1497 -0.3698
17015TIP3    H172460   4.312   3.283  10.798  1.5106 -0.2483 -1.7826
17015TIP3    H272461   4.165   3.259  10.771  1.0328 -0.3466  0.7891
17016TIP3   OH272462   1.511   1.770   1.402 -0.4353 -0.1451  0.4554
17016TIP3    H172463   1.566   1.706   1.447  0.2193 -0.0764 -0.2425
17016TIP3    H272464   1.464   1.719   1.336 -0.3192  0.0001  0.2608
17017TIP3   OH272465   2.645   1.749  11.986 -0.2333 -0.0690 -0.2165
17017TIP3    H172466   2.723   1.761  11.930 -0.3121 -0.9683 -0.5240
17017TIP3    H272467   2.589   1.823  11.964  0.4937  0.5386 -0.0601
17018TIP3   OH272468   6.018   1.493  17.227  0.4569 -0.2566  0.0190
17018TIP3    H172469   5.942   1.446  17.191  0.4746 -0.2911  0.0274
17018TIP3    H272470   6.007   1.583  17.197  0.5659 -0.3228 -0.2173
17019TIP3   OH272471   4.086   3.912   1.203 -0.5118  0.3161  0.2554
17019TIP3    H172472   4.082   3.819   1.225 -1.8997  0.2139 -0.3929
17019TIP3    H272473   4.167   3.922   1.154  0.4571 -0.2501  1.6977
17020TIP3   OH272474   1.443   1.443   5.489  0.0985 -0.2704 -0.3319
17020TIP3    H172475   1.391   1.370   5.456 -1.6208  0.7452  0.0966
17020TIP3    H272476   1.421   1.516   5.431  0.0289  0.5037  0.6608
17021TIP3   OH272477   5.765   0.879  16.892 -0.2790  0.2586  0.3837
17021TIP3    H172478   5.810   0.918  16.817  0.3517  0.4553  0.8613
17021TIP3    H272479   5.673   0.876  16.865  0.4204 -3.0509 -1.8563
17022TIP3   OH272480   3.428   4.213  15.022 -0.4449 -0.6703  0.2540
17022TIP3    H172481   3.420   4.257  14.937 -0.0941 -0.7192  0.1930
17022TIP3    H272482   3.344   4.170  15.035 -0.7572 -0.0597  0.2677
17023TIP3   OH272483   1.300   0.945   2.382 -0.1084  0.1587  0.2362
17023TIP3    H172484   1.374   0.904   2.426  1.9787  2.3646 -1.0798
17023TIP3    H272485   1.285   1.026   2.432 -0.5219  0.5557 -0.5245
17024TIP3   OH272486   3.801   2.607   1.989  0.1218  0.2921 -0.2690
17024TIP3    H172487   3.728   2.608   2.051 -1.6497  2.2325 -2.2894
17024TIP3    H272488   3.879   2.601   2.044 -1.5312 -1.5581  1.9614
17025TIP3   OH272489   3.227   5.254   3.527 -0.0151 -0.1188 -0.7217
17025TIP3    H172490   3.308   5.226   3.570 -0.2097 -0.7208 -0.7350
17025TIP3    H272491   3.255   5.292   3.444  0.1101 -2.3321 -1.7292
17026TIP3   OH272492   5.600   1.239  11.292 -0.7936  0.0801 -0.2396
17026TIP3    H172493   5.575   1.248  11.384 -2.0118  1.0967 -0.6583
17026TIP3    H272494   5.526   1.275  11.243 -0.6810 -1.5360 -1.6567
17027TIP3   OH272495   6.059   6.579   5.141  0.0646 -0.6240  0.1036
17027TIP3    H172496   6.094   6.656   5.095 -0.5224  0.0296  0.7345
17027TIP3    H272497   6.003   6.616   5.210 -1.5576 -1.6341 -0.6477
17028TIP3   OH272498   1.305   2.665   4.262  0.2147 -0.1880  0.1465
17028TIP3    H172499   1.289   2.675   4.355  1.3635  1.3309  0.2035
17028TIP3    H272500   1.263   2.582   4.239 -0.8229 -0.1469  1.8185
17029TIP3   OH272501   4.875   6.534   0.635  0.1451 -0.2909 -0.4403
17029TIP3    H172502   4.926   6.513   0.556  0.3803  1.1137 -0.6720
17029TIP3    H272503   4.937   6.522   0.707  0.3803 -0.0542 -0.6011
17030TIP3   OH272504   1.642   4.729  14.771  0.1356 -0.2844 -1.0006
17030TIP3    H172505   1.624   4.757  14.860  2.3605 -0.3539 -0.5124
17030TIP3    H272506   1.669   4.637  14.779  3.1496  0.5289 -1.3913
17031TIP3   OH272507   2.115   3.344  12.908 -0.8729 -0.2375 -0.1772
17031TIP3    H172508   2.173   3.411  12.944  0.3091 -1.3105 -0.0350
17031TIP3    H272509   2.071   3.387  12.835 -0.5559  0.8601  0.2646
17032TIP3   OH272510   1.320   2.230  11.768 -0.0814  0.5565 -0.5421
17032TIP3    H172511   1.326   2.167  11.695 -1.9562 -0.4583  0.1566
17032TIP3    H272512   1.338   2.178  11.846  3.3221  1.9178 -0.3149
17033TIP3   OH272513   2.500   5.054  14.514  0.0382 -0.7348 -0.1185
17033TIP3    H172514   2.526   5.048  14.606  2.6133  2.6057 -0.5381
17033TIP3    H272515   2.570   5.009  14.466 -0.5526 -1.1854 -0.5745
17034TIP3   OH272516   4.177   6.073   1.318 -0.2440  0.4618 -0.2878
17034TIP3    H172517   4.250   6.076   1.380 -1.1058 -0.6731  0.8057
17034TIP3    H272518   4.109   6.126   1.359 -0.8774 -0.4344 -0.1592
17035TIP3   OH272519   0.448   5.314   3.373 -0.3326 -0.5931  0.4981
17035TIP3    H172520   0.510   5.253   3.412 -1.5554 -1.1829  1.5291
17035TIP3    H272521   0.387   5.259   3.324 -1.1376 -0.1659  1.0151
17036TIP3   OH272522   2.571   3.477  13.182 -0.2873 -0.8300 -0.6163
17036TIP3    H172523   2.605   3.444  13.264 -1.3793  0.7855  0.5280
17036TIP3    H272524   2.628   3.440  13.115  0.2312 -2.6581  0.8070
17037TIP3   OH272525   1.752   2.440   3.344 -0.5981 -0.1797  0.1812
17037TIP3    H172526   1.659   2.454   3.328 -0.2358  0.1789 -1.8489
17037TIP3    H272527   1.760   2.430   3.439 -2.6584  0.0433  0.3927
17038TIP3   OH272528   1.265   0.871  12.378 -0.0999  0.0886 -0.0815
17038TIP3    H172529   1.192   0.845  12.323 -0.6724 -2.0951  1.6557
17038TIP3    H272530   1.315   0.791  12.392  1.8621  1.2767 -0.1149
17039TIP3   OH272531   4.154   6.688  13.953  0.9396  0.1073 -0.0786
17039TIP3    H172532   4.143   6.780  13.979  0.0120 -0.0740  0.1712
17039TIP3    H272533   4.070   6.647  13.972  1.1403 -0.6544 -0.8102
17040TIP3   OH272534   1.507   2.663  12.457 -0.1383  0.1989 -0.2660
17040TIP3    H172535   1.423   2.700  12.431  0.2275  0.8838 -0.5114
17040TIP3    H272536   1.540   2.723  12.524  0.7632  0.6940 -1.1402
17041TIP3   OH272537   5.420   3.979   1.519  0.2934 -0.2989  0.1473
17041TIP3    H172538   5.472   4.056   1.494  0.7182  0.3107  2.8028
17041TIP3    H272539   5.393   3.996   1.609 -1.2611 -2.3890  0.1104
17042TIP3   OH272540   3.714   2.934  10.958 -0.2001 -1.0400 -0.1015
17042TIP3    H172541   3.732   2.892  11.043 -0.8168 -1.4898 -0.1876
17042TIP3    H272542   3.797   2.930  10.911  0.0201 -1.2243  0.2967
17043TIP3   OH272543   5.609   4.986  14.748  0.5004 -0.0763  1.1412
17043TIP3    H172544   5.620   4.960  14.839  1.2373 -1.4258  0.6830
17043TIP3    H272545   5.539   4.931  14.715  1.2139 -0.6233  0.5097
17044TIP3   OH272546   0.703   0.588  10.754 -0.1916 -0.0319  0.0423
17044TIP3    H172547   0.727   0.497  10.771 -0.9989 -0.2659 -0.0788
17044TIP3    H272548   0.787   0.633  10.747  0.2139 -0.7574  0.1414
17045TIP3   OH272549   3.034   1.337   1.102 -0.5080 -0.4009 -0.2299
17045TIP3    H172550   3.082   1.415   1.128 -0.4612 -0.5730  0.1900
17045TIP3    H272551   3.089   1.296   1.036  0.0370 -0.7366  0.4345
17046TIP3   OH272552   4.448   5.768  13.215 -0.2697  0.3373 -0.2329
17046TIP3    H172553   4.473   5.800  13.128  1.1893  1.3591  0.5322
17046TIP3    H272554   4.504   5.692  13.230 -1.1640 -0.3948 -0.5459
17047TIP3   OH272555   3.671   6.460  11.493  0.3294  0.6143  0.0978
17047TIP3    H172556   3.584   6.499  11.481 -0.4090 -0.6401  1.2715
17047TIP3    H272557   3.684   6.406  11.415  0.3940  1.4382 -0.4610
17048TIP3   OH272558   0.774   3.381   2.823 -0.4068 -0.0406  0.6317
17048TIP3    H172559   0.813   3.461   2.858  1.1049 -0.2934 -0.4013
17048TIP3    H272560   0.691   3.409   2.785 -0.7032  0.7280  1.8207
17049TIP3   OH272561   2.803   3.057  16.752 -0.0027  0.6111  0.0015
17049TIP3    H172562   2.710   3.043  16.730  0.2675 -0.9136 -0.2233
17049TIP3    H272563   2.835   2.970  16.776  1.1555  1.2917  0.9329
17050TIP3   OH272564   3.032   3.807   1.877  0.1504  0.2176 -0.3496
17050TIP3    H172565   3.078   3.886   1.848 -1.0134  0.4001 -1.7657
17050TIP3    H272566   2.948   3.840   1.911 -0.9966 -0.5255 -2.4013
17051TIP3   OH272567   6.659   3.604  14.910  0.0775  0.1554 -0.0963
17051TIP3    H172568   6.681   3.690  14.946 -1.5628  0.3280  0.5278
17051TIP3    H272569   6.666   3.544  14.984 -0.6431  0.0706 -0.0915
17052TIP3   OH272570   5.566   1.630  16.155  0.2228 -0.0272 -0.7187
17052TIP3    H172571   5.548   1.546  16.114 -0.0608 -0.2449 -0.1462
17052TIP3    H272572   5.551   1.695  16.086 -0.4177 -0.3793 -0.9104
17053TIP3   OH272573   4.168   3.206   2.149 -0.0032  0.0965 -0.2114
17053TIP3    H172574   4.242   3.264   2.168 -0.2492  0.4800 -0.4147
17053TIP3    H272575   4.115   3.208   2.228  1.1048 -1.5713  0.6128
17054TIP3   OH272576   5.154   3.650  14.335  0.3801  0.3627  0.2152
17054TIP3    H172577   5.143   3.647  14.430  0.8040  3.0672  0.3712
17054TIP3    H272578   5.087   3.711  14.305  0.2602 -0.4752 -1.2437
17055TIP3   OH272579   2.196   0.514   0.920 -0.6627 -0.0537 -0.0739
17055TIP3    H172580   2.215   0.420   0.914  0.8553 -0.0038  2.9697
17055TIP3    H272581   2.202   0.533   1.013  1.0848  3.4958 -0.8324
17056TIP3   OH272582   3.504   4.486   1.416 -0.3090 -0.4532 -0.0572
17056TIP3    H172583   3.474   4.572   1.387  3.3690  0.8959 -0.1997
17056TIP3    H272584   3.454   4.468   1.495 -3.3106  0.3781 -1.7006
17057TIP3   OH272585   0.960   3.358  15.110  0.3750 -0.7178 -0.0984
17057TIP3    H172586   1.008   3.385  15.032  0.6827  0.5573  0.5046
17057TIP3    H272587   1.007   3.402  15.182  0.6169 -2.5399  0.8803
17058TIP3   OH272588   0.962   5.017  16.179 -0.8927  0.3415  0.0380
17058TIP3    H172589   1.007   5.006  16.096 -0.0076 -2.1108  0.7858
17058TIP3    H272590   0.927   5.105  16.176 -1.0287  0.2355 -3.0036
17059TIP3   OH272591   3.083   6.040  14.285 -0.3300 -0.1990 -0.1027
17059TIP3    H172592   3.017   6.085  14.232 -0.1182  0.4037  0.1413
17059TIP3    H272593   3.032   5.992  14.351 -0.4661  2.0197  1.4677
17060TIP3   OH272594   5.011   3.149   1.944  0.1313 -0.4409  0.1536
17060TIP3    H172595   5.065   3.212   1.991  1.8355  0.4771 -2.9440
17060TIP3    H272596   4.928   3.195   1.930  1.3840  1.2203 -2.1553
17061TIP3   OH272597   0.867   3.869  13.947  0.0306  0.6966 -0.2559
17061TIP3    H172598   0.793   3.918  13.984  0.3286  2.1855 -1.5351
17061TIP3    H272599   0.939   3.886  14.006 -0.7656 -1.1720  1.2751
17062TIP3   OH272600   4.416   1.257   2.917  0.1949 -0.1640 -0.0618
17062TIP3    H172601   4.467   1.196   2.864  0.9859  0.0584  0.4279
17062TIP3    H272602   4.478   1.289   2.983 -0.8865 -0.7765  1.2888
17063TIP3   OH272603   2.532   3.153   4.163 -0.2011 -0.0806  0.1074
17063TIP3    H172604   2.478   3.193   4.094 -1.5300 -1.8505  0.0714
17063TIP3    H272605   2.611   3.124   4.117 -1.1410 -1.3753 -0.7420
17064TIP3   OH272606   4.759   5.354   5.266  0.1751 -0.2026  0.1451
17064TIP3    H172607   4.709   5.353   5.184  1.9435  0.7296 -0.9882
17064TIP3    H272608   4.849   5.333   5.238  0.5835 -1.0074  2.0125
17065TIP3   OH272609   1.978   4.618  10.467 -0.1387  0.1072  0.2683
17065TIP3    H172610   1.987   4.708  10.500  1.3212  1.3357 -3.2076
17065TIP3    H272611   2.067   4.583  10.472 -0.3812 -0.5435 -0.0064
17066TIP3   OH272612   4.013   3.016   3.316 -0.5322 -0.5887  0.2562
17066TIP3    H172613   3.923   2.990   3.335 -0.9200 -0.1332 -0.8793
17066TIP3    H272614   4.029   2.981   3.228  0.4414 -0.7766  0.5070
17067TIP3   OH272615   6.610   6.439  12.282 -0.4065  0.3631 -0.3429
17067TIP3    H172616   6.570   6.426  12.196 -1.1779  0.3144  0.0182
17067TIP3    H272617   6.691   6.387  12.279 -0.9818 -0.5244 -0.6551
17068TIP3   OH272618   3.034   3.132   1.846  0.4026 -0.7267 -0.2975
17068TIP3    H172619   2.988   3.063   1.798  1.4072 -1.8801  0.3626
17068TIP3    H272620   2.967   3.199   1.862 -0.4926 -1.3644 -1.2867
17069TIP3   OH272621   6.112   0.829  14.997  0.2071  0.2625  0.2942
17069TIP3    H172622   6.163   0.857  14.921  0.0238  2.6484  1.0018
17069TIP3    H272623   6.051   0.763  14.963  1.0337  0.3182 -1.3365
17070TIP3   OH272624   6.492   1.122  17.015 -0.2782  0.2325 -0.3843
17070TIP3    H172625   6.459   1.033  17.010  0.6144 -0.2431  1.7616
17070TIP3    H272626   6.414   1.175  17.034 -1.0572  0.1408 -3.1220
17071TIP3   OH272627   1.286   1.957   1.392 -0.6867  0.3725  0.1239
17071TIP3    H172628   1.303   2.001   1.308  0.4891  1.5459  0.9655
17071TIP3    H272629   1.358   1.895   1.402 -1.1342 -0.1723  0.0125
17072TIP3   OH272630   1.911   5.188  17.100 -1.1250  0.1713  0.7150
17072TIP3    H172631   1.854   5.132  17.152 -1.1567  0.0791  0.5797
17072TIP3    H272632   1.948   5.250  17.164 -0.1998 -0.7178  1.0516
17073TIP3   OH272633   2.750   5.945   3.779 -0.3707  0.1264 -0.2877
17073TIP3    H172634   2.718   5.912   3.863  3.4610  0.0849  1.2743
17073TIP3    H272635   2.739   6.040   3.785 -2.0576 -0.0157 -0.6776
17074TIP3   OH272636   2.503   4.590   5.016  0.0226  0.1467  0.3035
17074TIP3    H172637   2.572   4.581   5.082  1.6944 -0.2530 -1.4407
17074TIP3    H272638   2.449   4.663   5.047  0.3184 -0.5364  2.4834
17075TIP3   OH272639   1.337   1.041   0.355 -0.0777 -0.5989 -0.0191
17075TIP3    H172640   1.380   0.995   0.283 -0.8703 -2.1144  0.4568
17075TIP3    H272641   1.244   1.034   0.335 -0.2038  1.3164 -0.2309
17076TIP3   OH272642   3.288   1.627  14.239  0.2797 -0.1859 -0.2410
17076TIP3    H172643   3.258   1.629  14.148 -2.3091  0.2368  0.5691
17076TIP3    H272644   3.325   1.539  14.250  0.3089 -0.3528 -1.6045
17077TIP3   OH272645   6.667   3.611  15.564 -0.2759 -0.2245 -0.3176
17077TIP3    H172646   6.756   3.642  15.549 -0.0753 -0.9689 -0.7062
17077TIP3    H272647   6.613   3.690  15.564  0.3229  0.1848 -0.5264
17078TIP3   OH272648   0.287   2.503  11.625  0.5503  0.2035 -0.2479
17078TIP3    H172649   0.321   2.570  11.685 -1.2674  0.0466  0.9945
17078TIP3    H272650   0.245   2.552  11.555 -2.7138  0.4629  1.7638
17079TIP3   OH272651   0.853   6.758  15.582 -0.2098 -0.0634 -0.0551
17079TIP3    H172652   0.826   6.789  15.669 -2.7054 -0.0906 -0.7867
17079TIP3    H272653   0.827   6.666  15.582 -0.9846  0.1581 -1.1441
17080TIP3   OH272654   4.964   6.349   3.241 -0.1145 -0.5706  0.3373
17080TIP3    H172655   4.922   6.411   3.300 -1.1448 -1.2085  0.2893
17080TIP3    H272656   4.904   6.274   3.238  0.8967 -1.3830  0.0498
17081TIP3   OH272657   3.934   5.200  11.987 -0.0519 -0.5028  0.4075
17081TIP3    H172658   3.889   5.263  11.932 -0.5267  0.5098  1.9392
17081TIP3    H272659   3.872   5.179  12.057  0.4983 -1.8560  0.5195
17082TIP3   OH272660   2.797   4.503  14.485 -0.2432  0.3491 -0.5308
17082TIP3    H172661   2.730   4.441  14.456 -1.3103  1.3857 -0.2971
17082TIP3    H272662   2.749   4.575  14.524  1.0438  0.7408  0.3892
17083TIP3   OH272663   4.118   4.728  13.268  0.4826  0.1441 -0.3263
17083TIP3    H172664   4.026   4.718  13.243  0.4806  0.7546 -0.5867
17083TIP3    H272665   4.129   4.671  13.343 -0.3806  0.8530  0.3568
17084TIP3   OH272666   2.039   5.137   0.613  0.3906  0.1227  0.0002
17084TIP3    H172667   2.028   5.207   0.678  0.1646 -0.3204  0.4497
17084TIP3    H272668   2.034   5.181   0.529  1.1746  0.7769  0.2889
17085TIP3   OH272669   3.852   6.292  15.344  0.4225 -0.0385  0.7926
17085TIP3    H172670   3.782   6.339  15.299 -0.6992 -0.3016  2.2274
17085TIP3    H272671   3.853   6.206  15.303  0.5929  0.3029  0.0766
17086TIP3   OH272672   3.256   2.247   4.065 -0.0925 -0.4002  0.2355
17086TIP3    H172673   3.287   2.164   4.030  0.8379  0.7162 -1.7100
17086TIP3    H272674   3.313   2.264   4.140  0.7725 -0.7758 -0.3244
17087TIP3   OH272675   6.633   2.814   6.024 -0.4095  0.4978  0.4840
17087TIP3    H172676   6.552   2.823   6.074 -0.8899 -0.8410 -0.0310
17087TIP3    H272677   6.626   2.727   5.983  1.4804  0.1744  0.8085
17088TIP3   OH272678   3.634   4.747  12.447  0.5498  0.3885 -0.0050
17088TIP3    H172679   3.651   4.653  12.443 -0.3596  0.2542 -0.9884
17088TIP3    H272680   3.542   4.754  12.471  0.2838  0.9973 -1.1494
17089TIP3   OH272681   4.032   2.326   4.795 -0.2023 -0.6208  0.5262
17089TIP3    H172682   4.035   2.268   4.720 -1.1042 -1.1850  0.9197
17089TIP3    H272683   4.086   2.401   4.770 -0.3052 -0.9160 -0.5791
17090TIP3   OH272684   5.893   4.737   6.100 -0.7246 -0.9288 -0.2330
17090TIP3    H172685   5.839   4.760   6.176  0.6673 -0.7811  0.7196
17090TIP3    H272686   5.886   4.642   6.094  1.5781 -1.2819  1.9403
17091TIP3   OH272687   2.265   3.215  15.840 -0.2156 -0.3944 -0.1602
17091TIP3    H172688   2.174   3.243  15.850 -0.6182 -1.9127  0.6337
17091TIP3    H272689   2.260   3.128  15.800  0.8573 -0.6966  0.3225
17092TIP3   OH272690   4.022   5.203   0.928 -0.0271  0.2378  0.2324
17092TIP3    H172691   3.964   5.178   1.000  0.9516  1.2353  1.3999
17092TIP3    H272692   4.076   5.273   0.964  0.3166  0.9345 -1.5661
17093TIP3   OH272693   2.791   4.022  17.169  0.4103  0.6538 -0.4611
17093TIP3    H172694   2.708   4.036  17.215  1.2483  3.0701  0.4007
17093TIP3    H272695   2.782   4.072  17.087  0.1495 -0.9827 -1.4382
17094TIP3   OH272696   6.013   5.840  12.365 -0.3911  0.2638 -0.1123
17094TIP3    H172697   6.049   5.759  12.401  0.7967  1.1383  0.7388
17094TIP3    H272698   6.068   5.857  12.288  0.5483  1.1936  0.7455
17095TIP3   OH272699   2.159   3.263   2.153  0.1255  0.2379 -0.2569
17095TIP3    H172700   2.150   3.324   2.226 -1.8433 -1.1431  0.7186
17095TIP3    H272701   2.253   3.258   2.136  0.6219  0.4104  2.3259
17096TIP3   OH272702   0.579   3.933   0.665  0.6775 -0.3361 -0.4244
17096TIP3    H172703   0.625   3.928   0.749 -0.1797 -0.9100  0.0253
17096TIP3    H272704   0.621   3.866   0.611 -1.3714 -2.7879  0.8800
17097TIP3   OH272705   1.989   0.030  11.319  0.3571  0.7649 -0.5579
17097TIP3    H172706   2.016   0.119  11.297  0.3233  0.4590 -1.9114
17097TIP3    H272707   2.046  -0.026  11.266 -0.6480  0.0248 -0.8854
17098TIP3   OH272708   3.419   1.385   2.635  0.0159  0.0567  0.3143
17098TIP3    H172709   3.388   1.453   2.696  4.6192  4.3607 -1.7490
17098TIP3    H272710   3.375   1.405   2.552 -0.9251 -1.4785  0.4177
17099TIP3   OH272711   6.066   0.008   6.329 -0.4141  0.2163  0.4102
17099TIP3    H172712   6.046   0.099   6.353 -1.6311 -0.3378  1.6155
17099TIP3    H272713   6.017  -0.044   6.393  1.0047 -1.2782  0.3100
17100TIP3   OH272714   5.297   3.497  16.899 -0.4056  0.7930  0.4846
17100TIP3    H172715   5.318   3.578  16.946  0.6601  1.7655 -1.5838
17100TIP3    H272716   5.381   3.467  16.865 -0.9297 -0.7286  0.5167
17101TIP3   OH272717   5.569   2.350  16.714 -0.8938 -0.2144 -0.0957
17101TIP3    H172718   5.630   2.422  16.733  1.5181 -1.9100 -1.1253
17101TIP3    H272719   5.517   2.381  16.640  0.6410  0.1897 -1.0214
17102TIP3   OH272720   2.637   6.217  12.297 -0.2405 -0.1980 -0.2397
17102TIP3    H172721   2.542   6.217  12.292 -0.2747 -1.3888  0.3287
17102TIP3    H272722   2.657   6.268  12.376 -0.3263  1.6206 -1.3542
17103TIP3   OH272723   3.559   0.143  10.974  0.1444  0.1797 -0.2114
17103TIP3    H172724   3.606   0.220  11.006 -1.6359  1.1360  0.1606
17103TIP3    H272725   3.524   0.169  10.889  1.3594 -0.9660 -1.0856
17104TIP3   OH272726   4.523   2.503   0.063  0.3808 -0.4175 -0.4733
17104TIP3    H172727   4.616   2.513   0.082 -0.0296 -1.5616  2.3736
17104TIP3    H272728   4.496   2.425   0.111 -2.3326  0.6457 -0.1546
17105TIP3   OH272729   5.332   6.117  13.360 -0.2047 -0.0973  0.2906
17105TIP3    H172730   5.345   6.186  13.296  1.3994  0.4340  1.1709
17105TIP3    H272731   5.387   6.045  13.329  0.6669  0.2034  1.1202
17106TIP3   OH272732   5.107   1.093  10.941 -0.4648  0.2588  0.0922
17106TIP3    H172733   5.187   1.145  10.931 -1.5793  1.7457 -1.3747
17106TIP3    H272734   5.138   1.003  10.950  1.3901  0.8603 -0.0470
17107TIP3   OH272735   1.408   0.417  11.795  0.3988  0.4578 -0.5580
17107TIP3    H172736   1.494   0.413  11.837  0.1714  1.7360  0.0543
17107TIP3    H272737   1.427   0.417  11.701  1.0084 -0.4130 -0.4334
17108TIP3   OH272738   4.136   3.970  16.964  0.7255 -0.2931 -0.4038
17108TIP3    H172739   4.058   3.985  17.017  0.4657 -1.5996 -0.4035
17108TIP3    H272740   4.209   4.000  17.019  0.2503  0.7888 -0.3493
17109TIP3   OH272741   1.793   2.501   2.996 -0.4007 -0.6945  0.3223
17109TIP3    H172742   1.736   2.479   3.070 -1.5121 -0.5242 -0.4792
17109TIP3    H272743   1.866   2.440   3.004 -1.1897 -1.5970  0.7739
17110TIP3   OH272744   3.771   3.329   1.092 -0.0387  0.1945 -0.6947
17110TIP3    H172745   3.732   3.407   1.051 -1.3971  0.0781  0.3476
17110TIP3    H272746   3.797   3.274   1.019 -0.7163  0.8237 -1.4174
17111TIP3   OH272747   3.391   1.441   5.800  0.9416 -0.3623  1.0297
17111TIP3    H172748   3.425   1.421   5.712  2.1454 -1.8548  1.8149
17111TIP3    H272749   3.413   1.534   5.813  0.6669 -0.1005 -0.2764
17112TIP3   OH272750   0.256   5.495   5.324 -0.1372 -0.2137  0.1314
17112TIP3    H172751   0.172   5.448   5.330  1.1501 -2.2609  2.7424
17112TIP3    H272752   0.253   5.559   5.394 -0.7700  1.9129 -1.7627
17113TIP3   OH272753   2.720   5.400  11.945  0.1144 -0.1482  0.1486
17113TIP3    H172754   2.746   5.348  11.868 -3.2848 -1.1564 -0.4092
17113TIP3    H272755   2.796   5.395  12.003  3.1261  1.3066 -3.3953
17114TIP3   OH272756   5.582   1.697  14.272 -0.0132 -0.3006  0.2113
17114TIP3    H172757   5.528   1.776  14.271 -0.5313 -0.6683 -1.2913
17114TIP3    H272758   5.526   1.630  14.310  0.4167  0.0211  1.4557
17115TIP3   OH272759   5.946   3.662   3.136 -0.2596  0.2154  0.4162
17115TIP3    H172760   5.967   3.686   3.045 -3.1366 -0.5780 -0.5178
17115TIP3    H272761   6.026   3.624   3.170  0.6202 -0.2525 -2.0751
17116TIP3   OH272762   2.841   5.629   0.574  0.2644  0.3474 -0.3560
17116TIP3    H172763   2.884   5.571   0.511 -0.5882 -1.2893  0.5480
17116TIP3    H272764   2.911   5.688   0.604  1.4359 -1.0132 -0.3520
17117TIP3   OH272765   6.502   0.553  12.531 -0.4156  0.3035  0.2770
17117TIP3    H172766   6.478   0.627  12.476 -0.9480 -0.1200 -0.0615
17117TIP3    H272767   6.423   0.532  12.580 -0.7112 -0.9851 -0.7131
17118TIP3   OH272768   3.682   3.463  13.673  0.0101 -0.2028  0.3931
17118TIP3    H172769   3.605   3.434  13.722  0.1553 -2.1139 -0.4854
17118TIP3    H272770   3.690   3.401  13.601 -0.1833  2.5246 -2.0736
17119TIP3   OH272771   5.267   0.526  15.089 -0.2525  0.0192 -0.5828
17119TIP3    H172772   5.191   0.565  15.047 -0.5316  0.4421  0.3017
17119TIP3    H272773   5.337   0.590  15.079 -0.5174  0.4412  0.2387
17120TIP3   OH272774   3.577   3.794   5.857  0.1941  0.3763 -0.2502
17120TIP3    H172775   3.620   3.766   5.938 -0.4996  0.4752  0.1581
17120TIP3    H272776   3.596   3.888   5.852 -1.1552  0.7073  0.6711
17121TIP3   OH272777   3.107   2.990  11.424  0.1342 -0.0838  0.0214
17121TIP3    H172778   3.034   3.046  11.454 -0.6711 -0.6391 -0.8844
17121TIP3    H272779   3.169   2.992  11.497 -1.3556 -0.6193  1.3440
17122TIP3   OH272780   5.358   6.113   0.937 -0.2770 -0.5934  0.0023
17122TIP3    H172781   5.320   6.029   0.964 -0.0774 -0.7805 -0.2917
17122TIP3    H272782   5.427   6.089   0.875 -2.2391 -0.0566 -2.4709
17123TIP3   OH272783   4.877   5.227   3.405  0.5432  0.0962 -0.6506
17123TIP3    H172784   4.817   5.302   3.417  0.5692  0.0642 -0.3318
17123TIP3    H272785   4.853   5.166   3.474  0.3394 -0.3106 -1.0802
17124TIP3   OH272786   4.195   6.564  16.309 -0.6158 -0.0020  0.9421
17124TIP3    H172787   4.211   6.626  16.380 -0.0951  0.6235  0.2902
17124TIP3    H272788   4.135   6.610  16.250 -1.0352 -0.5123  0.9743
17125TIP3   OH272789   3.098   2.269  12.566  0.3156 -0.1867 -0.1757
17125TIP3    H172790   3.091   2.326  12.489 -0.2850 -2.6287 -1.9763
17125TIP3    H272791   3.021   2.290  12.618  0.3121  0.9407 -0.6185
17126TIP3   OH272792   5.051   3.031  13.211 -0.1272 -0.6444  0.3431
17126TIP3    H172793   4.989   3.048  13.141  1.5052  0.6907 -0.7879
17126TIP3    H272794   5.009   2.963  13.264 -2.7609  0.5758 -0.1176
17127TIP3   OH272795   1.964   4.325   5.240  0.6940  0.1090  0.4136
17127TIP3    H172796   2.046   4.370   5.221  0.2095  1.3312  1.1919
17127TIP3    H272797   1.897   4.381   5.204  0.2301 -1.4206 -1.1884
17128TIP3   OH272798   0.248   3.205  14.477 -0.4119  0.3829 -0.1352
17128TIP3    H172799   0.265   3.136  14.414  0.4550 -1.1073  1.6914
17128TIP3    H272800   0.334   3.243  14.496 -0.6555  0.7878  0.1859
17129TIP3   OH272801   5.730   0.407  12.156 -0.6365 -0.0301  0.4360
17129TIP3    H172802   5.789   0.467  12.111 -0.8152 -0.8301 -0.8716
17129TIP3    H272803   5.655   0.460  12.180  0.8157  1.1430  2.6263
17130TIP3   OH272804   2.265   4.926   1.704  0.4825  0.4729 -0.0687
17130TIP3    H172805   2.232   4.989   1.640  1.5773  0.1451 -0.9772
17130TIP3    H272806   2.196   4.921   1.771 -0.3537  1.3564 -0.8494
17131TIP3   OH272807   5.981   0.218   0.686  0.2643 -0.0889 -0.6871
17131TIP3    H172808   6.031   0.264   0.754 -1.3590 -0.2584  0.6592
17131TIP3    H272809   5.996   0.270   0.607  1.3893  0.6873  0.0140
17132TIP3   OH272810   0.860   2.238  11.665  0.2538  0.2815 -0.1981
17132TIP3    H172811   0.925   2.302  11.693  1.0301 -0.9512  0.9152
17132TIP3    H272812   0.903   2.153  11.678 -1.6562 -0.5668  0.8176
17133TIP3   OH272813   5.063   0.021   1.516  0.5149 -0.1367 -0.6202
17133TIP3    H172814   5.037  -0.070   1.504 -1.9054  0.3869  0.2820
17133TIP3    H272815   5.074   0.030   1.611 -0.0703  0.7145 -0.6294
17134TIP3   OH272816   1.814   5.638  16.777  0.6428  0.2580  0.1597
17134TIP3    H172817   1.857   5.552  16.775 -0.8667 -0.4985 -1.8892
17134TIP3    H272818   1.858   5.689  16.709  1.1373  0.9072  0.9651
17135TIP3   OH272819   4.150   5.228  10.695  0.1786  0.0097  0.1951
17135TIP3    H172820   4.067   5.186  10.718  0.6319 -0.5810  0.7768
17135TIP3    H272821   4.216   5.176  10.740  0.9432 -0.0777 -1.0264
17136TIP3   OH272822   6.306   2.667   3.091 -0.0966 -0.3154  0.1191
17136TIP3    H172823   6.389   2.707   3.119 -0.8193  0.3907  1.3008
17136TIP3    H272824   6.269   2.630   3.171 -1.1095 -0.2846 -0.3318
17137TIP3   OH272825   5.611   2.698  16.880  0.1704 -0.1370 -0.4493
17137TIP3    H172826   5.527   2.742  16.869 -0.4418 -1.2717 -0.4443
17137TIP3    H272827   5.673   2.751  16.831 -0.4433  1.0217  0.0182
17138TIP3   OH272828   1.750   5.943  12.806 -0.2958 -0.3264 -0.7273
17138TIP3    H172829   1.726   5.872  12.747 -1.1403 -1.6509  1.1865
17138TIP3    H272830   1.666   5.983  12.831 -0.0395 -0.7101  0.7360
17139TIP3   OH272831   4.041   0.832  16.189 -0.4664 -0.2150 -0.3418
17139TIP3    H172832   4.006   0.807  16.275 -0.9778  0.4977 -0.3299
17139TIP3    H272833   4.110   0.768  16.171  0.0406 -0.0244  0.8658
17140TIP3   OH272834   2.616   3.509  12.731 -0.2246 -0.1635  0.0388
17140TIP3    H172835   2.574   3.453  12.796 -0.5963  1.7559  1.4957
17140TIP3    H272836   2.548   3.526  12.666 -0.8496  0.6219  0.9005
17141TIP3   OH272837   0.130   1.852   3.364 -0.5876  0.0028 -0.6322
17141TIP3    H172838   0.126   1.859   3.268 -1.3243  0.1255 -0.5937
17141TIP3    H272839   0.223   1.838   3.383 -0.4443 -0.0688 -1.3693
17142TIP3   OH272840   2.475   1.947  15.540  0.3812 -0.0750 -0.2247
17142TIP3    H172841   2.416   1.988  15.477 -0.3281 -0.9987 -0.1711
17142TIP3    H272842   2.543   1.906  15.485 -0.0751 -0.6305 -0.3800
17143TIP3   OH272843   4.601   1.266   6.750 -0.2331  0.3198 -0.3241
17143TIP3    H172844   4.642   1.187   6.717 -0.9166 -0.1858  0.0324
17143TIP3    H272845   4.621   1.333   6.685 -1.0203 -0.5195 -1.4457
17144TIP3   OH272846   5.434   0.767  16.447 -0.0017  0.0613  0.1677
17144TIP3    H172847   5.421   0.765  16.542  1.0634  1.2377  0.3559
17144TIP3    H272848   5.520   0.809  16.436  0.3243 -0.9628 -1.2750
17145TIP3   OH272849   4.277   0.217   3.491 -0.2057 -0.3235 -0.1641
17145TIP3    H172850   4.284   0.130   3.531 -2.8119 -0.3658  0.2941
17145TIP3    H272851   4.253   0.200   3.400  1.1349 -0.1189 -0.5591
17146TIP3   OH272852   2.404   1.362  15.053  0.1462 -0.0683  0.0116
17146TIP3    H172853   2.453   1.443  15.041 -0.1242  0.1968  0.6715
17146TIP3    H272854   2.461   1.308  15.108  0.5535 -0.5295 -0.8637
17147TIP3   OH272855   4.457   1.506  12.234 -0.1995 -0.2014  0.3880
17147TIP3    H172856   4.430   1.553  12.155 -1.5081 -1.8873 -0.1978
17147TIP3    H272857   4.386   1.445  12.251  0.8306 -0.9966  1.9427
17148TIP3   OH272858   2.617   3.052  11.421  0.3677 -0.3005 -0.2538
17148TIP3    H172859   2.560   3.120  11.384  1.6545  0.0955 -1.5648
17148TIP3    H272860   2.678   3.100  11.477 -0.2049 -0.6513  0.6695
17149TIP3   OH272861   6.050   5.932  16.741 -0.4923 -0.0959  0.0560
17149TIP3    H172862   6.088   5.949  16.655 -1.0861 -1.3822 -0.4706
17149TIP3    H272863   6.047   5.836  16.748  1.5456 -0.0741  2.3987
17150TIP3   OH272864   5.347   1.109  15.246  0.2165  0.0962 -0.4861
17150TIP3    H172865   5.402   1.181  15.279  0.2508  0.3591 -1.1134
17150TIP3    H272866   5.391   1.030  15.276  0.1923  0.3349  0.1917
17151TIP3   OH272867   4.338   6.430  11.554  0.8499 -0.4706  0.0757
17151TIP3    H172868   4.322   6.521  11.530 -1.5629 -1.2972 -1.6821
17151TIP3    H272869   4.432   6.425  11.570  0.6584  2.9025  2.8246
17152TIP3   OH272870   5.962   5.561  13.337 -0.1840 -0.0675  0.3369
17152TIP3    H172871   6.016   5.534  13.412 -2.3367  2.1681  2.7960
17152TIP3    H272872   6.025   5.601  13.276  1.8485 -3.3638  0.1540
17153TIP3   OH272873   1.812   5.198  12.090  0.0196 -0.0048 -0.2845
17153TIP3    H172874   1.845   5.129  12.149 -2.1260 -1.6322 -0.9070
17153TIP3    H272875   1.719   5.206  12.113  0.0657  2.1415 -0.7828
17154TIP3   OH272876   5.931   1.964  14.636 -0.2689 -0.4225  0.1637
17154TIP3    H172877   5.916   1.878  14.596 -0.3651  0.3957 -1.6320
17154TIP3    H272878   6.022   1.962  14.666 -0.4880 -1.3948  0.7742
17155TIP3   OH272879   3.444   0.349  13.651 -0.0892  0.1647  0.1649
17155TIP3    H172880   3.458   0.441  13.671  0.2284  0.4462 -1.2929
17155TIP3    H272881   3.529   0.307  13.670 -0.0966  0.2510  0.3868
17156TIP3   OH272882   1.735   2.970  16.378  0.3051 -0.4394  0.0233
17156TIP3    H172883   1.781   3.051  16.358 -0.8418 -0.3048 -2.1666
17156TIP3    H272884   1.792   2.900  16.344 -1.3079 -0.2432 -3.3213
17157TIP3   OH272885   3.753   2.398  13.189 -0.2015 -0.3379  0.2348
17157TIP3    H172886   3.818   2.425  13.254 -0.9050 -0.0729  0.8342
17157TIP3    H272887   3.688   2.349  13.239 -2.2998  2.3707  0.2682
17158TIP3   OH272888   0.283   2.355  15.696  0.0426 -0.0652  0.4722
17158TIP3    H172889   0.283   2.422  15.627  1.7570 -0.1286  0.3992
17158TIP3    H272890   0.197   2.314  15.688  0.3397 -0.3171 -1.8729
17159TIP3   OH272891   2.546   2.103   5.224  0.0841 -0.0037  0.4809
17159TIP3    H172892   2.512   2.137   5.307  1.5897  0.4875  0.8986
17159TIP3    H272893   2.636   2.078   5.243 -0.6965 -3.4133 -0.0540
17160TIP3   OH272894   2.891   1.112  14.555  0.3389  0.0338  0.0208
17160TIP3    H172895   2.945   1.034  14.565 -1.8398 -1.3596  1.1532
17160TIP3    H272896   2.803   1.085  14.580 -0.5616  2.7320 -0.0021
17161TIP3   OH272897   2.080   1.632   2.717 -0.0418 -0.5006  0.0372
17161TIP3    H172898   2.120   1.604   2.635  0.3942 -0.0973  0.1098
17161TIP3    H272899   2.102   1.725   2.724  0.9011 -0.7952  1.1654
17162TIP3   OH272900   3.103   6.396  10.769 -0.3812  0.0260  0.0587
17162TIP3    H172901   3.137   6.325  10.714 -0.2478 -0.4533  0.7561
17162TIP3    H272902   3.009   6.399  10.748 -0.2319  0.2115 -0.5975
17163TIP3   OH272903   2.863   3.732   5.315 -0.3457 -0.1941  0.1017
17163TIP3    H172904   2.930   3.755   5.379 -0.4625 -0.2669  0.2504
17163TIP3    H272905   2.912   3.713   5.234 -0.2237  0.1879  0.0882
17164TIP3   OH272906   6.476   0.319   0.008 -0.6990  0.6146  0.0176
17164TIP3    H172907   6.462   0.281  -0.079 -1.2413  0.4957  0.1548
17164TIP3    H272908   6.400   0.292   0.058  1.0127 -1.8256  1.4242
17165TIP3   OH272909   2.524   2.962   5.344  0.2410  0.5358 -0.2435
17165TIP3    H172910   2.611   2.984   5.377  0.5417 -0.7297 -0.1501
17165TIP3    H272911   2.506   3.028   5.277  1.4715  0.5322 -0.5860
17166TIP3   OH272912   1.465   0.670   1.184  0.3430  0.6429 -0.1182
17166TIP3    H172913   1.486   0.647   1.274 -1.7298  4.8052  1.5299
17166TIP3    H272914   1.387   0.618   1.164  0.0775  0.6476  0.9022
17167TIP3   OH272915   4.253   1.686  14.253 -0.3968 -0.0710 -0.0099
17167TIP3    H172916   4.300   1.669  14.334 -0.4997  0.6552  0.2116
17167TIP3    H272917   4.295   1.764  14.217  0.6501 -1.2688 -1.4526
17168TIP3   OH272918   3.122   0.858   4.470 -0.1850 -0.1248  0.6905
17168TIP3    H172919   3.087   0.854   4.381 -0.5381  2.2825  0.6738
17168TIP3    H272920   3.045   0.873   4.525  0.2762  0.6417  1.1444
17169TIP3   OH272921   0.647   6.462   1.154  0.9685  0.0400  0.0007
17169TIP3    H172922   0.571   6.484   1.101  0.3585 -1.0828  0.3740
17169TIP3    H272923   0.713   6.432   1.091  1.1038  0.9915 -0.3193
17170TIP3   OH272924   0.997   6.335   4.912  0.0759 -0.2332  0.3553
17170TIP3    H172925   1.046   6.406   4.954  1.5421 -0.3986 -1.0470
17170TIP3    H272926   0.907   6.365   4.912  0.0478 -0.1336  3.4469
17171TIP3   OH272927   4.490   5.832   3.692  0.7415  0.0376 -0.1410
17171TIP3    H172928   4.567   5.887   3.686 -0.0786  1.2636  0.4557
17171TIP3    H272929   4.424   5.876   3.639 -0.4717  0.6042  1.7838
17172TIP3   OH272930   4.612   5.000  12.866  0.7450  0.3085  0.0024
17172TIP3    H172931   4.578   5.032  12.950  1.1863 -0.2066  0.3810
17172TIP3    H272932   4.705   5.022  12.868  1.1620 -1.4436  0.4923
17173TIP3   OH272933   2.581   6.374  11.399  0.2813 -1.1504  0.0991
17173TIP3    H172934   2.525   6.451  11.393  1.6271  0.0130  1.9489
17173TIP3    H272935   2.657   6.396  11.344  0.1424 -1.6339 -0.2887
17174TIP3   OH272936   2.120   0.657  16.199  0.4017 -0.3011  0.4399
17174TIP3    H172937   2.063   0.698  16.133  0.4002 -2.1829 -0.7601
17174TIP3    H272938   2.062   0.644  16.274  0.0708  0.6830  0.3708
17175TIP3   OH272939   2.785   6.324  15.965  0.1319 -0.0081 -0.3878
17175TIP3    H172940   2.748   6.409  15.940 -0.8593 -0.7313 -1.4098
17175TIP3    H272941   2.746   6.305  16.051 -0.3149  0.1626 -0.5510
17176TIP3   OH272942   1.132   0.620  15.847 -0.4137  0.5222  0.2613
17176TIP3    H172943   1.072   0.644  15.918 -0.6375 -1.2363  0.6738
17176TIP3    H272944   1.129   0.525  15.844  0.8654  0.5132 -1.0268
17177TIP3   OH272945   0.752   0.892   4.851  0.8073 -0.3625  0.6254
17177TIP3    H172946   0.709   0.944   4.784  0.0133 -2.5142 -0.5647
17177TIP3    H272947   0.686   0.879   4.919  0.0078 -2.3483 -0.4862
17178TIP3   OH272948   0.604   6.497   5.216  0.2439 -0.1811  0.0133
17178TIP3    H172949   0.678   6.551   5.189  0.2047  0.4216  1.0775
17178TIP3    H272950   0.622   6.410   5.180  1.4037 -0.0043  0.1627
17179TIP3   OH272951   4.660   3.518   3.059  0.9849  0.0501 -0.1956
17179TIP3    H172952   4.630   3.510   2.969  1.2329  1.3389 -0.4015
17179TIP3    H272953   4.725   3.449   3.069  1.1461  0.0753 -1.0759
17180TIP3   OH272954   1.455   1.548   0.954  0.0796  0.1405 -0.1061
17180TIP3    H172955   1.467   1.475   0.893 -0.2459  1.2985 -1.5763
17180TIP3    H272956   1.365   1.578   0.939 -0.0120  0.4439  0.9585
17181TIP3   OH272957   0.441   3.444  15.194  0.0977 -0.2332  0.5255
17181TIP3    H172958   0.508   3.463  15.128 -1.3782  1.1574 -0.6003
17181TIP3    H272959   0.426   3.350  15.185  1.0805 -0.3582  0.0155
17182TIP3   OH272960   4.368   4.865  12.432 -0.0969 -0.0919  0.0250
17182TIP3    H172961   4.307   4.903  12.368 -2.0554 -2.7643  0.1927
17182TIP3    H272962   4.337   4.775  12.444  3.0324 -1.0727  1.2779
17183TIP3   OH272963   6.438   1.344  13.149  0.0532 -0.2102 -0.1507
17183TIP3    H172964   6.371   1.405  13.117  3.5170  3.4872 -0.7916
17183TIP3    H272965   6.457   1.288  13.073 -0.5453  0.3250 -0.7061
17184TIP3   OH272966   1.150   0.352  11.516  0.1468 -0.6488  0.1755
17184TIP3    H172967   1.208   0.380  11.445  0.1169 -0.6164  0.1642
17184TIP3    H272968   1.088   0.293  11.475 -0.5671  0.2583 -0.0538
17185TIP3   OH272969   2.302   3.157  13.096 -0.1821 -0.0824  0.0273
17185TIP3    H172970   2.295   3.168  13.190 -0.2701  1.1275 -0.1059
17185TIP3    H272971   2.249   3.228  13.059  2.2083  1.2969 -0.9175
17186TIP3   OH272972   1.457   2.438   5.651 -0.7907  0.0438 -0.1886
17186TIP3    H172973   1.498   2.358   5.685  1.6259  1.4425  0.3127
17186TIP3    H272974   1.401   2.407   5.580 -3.0573 -2.5069  2.5852
17187TIP3   OH272975   5.972   3.208  13.475 -0.0279 -0.3632  0.1075
17187TIP3    H172976   6.019   3.125  13.484  2.5832  1.2167  1.5791
17187TIP3    H272977   5.930   3.202  13.390  2.7788 -1.9051 -1.2425
17188TIP3   OH272978   6.038   1.666  13.636  0.2307  0.1770  0.3113
17188TIP3    H172979   6.016   1.596  13.698 -1.9307  1.6770  1.3107
17188TIP3    H272980   6.000   1.638  13.553 -0.8849  0.3058  0.7806
17189TIP3   OH272981   5.412   1.797   1.858 -0.2180 -0.2173 -0.5401
17189TIP3    H172982   5.344   1.774   1.921 -0.6699  2.6107  0.0571
17189TIP3    H272983   5.494   1.783   1.905 -0.3997 -2.3489 -0.8179
17190TIP3   OH272984   6.337   5.235  14.463  0.5201  0.3271 -0.3973
17190TIP3    H172985   6.300   5.281  14.388  0.8365  0.3902 -0.5127
17190TIP3    H272986   6.417   5.196  14.431  0.3860 -0.0894 -0.2286
17191TIP3   OH272987   5.951   3.960   4.104 -0.1041  0.0886  0.4732
17191TIP3    H172988   5.868   3.921   4.078 -0.0213 -1.0685  1.8623
17191TIP3    H272989   5.932   4.008   4.184  1.1542 -2.7743  2.5622
17192TIP3   OH272990   5.940   4.148  16.804 -0.0669 -0.6136  0.7833
17192TIP3    H172991   5.913   4.157  16.895 -0.8650 -1.1978  0.6003
17192TIP3    H272992   5.983   4.231  16.784 -2.0247  0.4760  0.9599
17193TIP3   OH272993   6.277   6.629   6.385  0.4344  0.0636  0.0924
17193TIP3    H172994   6.212   6.699   6.397  0.5793 -0.0271  1.4493
17193TIP3    H272995   6.357   6.675   6.359  0.5591  0.4182  1.0936
17194TIP3   OH272996   5.385   3.267  14.834  0.1991 -0.3922  0.2986
17194TIP3    H172997   5.472   3.239  14.863  0.7323  0.9037  0.0020
17194TIP3    H272998   5.389   3.363  14.836 -1.8069 -0.3054  2.0104
17195TIP3   OH272999   6.614   1.478  15.128 -0.4341 -0.0995 -0.5278
17195TIP3    H173000   6.611   1.456  15.221  0.1645 -0.3915 -0.5729
17195TIP3    H273001   6.688   1.427  15.094 -0.3849  0.3358 -1.0756
17196TIP3   OH273002   0.368   2.173   3.326  0.0952  0.4590 -0.3001
17196TIP3    H173003   0.393   2.081   3.341  1.1021  0.5873 -1.0842
17196TIP3    H273004   0.307   2.193   3.396  1.4121 -0.2200  1.0713
17197TIP3   OH273005   6.210   2.170   5.406 -0.2923  0.5993  0.1698
17197TIP3    H173006   6.186   2.261   5.390 -0.6966  0.5950  0.7365
17197TIP3    H273007   6.291   2.157   5.357 -0.2099  1.2760  0.1321
17198TIP3   OH273008   4.424   2.715   2.933  0.1118 -0.3762  0.0664
17198TIP3    H173009   4.372   2.690   3.010  2.0665 -2.3603  0.7766
17198TIP3    H273010   4.368   2.694   2.858 -1.3266  0.4402  0.8739
17199TIP3   OH273011   1.500   2.518   2.121 -0.1688 -0.4321 -0.5664
17199TIP3    H173012   1.409   2.513   2.150 -0.1822 -1.3087 -0.7439
17199TIP3    H273013   1.551   2.503   2.200 -0.1640  0.8343 -0.3203
17200TIP3   OH273014   4.563   5.504   2.225  0.2811 -0.6637 -0.1720
17200TIP3    H173015   4.514   5.552   2.158  2.6644  1.3062 -0.5979
17200TIP3    H273016   4.646   5.481   2.182  1.0128 -1.1498  1.4590
17201TIP3   OH273017   5.813   2.487  15.084 -0.3086  0.3069 -0.5943
17201TIP3    H173018   5.884   2.462  15.143 -0.8399 -1.1399 -0.5424
17201TIP3    H273019   5.761   2.408  15.075 -0.8207  0.8106 -2.1894
17202TIP3   OH273020   0.777   1.044   2.485 -0.0525  0.0155  0.0582
17202TIP3    H173021   0.744   1.121   2.440  0.2958  1.3515  2.0472
17202TIP3    H273022   0.699   0.991   2.503 -0.2172 -0.4042 -1.8538
17203TIP3   OH273023   0.678   6.435  16.860  0.0475  0.8772  0.2682
17203TIP3    H173024   0.685   6.447  16.766 -0.2899  1.2643  0.2891
17203TIP3    H273025   0.594   6.474  16.883 -0.1061  0.3221  0.6504
17204TIP3   OH273026   0.178   4.165  16.426  0.1707 -0.1688 -0.2507
17204TIP3    H173027   0.100   4.212  16.455  2.8757  3.2230  1.8937
17204TIP3    H273028   0.200   4.204  16.341  0.3405 -0.0979 -0.1744
17205TIP3   OH273029   5.334   6.167   4.826  0.1863 -0.2639  0.2778
17205TIP3    H173030   5.300   6.196   4.741  2.1106  2.4875  0.3890
17205TIP3    H273031   5.293   6.226   4.889  2.4743  0.8481  0.7503
17206TIP3   OH273032   5.738   4.725  14.498  0.0355 -0.0988 -0.3771
17206TIP3    H173033   5.772   4.776  14.425  1.4624  0.5772  0.7063
17206TIP3    H273034   5.652   4.761  14.516 -0.7277 -0.9203 -2.3315
17207TIP3   OH273035   3.361   2.551  12.469  0.0217  0.1062 -0.8442
17207TIP3    H173036   3.307   2.585  12.540 -1.0506  1.6178 -2.3436
17207TIP3    H273037   3.451   2.565  12.497 -0.3209 -2.2689  1.6161
17208TIP3   OH273038   0.496   3.128  11.329  0.4007  0.3222  0.3547
17208TIP3    H173039   0.523   3.168  11.246  0.6977 -0.0081  0.2900
17208TIP3    H273040   0.447   3.197  11.373  0.0767  0.4367 -0.1772
17209TIP3   OH273041   6.017   1.583   4.409 -0.1462  0.5351  0.0821
17209TIP3    H173042   6.110   1.587   4.387 -0.7867 -0.0237 -2.9682
17209TIP3    H273043   5.987   1.674   4.406 -0.0789  0.5330 -0.8145
17210TIP3   OH273044   1.398   1.280   2.364  0.4369  0.3320  0.1093
17210TIP3    H173045   1.337   1.340   2.321 -2.5383 -2.1625  0.6913
17210TIP3    H273046   1.378   1.288   2.457  0.2815 -1.2250  0.2254
17211TIP3   OH273047   4.076   0.994  16.890  0.2839  0.0617  0.2888
17211TIP3    H173048   3.995   0.944  16.875  0.5040 -0.1676 -0.1400
17211TIP3    H273049   4.095   0.980  16.983 -0.0660 -0.0397  0.3491
17212TIP3   OH273050   3.829   4.689  10.629  0.1802  0.4503 -0.1458
17212TIP3    H173051   3.902   4.631  10.648 -0.8132 -0.8458 -0.2176
17212TIP3    H273052   3.868   4.761  10.580  1.1014 -1.2387 -1.9811
17213TIP3   OH273053   0.468   6.682  11.143 -0.4743 -0.6270  0.5247
17213TIP3    H173054   0.430   6.595  11.153 -0.4092 -0.8499 -0.9680
17213TIP3    H273055   0.498   6.684  11.052 -0.4262  0.9362  0.5636
17214TIP3   OH273056   0.513   1.844  16.049 -0.1288  0.5023 -0.4549
17214TIP3    H173057   0.486   1.825  16.139  0.9050  0.8402 -0.0652
17214TIP3    H273058   0.563   1.766  16.023 -1.7745 -0.2944 -1.3113
17215TIP3   OH273059   3.827   6.736   2.182 -0.6529  0.1761  0.2400
17215TIP3    H173060   3.905   6.791   2.183 -0.3038 -0.3076 -0.0032
17215TIP3    H273061   3.853   6.657   2.229 -1.3829  0.5248  1.2446
17216TIP3   OH273062   1.116   0.986   3.155 -0.3461  0.0857  0.0230
17216TIP3    H173063   1.207   0.997   3.127 -0.5998  0.4067 -0.6948
17216TIP3    H273064   1.121   0.938   3.238  0.5088  0.6809  0.3218
17217TIP3   OH273065   0.978   6.193   6.054  0.1680 -0.1021  0.1585
17217TIP3    H173066   1.053   6.151   6.012  0.2792 -0.1300  0.3822
17217TIP3    H273067   0.988   6.172   6.147 -0.1631 -0.1766  0.1784
17218TIP3   OH273068   1.579   3.769   0.241 -0.1386  0.0666  0.1188
17218TIP3    H173069   1.602   3.696   0.183 -0.0702  0.1612  0.0288
17218TIP3    H273070   1.491   3.795   0.213 -1.0853 -1.4147  1.5695
17219TIP3   OH273071   5.245   0.039   3.255  0.5290 -0.1218  1.2083
17219TIP3    H173072   5.258  -0.047   3.295  1.0596  0.8934  3.2605
17219TIP3    H273073   5.293   0.100   3.311  0.5078  1.4765 -0.4479
17220TIP3   OH273074   6.041   0.141  12.529  0.2953  0.1287 -0.3570
17220TIP3    H173075   6.014   0.167  12.441  2.0121  2.0101 -0.3701
17220TIP3    H273076   6.123   0.189  12.544 -1.3073  1.9633  3.2816
17221TIP3   OH273077   4.398   1.231  15.483  0.3911  0.3088 -0.6032
17221TIP3    H173078   4.428   1.226  15.574  2.1283  0.1623 -1.1662
17221TIP3    H273079   4.372   1.141  15.462  0.8553  0.1535 -0.5276
17222TIP3   OH273080   0.284   5.316  11.780 -0.0014 -0.4263 -0.5183
17222TIP3    H173081   0.247   5.320  11.869 -1.7931  2.2403 -1.3099
17222TIP3    H273082   0.278   5.224  11.756 -1.8888 -0.7870  1.1816
17223TIP3   OH273083   4.103   5.187  17.107  0.1264 -0.6690  0.1755
17223TIP3    H173084   4.054   5.180  17.189  0.9486  1.2879  0.8469
17223TIP3    H273085   4.127   5.279  17.100  1.4534 -1.1032 -1.4638
17224TIP3   OH273086   6.537   6.638   0.824 -0.1612 -0.4445  0.1038
17224TIP3    H173087   6.476   6.612   0.893 -0.1766 -0.3378  0.1309
17224TIP3    H273088   6.573   6.556   0.791 -1.3809 -0.5897 -0.8830
17225TIP3   OH273089   3.906   2.228   3.873  0.4186  0.5751 -0.0299
17225TIP3    H173090   3.915   2.323   3.866  0.2304  0.5266 -0.9572
17225TIP3    H273091   3.995   2.196   3.886  0.2954  1.0138  2.0472
17226TIP3   OH273092   6.556   5.400   5.425 -0.2457  0.0596  0.0140
17226TIP3    H173093   6.559   5.496   5.427  0.5106  0.0079  2.2532
17226TIP3    H273094   6.464   5.379   5.411 -0.4025  1.1137 -0.5743
17227TIP3   OH273095   0.463   3.897  12.271 -0.1617  0.4858  0.5254
17227TIP3    H173096   0.433   3.857  12.352  0.1762  0.2803  0.5525
17227TIP3    H273097   0.546   3.938  12.294 -0.0560  0.4126  0.2786
17228TIP3   OH273098   4.435   4.247   4.813 -0.1878 -0.3332 -0.2695
17228TIP3    H173099   4.496   4.282   4.748  0.3905  0.3785  0.6490
17228TIP3    H273100   4.352   4.290   4.794  0.3230  0.9458  0.3446
17229TIP3   OH273101   5.670   3.170   2.614 -0.5092  0.0559 -0.1886
17229TIP3    H173102   5.692   3.256   2.648 -2.3213  0.1848  0.7654
17229TIP3    H273103   5.604   3.136   2.676  1.5054 -2.7874  0.5302
17230TIP3   OH273104   1.360   4.042   5.735 -0.1399 -0.1868  0.3261
17230TIP3    H173105   1.399   3.985   5.669 -2.0230 -0.3360 -0.6891
17230TIP3    H273106   1.366   4.130   5.698  1.2186  0.0802  1.1454
17231TIP3   OH273107   1.006   1.460   4.883 -0.3286  0.1945  0.4474
17231TIP3    H173108   0.930   1.408   4.909  1.1331 -1.4201  1.6931
17231TIP3    H273109   1.065   1.455   4.959  1.2880  0.8591 -0.7326
17232TIP3   OH273110   2.845   1.518   1.000  0.1730  0.7695 -0.2696
17232TIP3    H173111   2.913   1.452   1.010 -0.0291  0.6838  0.5690
17232TIP3    H273112   2.834   1.526   0.905  1.0918  0.5265 -0.4081
17233TIP3   OH273113   2.940   5.226   2.786  0.3211 -0.1571  0.2604
17233TIP3    H173114   2.970   5.316   2.797 -1.4442  0.3449  1.1651
17233TIP3    H273115   2.932   5.191   2.874  0.0875 -0.8895 -0.0417
17234TIP3   OH273116   1.359   4.552  12.048 -0.4247  0.2994 -0.3623
17234TIP3    H173117   1.266   4.576  12.045 -0.8454 -1.3796 -1.1399
17234TIP3    H273118   1.364   4.481  12.112  0.8207  2.3733  1.9315
17235TIP3   OH273119   2.622   0.443   1.688  0.0708  0.4092  0.7144
17235TIP3    H173120   2.647   0.533   1.672 -0.2399  0.4000  0.1592
17235TIP3    H273121   2.650   0.395   1.610 -1.7164  0.4147  0.0414
17236TIP3   OH273122   5.436   0.961   0.331  0.7388 -0.0842  0.0328
17236TIP3    H173123   5.458   0.955   0.424  0.2945 -1.4281  0.0619
17236TIP3    H273124   5.374   1.033   0.326 -0.5753 -1.1094  1.0474
17237TIP3   OH273125   5.681   1.434  10.798 -0.7973 -0.0265 -0.8087
17237TIP3    H173126   5.645   1.413  10.712 -1.8882 -1.5741  0.0093
17237TIP3    H273127   5.666   1.528  10.808 -0.2197  0.2615 -2.4881
17238TIP3   OH273128   5.847   4.319   4.649 -0.1462 -0.4781 -0.1916
17238TIP3    H173129   5.938   4.349   4.647 -0.7809  1.4670 -1.4949
17238TIP3    H273130   5.799   4.391   4.689 -1.1686 -1.3641  0.1951
17239TIP3   OH273131   2.671   2.873   4.408 -0.3432 -0.0854 -0.4067
17239TIP3    H173132   2.716   2.951   4.376  1.1683 -0.5641  0.5231
17239TIP3    H273133   2.578   2.893   4.395 -0.0690  2.4743  1.1868
17240TIP3   OH273134   1.113   0.628  16.647  0.0065  0.1357  0.2714
17240TIP3    H173135   1.144   0.551  16.599 -0.9788 -0.5030  0.6526
17240TIP3    H273136   1.102   0.695  16.580 -3.5130 -1.4008 -0.7850
17241TIP3   OH273137   5.447   2.281  15.113 -0.4425 -0.1586  0.3417
17241TIP3    H173138   5.542   2.268  15.106 -0.5079  0.7304 -2.8918
17241TIP3    H273139   5.438   2.356  15.172  0.9305  0.5425 -0.3062
17242TIP3   OH273140   0.072   5.787   2.596  0.4043  0.1522 -0.5763
17242TIP3    H173141   0.020   5.734   2.535 -0.2336  0.5044 -0.3479
17242TIP3    H273142   0.121   5.847   2.541 -0.3331  0.6123 -0.7331
17243TIP3   OH273143   5.751   3.681   0.073  0.1367  0.7286  0.1969
17243TIP3    H173144   5.709   3.734   0.141 -0.2013  1.0916 -0.3018
17243TIP3    H273145   5.747   3.592   0.107 -0.7221  0.8080  0.3068
17244TIP3   OH273146   5.067   6.341   2.189  0.2393  0.5305 -0.0990
17244TIP3    H173147   5.029   6.346   2.277  0.5099  0.8806  0.0000
17244TIP3    H273148   5.035   6.420   2.145 -0.2333  0.1455 -0.4517
17245TIP3   OH273149   1.968   3.965   5.568  0.1566  0.2295  0.0436
17245TIP3    H173150   2.027   3.926   5.503 -0.5657 -1.1153  0.1912
17245TIP3    H273151   2.021   3.971   5.648  0.3215 -0.2673 -0.0309
17246TIP3   OH273152   2.575   5.194   3.441  0.2392 -0.3764  0.0184
17246TIP3    H173153   2.641   5.216   3.506  0.9216 -1.4390 -0.3128
17246TIP3    H273154   2.618   5.132   3.382 -1.2976 -1.7122  0.2734
17247TIP3   OH273155   2.160   1.877   5.566  0.2860  0.4397  0.0465
17247TIP3    H173156   2.213   1.933   5.622 -0.0670  1.5500 -0.6990
17247TIP3    H273157   2.213   1.863   5.487  0.5493 -0.6414  0.4047
17248TIP3   OH273158   6.262   5.745  15.145  0.2825 -0.4340  0.0568
17248TIP3    H173159   6.206   5.804  15.197  0.4976 -0.5867  0.4553
17248TIP3    H273160   6.209   5.725  15.068  0.5076  0.9128 -0.4629
17249TIP3   OH273161   4.299   4.817   0.004  0.2824 -0.3565 -0.1245
17249TIP3    H173162   4.208   4.795   0.023 -0.2652 -1.4612 -3.6193
17249TIP3    H273163   4.298   4.912  -0.009 -0.5962 -0.4987 -1.1665
17250TIP3   OH273164   0.043   2.414   5.772 -0.0612 -0.6131 -0.1413
17250TIP3    H173165   0.089   2.495   5.792 -1.9070  0.1120  1.3032
17250TIP3    H273166   0.112   2.347   5.770  1.4345  0.9231 -1.0745
17251TIP3   OH273167   0.592   0.625   2.856  0.0003  0.4566 -0.3386
17251TIP3    H173168   0.602   0.611   2.761  2.2856  0.4643 -0.1170
17251TIP3    H273169   0.520   0.567   2.881  0.5873 -0.9231 -1.7665
17252TIP3   OH273170   6.451   6.712   4.228 -0.2637 -0.6627 -0.1764
17252TIP3    H173171   6.540   6.682   4.214 -1.0292 -2.2009 -1.9464
17252TIP3    H273172   6.408   6.640   4.275 -0.8913 -0.4099 -0.3507
17253TIP3   OH273173   3.146   2.493  12.954 -0.2720 -0.3337 -0.7133
17253TIP3    H173174   3.056   2.462  12.963 -0.7321  1.2986  0.5146
17253TIP3    H273175   3.183   2.485  13.042 -0.5945  3.0962 -0.2163
17254TIP3   OH273176   1.996   2.620  12.492  0.4644  0.3665 -0.0275
17254TIP3    H173177   2.079   2.645  12.532  0.2461  0.5976  0.2852
17254TIP3    H273178   1.938   2.695  12.506  0.2264  0.2365 -0.3068
17255TIP3   OH273179   6.327   4.626  13.606  0.3618 -0.3950  0.4946
17255TIP3    H173180   6.332   4.627  13.510  0.0175  0.8112  0.4848
17255TIP3    H273181   6.401   4.680  13.634  0.0060 -0.1122  0.8889
17256TIP3   OH273182   6.092   3.503  14.743 -0.1710  0.3735  0.2410
17256TIP3    H173183   6.166   3.551  14.779  0.4871  0.0092 -0.6059
17256TIP3    H273184   6.040   3.478  14.819  1.6483 -1.1501  1.0141
17257TIP3   OH273185   3.489   2.751  15.935 -0.3667  0.6868 -0.4038
17257TIP3    H173186   3.396   2.741  15.956  0.2380 -1.2216  1.5929
17257TIP3    H273187   3.530   2.774  16.019  1.3855 -1.5240 -0.6238
17258TIP3   OH273188   6.088   6.299   2.871  0.1527  1.1394  0.3486
17258TIP3    H173189   6.010   6.326   2.823  0.1927 -0.4434 -0.6457
17258TIP3    H273190   6.064   6.217   2.913  1.3895  0.3883 -0.3467
17259TIP3   OH273191   2.522   4.124   2.403 -0.4616  0.1766  0.1036
17259TIP3    H173192   2.455   4.083   2.457 -1.0518  1.5046  0.4190
17259TIP3    H273193   2.587   4.157   2.466 -0.4014  0.4226 -0.0842
17260TIP3   OH273194   6.036   6.447  13.277  0.3603  0.3910  0.2052
17260TIP3    H173195   5.943   6.432  13.265  0.1668  1.4158  0.4043
17260TIP3    H273196   6.077   6.363  13.255 -0.7017 -0.4455  1.3615
17261TIP3   OH273197   5.538   6.249  15.892 -0.6623 -0.1544 -0.4199
17261TIP3    H173198   5.562   6.222  15.804 -0.9607  2.0260 -1.2035
17261TIP3    H273199   5.591   6.328  15.908 -1.5792  0.2292  0.8224
17262TIP3   OH273200   3.396   5.927  16.327  0.8278  0.4381 -0.5656
17262TIP3    H173201   3.324   5.897  16.271  1.6352 -1.6436 -0.5026
17262TIP3    H273202   3.474   5.918  16.273  1.3381  0.5448  0.1476
17263TIP3   OH273203   5.182   2.353  16.505  0.1568 -0.1661  0.4817
17263TIP3    H173204   5.175   2.391  16.593 -0.3862 -0.3253  0.5118
17263TIP3    H273205   5.231   2.272  16.518 -0.4375 -0.4873  0.7301
17264TIP3   OH273206   0.736   5.813  14.666 -0.0167  0.2220 -0.3112
17264TIP3    H173207   0.735   5.718  14.653  1.2408  0.0921  0.4628
17264TIP3    H273208   0.644   5.839  14.659 -0.3977 -1.0912 -0.2827
17265TIP3   OH273209   2.074   3.830   0.251 -0.6521  0.5753 -0.0782
17265TIP3    H173210   2.169   3.821   0.248 -0.8311 -1.2683 -0.6612
17265TIP3    H273211   2.051   3.881   0.173 -0.2838 -0.2762 -0.7395
17266TIP3   OH273212   4.298   2.663   3.225  0.3569  0.4660  0.2677
17266TIP3    H173213   4.341   2.679   3.308 -2.3300  0.5910  1.7059
17266TIP3    H273214   4.258   2.577   3.234 -0.0469  0.5191 -0.8499
17267TIP3   OH273215   3.477   5.932  12.105 -0.1355 -0.1183  0.7396
17267TIP3    H173216   3.569   5.940  12.079  0.3271  0.0659  2.3736
17267TIP3    H273217   3.431   5.908  12.024  1.2904  0.1391 -0.1644
17268TIP3   OH273218   2.982   3.093  12.318 -0.2189  0.2681 -0.5474
17268TIP3    H173219   3.073   3.107  12.345 -0.0915 -0.7574 -0.4280
17268TIP3    H273220   2.980   3.125  12.227  1.1425 -2.8311 -1.7449
17269TIP3   OH273221   5.156   4.926   2.571 -0.0793  0.1744 -0.2520
17269TIP3    H173222   5.112   5.008   2.592  0.1767  0.5659 -1.2089
17269TIP3    H273223   5.166   4.928   2.475  1.8651  0.0316 -0.0724
17270TIP3   OH273224   2.580   5.020  17.155  0.1103  0.4074  0.0902
17270TIP3    H173225   2.614   5.106  17.131  1.4133  0.3767  1.7631
17270TIP3    H273226   2.514   5.038  17.221  1.5398  0.0304  1.6427
17271TIP3   OH273227   0.011   4.328  17.190 -0.1155 -0.0137 -0.2926
17271TIP3    H173228   0.043   4.240  17.169 -0.8864  0.0013 -1.5528
17271TIP3    H273229   0.089   4.376  17.217  0.5301 -0.6866 -0.9467
17272TIP3   OH273230   3.325   2.071  12.394  0.4517  0.6597  0.4860
17272TIP3    H173231   3.238   2.112  12.397 -0.6169 -1.4676 -0.3180
17272TIP3    H273232   3.330   2.020  12.475  0.7047  0.3027  0.2458
17273TIP3   OH273233   0.043   5.288   2.726  0.4972 -0.0766 -0.2062
17273TIP3    H173234   0.085   5.271   2.642  0.4271 -0.6489 -0.1274
17273TIP3    H273235  -0.034   5.230   2.727 -0.7671  1.5609 -0.6980
17274TIP3   OH273236   1.868   3.384  17.164 -0.3376 -0.3885  0.2721
17274TIP3    H173237   1.781   3.404  17.129 -0.5376 -1.1740  0.3121
17274TIP3    H273238   1.895   3.305  17.118 -1.2478 -2.3296  2.9436
17275TIP3   OH273239   1.525   0.224   4.190 -0.5051  0.3802  0.1980
17275TIP3    H173240   1.517   0.133   4.219 -0.7972 -0.6062 -2.8233
17275TIP3    H273241   1.617   0.245   4.203  0.1195 -1.2137 -1.4117
17276TIP3   OH273242   0.594   3.987  14.549  0.2480 -0.1442 -0.6456
17276TIP3    H173243   0.560   4.000  14.460  0.7808  1.8974 -0.5735
17276TIP3    H273244   0.635   3.900  14.547  1.0331  0.2507 -2.6457
17277TIP3   OH273245   2.069   2.726   3.991  0.1797  0.1562 -0.1778
17277TIP3    H173246   2.031   2.699   3.907  0.7065  1.3735 -0.8191
17277TIP3    H273247   2.163   2.724   3.977  0.2643  0.5434  0.3302
17278TIP3   OH273248   0.336   3.998   1.346 -0.7719 -0.1923 -0.7931
17278TIP3    H173249   0.377   4.026   1.428  1.8612 -2.9916 -1.0565
17278TIP3    H273250   0.354   4.069   1.285  0.8703  0.1070 -0.0040
17279TIP3   OH273251   6.154   3.657  15.706 -0.0285  0.0232 -0.0926
17279TIP3    H173252   6.240   3.695  15.725  0.9528  0.1001 -4.1411
17279TIP3    H273253   6.093   3.707  15.760  2.3446  0.5019  2.2748
17280TIP3   OH273254   5.879   6.729  11.341 -0.2323  0.1619 -0.5039
17280TIP3    H173255   5.972   6.706  11.349  0.0114  1.1696 -0.2602
17280TIP3    H273256   5.872   6.772  11.256 -1.0459 -2.4059 -1.7911
17281TIP3   OH273257   0.262   0.123  12.663  0.2918  0.2419  0.7307
17281TIP3    H173258   0.212   0.178  12.603  1.9307 -0.0359 -0.9463
17281TIP3    H273259   0.334   0.089  12.610  1.1651 -0.9042  2.5858
17282TIP3   OH273260   2.747   4.673  12.111  0.6163 -0.5819  0.3749
17282TIP3    H173261   2.759   4.722  12.030 -3.0902 -0.9893 -0.5138
17282TIP3    H273262   2.747   4.740  12.179  1.1241  0.0431 -0.2256
17283TIP3   OH273263   1.433   0.333   0.463  0.4332  0.1278 -0.3770
17283TIP3    H173264   1.463   0.388   0.391 -0.1810  1.9224  0.7091
17283TIP3    H273265   1.337   0.330   0.452  0.4179 -0.3222 -0.1409
17284TIP3   OH273266   1.591   5.618  14.105 -0.3194  0.3390  0.2184
17284TIP3    H173267   1.563   5.612  14.014  0.8031  1.0942 -0.1868
17284TIP3    H273268   1.564   5.705  14.133 -0.6180  0.1270  0.5972
17285TIP3   OH273269   1.833   6.057  15.882  0.4186  0.2179  0.2102
17285TIP3    H173270   1.793   6.141  15.860  1.5338  0.9135  0.7863
17285TIP3    H273271   1.860   6.066  15.973 -0.5088 -1.1981  0.6339
17286TIP3   OH273272   2.438   1.131   0.807  0.0392  0.5061  0.2786
17286TIP3    H173273   2.357   1.175   0.781  0.2784  1.3126  0.9185
17286TIP3    H273274   2.471   1.181   0.881  0.6375 -0.3785  0.6221
17287TIP3   OH273275   4.964   5.384  14.750  0.2010  0.4044  0.0682
17287TIP3    H173276   5.001   5.472  14.761 -0.0886  0.5694 -0.2499
17287TIP3    H273277   5.005   5.332  14.818  1.1139  0.5533 -0.3598
17288TIP3   OH273278   1.729   4.594   3.765 -0.3435  0.0969  0.1427
17288TIP3    H173279   1.719   4.505   3.800 -0.0953 -0.2836 -0.7396
17288TIP3    H273280   1.642   4.633   3.774 -0.2376  0.0754  1.3578
17289TIP3   OH273281   2.136   1.738  10.858 -0.0440  0.1342 -0.7177
17289TIP3    H173282   2.105   1.822  10.892 -1.2051 -1.2652  1.8316
17289TIP3    H273283   2.079   1.720  10.784 -0.5046  1.0685 -0.5999
17290TIP3   OH273284   2.793   3.747   2.074 -0.6340  0.1255  0.2470
17290TIP3    H173285   2.698   3.741   2.067 -0.8278  1.3258  1.7722
17290TIP3    H273286   2.811   3.840   2.088  0.8258  0.0292 -0.8260
17291TIP3   OH273287   2.498   3.954   3.162 -0.2505  0.0160  0.0325
17291TIP3    H173288   2.456   3.909   3.235  0.7659 -1.7362 -0.4395
17291TIP3    H273289   2.436   3.942   3.089 -0.1368 -0.3153 -0.0084
17292TIP3   OH273290   2.483   1.588   1.073 -0.2044  0.2958  0.2829
17292TIP3    H173291   2.423   1.519   1.048 -1.7352  1.8909 -0.5766
17292TIP3    H273292   2.509   1.567   1.163  0.5985 -2.2115 -0.5001
17293TIP3   OH273293   3.971   2.537   5.669  0.0327  0.3119 -0.0951
17293TIP3    H173294   3.979   2.441   5.668 -1.9616  0.1091  0.9259
17293TIP3    H273295   4.033   2.565   5.736  1.2836 -0.1883 -1.0262
17294TIP3   OH273296   5.207   3.059   1.193 -0.1624  0.2204 -0.1167
17294TIP3    H173297   5.199   2.964   1.187 -0.7645  0.2895 -0.4234
17294TIP3    H273298   5.278   3.081   1.134 -0.4534  0.0240 -0.5466
17295TIP3   OH273299   0.488   4.700  14.424 -0.2269 -0.1690  0.4323
17295TIP3    H173300   0.490   4.606  14.440 -0.0702  0.0785  1.9234
17295TIP3    H273301   0.580   4.727  14.431 -0.2661  0.1007 -0.0447
17296TIP3   OH273302   4.310   1.498  14.046 -0.0802 -0.4054  0.8181
17296TIP3    H173303   4.289   1.560  14.116  2.5600  0.3851  0.9586
17296TIP3    H273304   4.392   1.457  14.074  1.7776  0.9416 -2.4266
17297TIP3   OH273305   4.130   0.438  14.096 -0.0588 -0.2279 -0.0559
17297TIP3    H173306   4.082   0.402  14.170 -2.4062 -2.1330 -2.4336
17297TIP3    H273307   4.065   0.486  14.046  0.8767 -1.2326 -2.3159
17298TIP3   OH273308   2.313   3.079  12.160 -0.3382  0.0181 -0.0801
17298TIP3    H173309   2.393   3.057  12.208  0.4341 -0.3668 -1.5280
17298TIP3    H273310   2.336   3.068  12.068 -1.5210  1.6499 -0.6044
17299TIP3   OH273311   6.475   6.763   2.884  0.2613 -0.2852  0.4566
17299TIP3    H173312   6.495   6.672   2.906 -0.5711 -0.6343 -0.1972
17299TIP3    H273313   6.394   6.783   2.932 -0.1807 -0.2564 -0.2932
17300TIP3   OH273314   4.144   0.473   5.206 -0.4358 -0.0163  0.1618
17300TIP3    H173315   4.233   0.442   5.225  0.1107  0.5291 -1.4468
17300TIP3    H273316   4.087   0.414   5.256  0.7488 -1.3744 -0.0605
17301TIP3   OH273317   3.058   6.342   4.379  0.1284  0.2004  0.3686
17301TIP3    H173318   3.004   6.361   4.302  0.7618 -0.9898 -0.3696
17301TIP3    H273319   2.995   6.317   4.447 -0.2024 -2.1284 -0.7659
17302TIP3   OH273320   0.168   0.753   0.645  0.4606 -0.3187 -0.2835
17302TIP3    H173321   0.133   0.665   0.659 -0.7937  0.2616  0.3295
17302TIP3    H273322   0.129   0.782   0.563 -1.5468  0.7940  0.9957
17303TIP3   OH273323   0.647   6.470   2.976  0.2529  0.4428 -0.3952
17303TIP3    H173324   0.639   6.431   2.889 -0.5705 -0.7425  0.2065
17303TIP3    H273325   0.732   6.515   2.974  1.5826 -2.0140 -0.8394
17304TIP3   OH273326   3.603   3.741  17.026  0.5108 -0.1562  0.5568
17304TIP3    H173327   3.666   3.751  17.098  0.2994  1.5518  0.5433
17304TIP3    H273328   3.651   3.769  16.948  0.1364 -0.0753  0.3520
17305TIP3   OH273329   4.438   3.779   0.209  0.1998  0.2139  0.5075
17305TIP3    H173330   4.353   3.821   0.210  0.8787  1.5889  0.9824
17305TIP3    H273331   4.444   3.739   0.122 -0.9922 -0.0496  0.5356
17306TIP3   OH273332   2.924   6.624  12.506  0.0631 -0.5160  0.1944
17306TIP3    H173333   2.967   6.706  12.533 -1.7808  0.0576  1.4911
17306TIP3    H273334   2.970   6.556  12.554 -0.0414  0.0240  1.0760
17307TIP3   OH273335   5.472   6.252   4.183  0.2422  0.2882 -0.1425
17307TIP3    H173336   5.441   6.184   4.242 -0.7408  0.1356 -0.8153
17307TIP3    H273337   5.448   6.221   4.096 -1.5610  2.1768 -0.3521
17308TIP3   OH273338   2.357   0.799  15.048 -0.6470 -0.0612  0.4096
17308TIP3    H173339   2.293   0.730  15.066  0.0497 -0.1575  2.6405
17308TIP3    H273340   2.439   0.766  15.084  0.2697  0.8423 -0.8122
17309TIP3   OH273341   0.225   0.264   6.507 -0.0967  0.0645  0.1628
17309TIP3    H173342   0.174   0.193   6.546 -1.6924  0.4821 -1.0752
17309TIP3    H273343   0.186   0.344   6.543  0.3149  0.3669 -0.0614
17310TIP3   OH273344   0.706   4.866  16.231 -0.0583 -0.7161 -0.0290
17310TIP3    H173345   0.786   4.901  16.192 -0.3473  1.7076  1.4419
17310TIP3    H273346   0.641   4.869  16.161  0.0204  1.4200 -0.0379
17311TIP3   OH273347   3.101   3.838   3.042 -0.2276  0.3247 -0.5118
17311TIP3    H173348   3.038   3.908   3.058 -0.9814 -0.1742 -1.2242
17311TIP3    H273349   3.114   3.797   3.128 -1.2127  0.1541 -0.4405
17312TIP3   OH273350   1.572   0.002   3.569  0.0395 -0.2173 -0.1245
17312TIP3    H173351   1.658   0.005   3.610  0.7199  0.5531 -1.5568
17312TIP3    H273352   1.567  -0.086   3.530 -0.2153 -0.6017  0.7673
17313TIP3   OH273353   4.818   6.620   2.923 -0.3091 -0.1195 -0.1550
17313TIP3    H173354   4.773   6.537   2.907  1.9008 -1.0803 -1.5642
17313TIP3    H273355   4.867   6.606   3.004  0.2269 -0.2725 -0.5019
17314TIP3   OH273356   1.195   5.067   5.239 -0.0884 -0.1257 -0.0875
17314TIP3    H173357   1.133   5.138   5.254  0.5378  0.8600 -1.9841
17314TIP3    H273358   1.224   5.079   5.149  0.5903 -2.3659 -0.1995
17315TIP3   OH273359   2.765   4.571   6.204  0.4466 -0.3307 -0.1503
17315TIP3    H173360   2.700   4.624   6.249  0.6120 -0.4744  0.2682
17315TIP3    H273361   2.830   4.551   6.272  0.9441 -0.1532 -0.5716
17316TIP3   OH273362   6.690   5.129   1.725  0.0925  0.2683  0.4658
17316TIP3    H173363   6.677   5.063   1.793 -1.6231 -0.2361 -0.3170
17316TIP3    H273364   6.655   5.209   1.762 -0.2265  0.1445  0.4325
17317TIP3   OH273365   5.096   4.469  15.053  0.3924 -0.3404  0.0117
17317TIP3    H173366   5.117   4.562  15.046 -2.3359  0.3991  0.9872
17317TIP3    H273367   5.158   4.434  15.116  0.3819  1.1884  0.8822
17318TIP3   OH273368   6.558   4.744  15.651  0.7794 -0.0328  0.3092
17318TIP3    H173369   6.551   4.681  15.722  2.1654  0.9055  1.3094
17318TIP3    H273370   6.605   4.697  15.582  0.2650 -0.6448  0.3723
17319TIP3   OH273371   5.683   6.740  15.942 -0.4077 -1.1379  0.1898
17319TIP3    H173372   5.777   6.736  15.928 -0.1051 -0.2301  1.7925
17319TIP3    H273373   5.655   6.648  15.942  0.4472 -1.4028 -0.4826
17320TIP3   OH273374   1.846   1.720   0.538  0.0971  0.4363 -0.5818
17320TIP3    H173375   1.755   1.692   0.542 -0.1448  1.2217 -0.3831
17320TIP3    H273376   1.892   1.665   0.601  0.0539 -1.0433 -1.8300
17321TIP3   OH273377   0.117   2.856  16.642 -0.3544  0.2973 -0.2005
17321TIP3    H173378   0.118   2.910  16.563  0.6797  0.7565  0.1112
17321TIP3    H273379   0.026   2.855  16.670 -0.2256  2.7088  0.3595
17322TIP3   OH273380   5.629   0.976   2.243  0.0521 -0.1761 -0.0377
17322TIP3    H173381   5.560   0.910   2.245  0.9367 -1.1417  4.5873
17322TIP3    H273382   5.583   1.060   2.243 -1.1833 -0.8088  2.1766
17323TIP3   OH273383   0.715   0.043  11.630 -0.1019  0.1731 -0.6221
17323TIP3    H173384   0.724   0.130  11.589  0.8537 -0.1039 -1.0207
17323TIP3    H273385   0.777  -0.012  11.582 -1.2829 -0.9333 -0.8995
17324TIP3   OH273386   1.072   6.631  16.148  0.0850 -0.6419 -0.1199
17324TIP3    H173387   1.113   6.689  16.211 -0.2512 -0.5010 -0.0302
17324TIP3    H273388   1.091   6.670  16.063 -0.1465 -0.3987 -0.0594
17325TIP3   OH273389   5.911   4.348  11.173  0.4512 -0.3079 -0.4906
17325TIP3    H173390   5.970   4.421  11.190 -1.5783  1.1977  0.2874
17325TIP3    H273391   5.892   4.311  11.259  2.3839 -2.5353 -0.9742
17326TIP3   OH273392   1.505   1.538  11.761 -0.0273  0.0045  1.0710
17326TIP3    H173393   1.462   1.453  11.768 -0.5240  0.3829  2.8762
17326TIP3    H273394   1.435   1.602  11.780  0.0451  0.8779 -1.4929
17327TIP3   OH273395   5.449   5.313  14.644 -0.4534 -0.1129 -0.3388
17327TIP3    H173396   5.379   5.286  14.583 -1.0076  1.2262 -0.3138
17327TIP3    H273397   5.403   5.360  14.713  0.5659  1.4475 -0.7128
17328TIP3   OH273398   3.782   4.304  12.330  0.3333  0.6918  0.1942
17328TIP3    H173399   3.729   4.350  12.265  0.0923 -1.4087 -1.1421
17328TIP3    H273400   3.855   4.267  12.280 -0.8329 -2.4996  0.7606
17329TIP3   OH273401   2.270   1.921   0.187  0.0186  0.0991 -0.1905
17329TIP3    H173402   2.296   1.828   0.187  0.1772  0.1408  0.3002
17329TIP3    H273403   2.249   1.939   0.278  1.7919  1.0565  0.0448
17330TIP3   OH273404   2.673   2.413  16.151 -0.3381  0.0141  0.3483
17330TIP3    H173405   2.649   2.400  16.059 -0.7701 -2.4732  0.7934
17330TIP3    H273406   2.758   2.370  16.159  0.7399  2.1209  0.6217
17331TIP3   OH273407   0.674   1.421  14.383  0.1943 -0.7632  0.7833
17331TIP3    H173408   0.733   1.346  14.390  2.0058  0.3057 -1.9798
17331TIP3    H273409   0.729   1.496  14.408 -1.0663 -0.1402  1.7071
17332TIP3   OH273410   5.823   5.977   6.544  0.5484  0.8792  0.0308
17332TIP3    H173411   5.747   5.985   6.486 -0.4438 -0.9432  1.0286
17332TIP3    H273412   5.865   6.063   6.541 -0.7004  1.4562 -1.7021
17333TIP3   OH273413   0.939   3.162  15.562 -0.2594  0.3321  0.1093
17333TIP3    H173414   0.896   3.239  15.600  0.1320  0.2604  0.6977
17333TIP3    H273415   0.885   3.141  15.486 -0.5614  0.9886  0.1321
17334TIP3   OH273416   0.883   4.542   5.817  0.0372  0.4612  0.1998
17334TIP3    H173417   0.929   4.623   5.794 -0.0624  0.3327 -0.4400
17334TIP3    H273418   0.810   4.572   5.871  0.3184  0.7486  0.4293
17335TIP3   OH273419   2.955   1.866  16.135  0.3033  0.0497 -0.2368
17335TIP3    H173420   2.933   1.832  16.048 -0.5995  0.6024 -0.2371
17335TIP3    H273421   2.988   1.790  16.183 -0.4777 -0.5585 -0.6464
17336TIP3   OH273422   0.346   2.075   2.150  0.0030  0.0360  0.3078
17336TIP3    H173423   0.273   2.135   2.164 -1.6430 -2.1439  1.5159
17336TIP3    H273424   0.361   2.036   2.236  3.2296  1.0893  0.2789
17337TIP3   OH273425   1.288   2.661  10.703  0.1999 -0.0834 -0.2665
17337TIP3    H173426   1.248   2.584  10.745 -1.3526  0.4964 -0.6705
17337TIP3    H273427   1.230   2.733  10.726  0.3509  0.5621 -1.8914
17338TIP3   OH273428   6.442   5.533   4.522  0.4552  0.2405  0.3172
17338TIP3    H173429   6.428   5.439   4.509 -1.4051  0.5245  0.1536
17338TIP3    H273430   6.527   5.550   4.480 -0.3385 -0.9125 -1.8536
17339TIP3   OH273431   5.313   1.147   5.366  0.2631  0.1406 -0.4312
17339TIP3    H173432   5.389   1.183   5.411 -0.7100 -0.7361  2.0416
17339TIP3    H273433   5.250   1.129   5.437 -2.2179  0.8041 -2.3851
17340TIP3   OH273434   0.019   4.283  14.030 -0.0101 -0.6446 -0.1546
17340TIP3    H173435   0.016   4.368  14.074 -0.9724 -1.2814  1.0383
17340TIP3    H273436   0.099   4.241  14.064 -0.4803 -0.9296  0.6016
17341TIP3   OH273437   4.263   5.844   1.051 -0.4737  0.4033 -0.7036
17341TIP3    H173438   4.245   5.836   0.957 -0.1281  0.0536 -0.7434
17341TIP3    H273439   4.250   5.936   1.071 -3.1646  0.0321 -0.5525
17342TIP3   OH273440   6.336   6.115  15.092  0.1718 -0.6349 -0.1275
17342TIP3    H173441   6.302   6.076  15.011  0.4380 -0.1315 -0.4849
17342TIP3    H273442   6.261   6.114  15.152  0.3340 -2.2751  0.0938
17343TIP3   OH273443   5.645   4.720   3.537  0.0302  0.1755 -0.1685
17343TIP3    H173444   5.710   4.767   3.590 -0.0704 -0.4779  0.5326
17343TIP3    H273445   5.648   4.764   3.452  1.4882  0.0828 -0.1825
17344TIP3   OH273446   6.212   2.302  11.421 -0.0824 -0.0922  0.7029
17344TIP3    H173447   6.256   2.231  11.469  0.1973 -1.7541 -1.9499
17344TIP3    H273448   6.278   2.371  11.416  0.1634 -0.2143  1.9672
17345TIP3   OH273449   6.766   4.200  15.032 -0.3797  0.1791  0.3633
17345TIP3    H173450   6.694   4.238  14.982 -0.0848 -0.7241 -0.7731
17345TIP3    H273451   6.724   4.143  15.096 -0.6806 -0.2492 -0.2172
17346TIP3   OH273452   5.405   5.008  16.860  0.1200  0.0864  0.8218
17346TIP3    H173453   5.480   4.967  16.816  0.8999  1.6403  0.6526
17346TIP3    H273454   5.328   4.968  16.820  0.8601 -1.0864  0.5629
17347TIP3   OH273455   2.966   4.920   6.337  0.0476 -0.1709  0.0438
17347TIP3    H173456   2.906   4.929   6.263  0.3851 -0.4035 -0.2642
17347TIP3    H273457   2.919   4.866   6.400 -0.6278  0.8451  0.4215
17348TIP3   OH273458   3.873   2.584  11.447  0.2224  0.5556  0.0432
17348TIP3    H173459   3.939   2.565  11.381 -0.9848  2.8362 -1.8995
17348TIP3    H273460   3.916   2.647  11.506 -0.0866  1.7906 -1.0317
17349TIP3   OH273461   3.672   4.480   0.566  0.0612  0.1701  0.4008
17349TIP3    H173462   3.665   4.537   0.489 -0.5501 -0.0301  0.3116
17349TIP3    H273463   3.767   4.468   0.578  0.2111  1.7999  0.8642
17350TIP3   OH273464   1.721   3.082  12.192  0.3379 -0.2472 -0.1604
17350TIP3    H173465   1.690   3.024  12.123  0.5799 -0.5082 -0.0517
17350TIP3    H273466   1.655   3.073  12.262  0.7642 -0.9567  0.1543
17351TIP3   OH273467   5.274   0.216   4.693 -0.2951 -0.1812 -0.1769
17351TIP3    H173468   5.297   0.206   4.786 -1.1187  0.2569  0.0741
17351TIP3    H273469   5.289   0.129   4.655  1.9143  0.1072 -0.0507
17352TIP3   OH273470   0.122   0.140   3.113  0.7730 -0.5171  0.2299
17352TIP3    H173471   0.085   0.214   3.064  1.7245  0.6540  1.2296
17352TIP3    H273472   0.074   0.064   3.081 -1.4104  0.7458  0.3549
17353TIP3   OH273473   4.019   5.459   5.897 -0.3423  0.3616 -0.5279
17353TIP3    H173474   3.924   5.462   5.896 -0.3104  1.6140 -0.3481
17353TIP3    H273475   4.041   5.382   5.844 -1.4836 -0.9154  0.8212
17354TIP3   OH273476   5.272   4.620  16.179 -0.2688 -0.0587 -0.5999
17354TIP3    H173477   5.288   4.613  16.085  0.1683  0.6355 -0.5837
17354TIP3    H273478   5.187   4.664  16.186 -0.1005  0.2751 -0.6662
17355TIP3   OH273479   0.230   4.419   2.999 -0.3814 -0.3046 -0.2792
17355TIP3    H173480   0.236   4.394   3.091 -2.5468  0.1951  0.0154
17355TIP3    H273481   0.261   4.510   2.997  1.7292 -1.0153 -0.3964
17356TIP3   OH273482   2.240   4.129   3.508 -0.3499 -0.8549  0.5290
17356TIP3    H173483   2.177   4.200   3.497  1.1315  0.2849 -0.9688
17356TIP3    H273484   2.298   4.159   3.578 -0.2873 -1.0043  0.5405
17357TIP3   OH273485   2.894   5.233  16.711  0.1685  0.0549  0.3400
17357TIP3    H173486   2.939   5.316  16.723 -1.8271  1.0169  1.3086
17357TIP3    H273487   2.935   5.174  16.774  1.2486  0.4222 -0.0059
17358TIP3   OH273488   0.405   4.495  12.348  0.6274  0.5534  0.4885
17358TIP3    H173489   0.395   4.565  12.284 -0.2297  0.0401  0.0356
17358TIP3    H273490   0.437   4.538  12.427 -3.8324  2.2070  1.5874
17359TIP3   OH273491   6.626   2.564   3.193  0.4266 -0.5451  0.2365
17359TIP3    H173492   6.676   2.625   3.248 -0.9070 -0.7346  1.6917
17359TIP3    H273493   6.604   2.492   3.252  2.2894 -2.6666 -1.5496
17360TIP3   OH273494   5.475   2.748   2.342  0.8199 -0.2625  0.1759
17360TIP3    H173495   5.412   2.813   2.372  0.2238 -0.2876 -0.9661
17360TIP3    H273496   5.545   2.799   2.302  1.3648 -0.2486  1.1369
17361TIP3   OH273497   0.612   1.125  11.527 -0.1935  0.1675 -0.1292
17361TIP3    H173498   0.639   1.046  11.479  0.6483  0.6079 -0.3876
17361TIP3    H273499   0.521   1.109  11.549 -1.0516  0.5863 -3.1859
17362TIP3   OH273500   0.678   1.795   4.361  0.1407 -0.1068 -0.5200
17362TIP3    H173501   0.607   1.734   4.339 -0.4912 -0.3511  2.1067
17362TIP3    H273502   0.636   1.881   4.366  0.2044 -0.1159  0.1509
17363TIP3   OH273503   1.787   1.664  13.257  0.1052 -0.4065 -0.6433
17363TIP3    H173504   1.774   1.621  13.342  3.1183 -0.3815 -0.1118
17363TIP3    H273505   1.727   1.739  13.259  1.9599  1.1002  2.5646
17364TIP3   OH273506   6.624   5.692   3.353  0.4674 -0.4057  0.1003
17364TIP3    H173507   6.532   5.708   3.329  0.2647 -0.2470  0.9806
17364TIP3    H273508   6.671   5.695   3.270 -0.3073 -0.3516 -0.3412
17365TIP3   OH273509   6.448   1.072  12.694  0.2544  0.0292  0.3553
17365TIP3    H173510   6.366   1.049  12.651 -1.0714  1.9291  1.8019
17365TIP3    H273511   6.496   1.121  12.628  0.1342 -0.8472 -0.4034
17366TIP3   OH273512   3.292   5.410  13.305  0.4603 -0.4178 -0.2108
17366TIP3    H173513   3.262   5.445  13.389 -1.2206 -1.1375 -0.4860
17366TIP3    H273514   3.347   5.335  13.329 -1.4494 -1.7127  0.2469
17367TIP3   OH273515   1.045   6.470  16.628  0.5265 -0.0612 -0.9012
17367TIP3    H173516   1.096   6.398  16.665  0.8122  0.1422 -0.8975
17367TIP3    H273517   0.967   6.428  16.593 -0.4972 -0.0915  1.2962
17368TIP3   OH273518   5.824   3.995  13.920 -0.0495 -0.1738  0.1747
17368TIP3    H173519   5.873   4.036  13.991  0.2671  1.2242 -0.8220
17368TIP3    H273520   5.848   3.903  13.923  1.7410  0.2905  0.4313
17369TIP3   OH273521   1.643   3.440  13.448 -0.1924 -0.0388 -0.0682
17369TIP3    H173522   1.558   3.483  13.438 -0.1363  0.1366  0.1994
17369TIP3    H273523   1.662   3.446  13.542 -0.1610 -0.6017 -0.0349
17370TIP3   OH273524   1.366   0.898   5.062  0.5317  0.0529  0.4879
17370TIP3    H173525   1.360   0.930   5.152  1.6411  0.8232  0.2949
17370TIP3    H273526   1.343   0.806   5.069 -0.3122  0.3211  1.4216
17371TIP3   OH273527   2.498   5.882  11.760  0.1043 -0.2907  0.5348
17371TIP3    H173528   2.548   5.802  11.776  0.4907  0.1461  1.6232
17371TIP3    H273529   2.495   5.890  11.665  1.1706 -0.9223  0.4332
17372TIP3   OH273530   0.087   3.776   2.698  0.4132  0.1443 -0.0079
17372TIP3    H173531   0.007   3.761   2.749  0.2498  0.0256 -0.3000
17372TIP3    H273532   0.143   3.827   2.756  0.7560 -1.1103  0.7891
17373TIP3   OH273533   3.990   1.513  16.182  0.1203 -0.1994  0.0910
17373TIP3    H173534   4.044   1.483  16.255 -0.7789 -1.6189  0.1972
17373TIP3    H273535   3.900   1.492  16.208 -0.5896  2.6740  0.1895
17374TIP3   OH273536   0.887   1.248   2.017  0.2097  0.1682  0.0869
17374TIP3    H173537   0.946   1.189   1.970 -0.1506 -0.0226 -0.1287
17374TIP3    H273538   0.852   1.195   2.089  2.0562  0.9480  1.6064
17375TIP3   OH273539   6.033   2.807  11.944 -0.3817 -0.3699  0.0435
17375TIP3    H173540   6.079   2.759  12.013 -2.4190 -0.5624  1.2931
17375TIP3    H273541   5.987   2.739  11.894 -0.2597 -0.0655 -0.4894
17376TIP3   OH273542   6.384   0.875  17.067  0.5388 -0.0922 -0.3306
17376TIP3    H173543   6.431   0.796  17.041  0.1907 -0.1400 -0.8140
17376TIP3    H273544   6.292   0.854  17.054  0.2714 -0.5016  1.9491
17377TIP3   OH273545   5.856   1.841   1.758 -0.1596  0.9205 -0.3145
17377TIP3    H173546   5.808   1.789   1.694  2.9972  0.0519 -2.1095
17377TIP3    H273547   5.816   1.928   1.754 -1.4577  0.2718 -1.8616
17378TIP3   OH273548   2.286   1.369   4.986  0.1926 -0.2706 -0.2024
17378TIP3    H173549   2.354   1.424   4.947 -0.8781  1.4949  0.3400
17378TIP3    H273550   2.291   1.286   4.938  2.1798  0.1088 -0.6988
17379TIP3   OH273551   0.599   5.837  14.092 -0.6624 -0.5455  0.2066
17379TIP3    H173552   0.580   5.841  13.998  2.2805  1.2141 -0.3614
17379TIP3    H273553   0.614   5.928  14.117  1.0295 -1.2628  1.8458
17380TIP3   OH273554   3.478   6.088  14.124 -0.1208  0.6828 -0.1359
17380TIP3    H173555   3.393   6.045  14.115  0.3995 -0.4879  0.3723
17380TIP3    H273556   3.492   6.094  14.219  0.8654 -0.1925 -0.2048
17381TIP3   OH273557   5.220   0.437  12.167 -0.4628  0.3255 -0.1664
17381TIP3    H173558   5.182   0.369  12.112 -0.0481  1.7131 -2.1969
17381TIP3    H273559   5.298   0.395  12.205 -0.3034 -0.3931 -1.2543
17382TIP3   OH273560   0.109   6.436   3.371  0.1188 -0.4254 -0.1521
17382TIP3    H173561   0.193   6.437   3.325 -0.2265 -2.0384 -0.8612
17382TIP3    H273562   0.132   6.427   3.463  0.7242 -0.6990 -0.3271
17383TIP3   OH273563   1.234   5.030   5.942 -0.5290  0.5287 -0.5942
17383TIP3    H173564   1.283   5.034   6.024 -0.9392 -0.2039 -0.3058
17383TIP3    H273565   1.145   5.058   5.966 -0.9797 -0.9361 -0.5198
17384TIP3   OH273566   1.700   1.707   0.790  0.4148 -0.3402  0.2488
17384TIP3    H173567   1.641   1.666   0.853 -1.5057 -0.3418 -1.4938
17384TIP3    H273568   1.649   1.778   0.752  1.6716 -0.1076 -1.0333
17385TIP3   OH273569   2.094   6.659   1.129 -0.0206  0.0732  0.0116
17385TIP3    H173570   2.044   6.741   1.127  0.7632  0.5430 -1.1065
17385TIP3    H273571   2.041   6.597   1.079 -0.2474  0.1155  0.1987
17386TIP3   OH273572   6.226   2.341  16.891 -0.3794  0.5553  0.0638
17386TIP3    H173573   6.275   2.260  16.892  1.3745  1.5531 -1.3385
17386TIP3    H273574   6.136   2.314  16.873  0.5688 -0.9327 -2.7575
17387TIP3   OH273575   4.606   1.936  12.048 -0.6328 -0.0045 -0.0736
17387TIP3    H173576   4.682   1.926  11.991 -1.3902 -1.0793 -0.9289
17387TIP3    H273577   4.617   1.869  12.116 -0.6271  0.0842  0.0129
17388TIP3   OH273578   4.573   4.662  13.029 -0.2679 -0.3967 -0.0915
17388TIP3    H173579   4.615   4.692  13.110 -0.4482  0.9393 -0.4974
17388TIP3    H273580   4.619   4.580  13.008  0.1325 -0.4783  1.0747
17389TIP3   OH273581   1.489   6.395   4.689 -0.7260 -0.3137  0.4604
17389TIP3    H173582   1.541   6.433   4.760 -1.6299 -0.9951  1.5129
17389TIP3    H273583   1.408   6.368   4.731 -1.9271  0.7039 -1.1667
17390TIP3   OH273584   5.067   0.047   4.331 -0.0051 -0.7580 -0.0369
17390TIP3    H173585   5.078   0.140   4.310  0.4678 -1.3518 -2.6228
17390TIP3    H273586   4.986   0.043   4.382  0.4618  1.1718  0.8948
17391TIP3   OH273587   4.348   1.730   5.114 -0.1458 -0.0248 -0.3485
17391TIP3    H173588   4.403   1.656   5.141 -1.2071 -0.8859 -0.4889
17391TIP3    H273589   4.372   1.745   5.023 -0.1653 -0.4308 -0.4241
17392TIP3   OH273590   5.692   1.996  15.930  0.7580  0.2351 -0.2568
17392TIP3    H173591   5.699   1.987  15.835  3.3683 -0.6285 -0.0302
17392TIP3    H273592   5.601   1.975  15.949 -0.2995  2.2847 -2.7302
17393TIP3   OH273593   3.225   3.134   2.567 -0.5443 -0.0541 -0.1353
17393TIP3    H173594   3.295   3.162   2.508  1.1658  0.1809  1.9894
17393TIP3    H273595   3.158   3.099   2.508  1.0656  0.2900 -2.2391
17394TIP3   OH273596   3.948   6.193   0.476  0.0346 -0.3130  0.0926
17394TIP3    H173597   3.968   6.280   0.512 -0.4553 -0.9111  1.8601
17394TIP3    H273598   3.916   6.143   0.551 -2.2314 -1.2200 -1.4051
17395TIP3   OH273599   4.056   6.328   1.886 -0.4527 -0.5540  0.8025
17395TIP3    H173600   4.044   6.286   1.801  0.9909  0.2916  0.1652
17395TIP3    H273601   4.016   6.415   1.876 -2.6965 -1.4146  1.8600
17396TIP3   OH273602   2.328   4.279   3.983  0.2033 -0.1048 -0.2420
17396TIP3    H173603   2.332   4.247   3.893 -1.4598 -1.7910  0.2577
17396TIP3    H273604   2.384   4.218   4.032  0.8173  0.5975 -0.0580
17397TIP3   OH273605   5.879   0.196   5.011  0.5315 -0.2012  0.0473
17397TIP3    H173606   5.818   0.182   4.939  0.5311  1.4076 -0.2756
17397TIP3    H273607   5.924   0.112   5.021  0.5018 -0.4513 -1.7973
17398TIP3   OH273608   0.442   2.799  17.085 -0.4777  0.5122 -0.1034
17398TIP3    H173609   0.356   2.833  17.108 -0.8869 -0.4264 -0.2463
17398TIP3    H273610   0.431   2.763  16.997  0.3315  1.3614 -0.5657
17399TIP3   OH273611   6.730   5.929  11.501 -0.1348  0.2407 -0.2227
17399TIP3    H173612   6.773   5.983  11.567  0.4372 -0.1099 -0.3045
17399TIP3    H273613   6.784   5.850  11.495 -0.1773  0.2692 -1.1089
17400TIP3   OH273614   2.260   6.158   4.696  0.3733 -0.2096 -1.0263
17400TIP3    H173615   2.308   6.240   4.708  1.6327 -1.2414  1.4486
17400TIP3    H273616   2.184   6.166   4.755  0.6694 -0.9353 -0.5420
17401TIP3   OH273617   4.492   6.306  16.056 -0.0682  0.1532  0.2111
17401TIP3    H173618   4.434   6.292  15.981  0.4069 -1.2288  0.0922
17401TIP3    H273619   4.513   6.399  16.053 -0.8684  0.3071 -0.7786
17402TIP3   OH273620   5.669   1.919  11.423  0.8771  0.1082  0.2851
17402TIP3    H173621   5.589   1.906  11.474  1.9890  2.1781  2.6836
17402TIP3    H273622   5.717   1.836  11.432  1.2241  0.5574  2.9890
17403TIP3   OH273623   4.001   6.156   5.392 -0.7917 -0.2405 -0.0513
17403TIP3    H173624   4.030   6.078   5.440  0.5665 -0.7609 -1.6854
17403TIP3    H273625   3.923   6.127   5.345 -0.1557 -0.6945 -0.8380
17404TIP3   OH273626   2.748   6.039  13.122 -0.6720 -0.2271  0.4080
17404TIP3    H173627   2.827   6.000  13.159  0.4047  1.5145 -0.0088
17404TIP3    H273628   2.697   6.065  13.198 -1.5328 -2.6351  0.7000
17405TIP3   OH273629   1.277   2.959  12.972  0.5307  0.1788  0.2478
17405TIP3    H173630   1.188   2.953  12.936  0.9187  1.1044 -0.9115
17405TIP3    H273631   1.325   3.012  12.908  1.7011  0.3926  1.2844
17406TIP3   OH273632   5.730   4.473   5.355  0.0421  0.0874 -0.0060
17406TIP3    H173633   5.764   4.477   5.266 -0.2281  0.4151 -0.0949
17406TIP3    H273634   5.638   4.448   5.344  0.0357  0.0300  0.1855
17407TIP3   OH273635   0.906   1.930   0.436 -0.4967  0.1301 -0.2871
17407TIP3    H173636   0.858   1.907   0.516  0.4637  0.5484  0.4240
17407TIP3    H273637   0.942   2.017   0.453  0.7124 -0.2718 -0.7015
17408TIP3   OH273638   4.791   0.843  16.244  0.0207  0.5069  0.2404
17408TIP3    H173639   4.845   0.764  16.240 -2.1089 -0.9884 -0.5605
17408TIP3    H273640   4.832   0.903  16.182  0.5053 -0.7664 -0.7054
17409TIP3   OH273641   4.928   5.648   5.066  0.1648  0.2596  0.3931
17409TIP3    H173642   5.019   5.672   5.047 -0.5694  1.0985 -2.2729
17409TIP3    H273643   4.924   5.554   5.048  0.3455  0.3612 -0.2041
17410TIP3   OH273644   1.164   1.899  12.138  0.4191 -0.1694 -0.1379
17410TIP3    H173645   1.127   1.943  12.062  2.6380  0.3484 -0.9523
17410TIP3    H273646   1.143   1.806  12.125  0.4105 -0.0266 -1.1304
17411TIP3   OH273647   0.578   0.586   1.639  0.0104  0.3844 -0.3501
17411TIP3    H173648   0.524   0.521   1.685  1.9875 -0.4912  0.8123
17411TIP3    H273649   0.553   0.670   1.677 -0.6493  0.0005  0.0708
17412TIP3   OH273650   4.113   2.014  16.895  0.1805  0.4570 -0.7418
17412TIP3    H173651   4.128   2.064  16.815  1.3314 -0.8629 -1.3718
17412TIP3    H273652   4.199   1.978  16.917 -0.3816 -0.2430  0.3766
17413TIP3   OH273653   6.383   1.461  12.322 -0.2707  0.0325  0.4867
17413TIP3    H173654   6.408   1.370  12.331 -0.4955  0.0915  1.8352
17413TIP3    H273655   6.351   1.486  12.409 -2.5724  0.6771 -0.5191
17414TIP3   OH273656   2.473   0.868   1.731 -0.4635 -0.6349  0.8812
17414TIP3    H173657   2.457   0.883   1.825 -1.7995 -2.4584  0.9817
17414TIP3    H273658   2.424   0.936   1.687 -1.1524 -0.7385  1.4749
17415TIP3   OH273659   0.267   0.321  14.336  0.2304  0.2339  0.0103
17415TIP3    H173660   0.214   0.391  14.297  0.0856 -0.1410 -0.4620
17415TIP3    H273661   0.246   0.324  14.429 -0.2359  0.4207 -0.1003
17416TIP3   OH273662   2.893   0.809  12.686  0.1984  0.6628 -0.0011
17416TIP3    H173663   2.835   0.755  12.742 -0.3164 -0.4774 -1.6020
17416TIP3    H273664   2.910   0.754  12.610 -0.2304  2.7219 -1.6282
17417TIP3   OH273665   3.915   4.894  13.931  0.5657 -0.1447  0.6821
17417TIP3    H173666   3.996   4.846  13.914  0.5332  0.5186 -1.4327
17417TIP3    H273667   3.846   4.837  13.897  0.2476 -0.0503  1.1576
17418TIP3   OH273668   1.891   1.685  13.658  0.6145 -0.4739  0.2262
17418TIP3    H173669   1.807   1.683  13.703  1.2524 -1.0935  1.4180
17418TIP3    H273670   1.931   1.768  13.684 -0.3147  0.5929 -1.6539
17419TIP3   OH273671   0.383   3.127   3.300  0.2155  0.7278 -0.6494
17419TIP3    H173672   0.462   3.089   3.261  0.4887 -1.1501  1.6891
17419TIP3    H273673   0.322   3.054   3.308 -1.2147  1.8576 -0.9688
17420TIP3   OH273674   3.073   1.741  11.963  0.5100  0.4491 -0.1401
17420TIP3    H173675   3.027   1.822  11.941 -0.8482  0.2187  1.7123
17420TIP3    H273676   3.124   1.764  12.041  0.5134 -0.3262  0.0856
17421TIP3   OH273677   6.223   4.037  15.168  0.8568 -0.1979 -0.2417
17421TIP3    H173678   6.235   4.064  15.077  1.2456  0.3419 -0.0393
17421TIP3    H273679   6.189   4.115  15.212  1.5223 -0.1776  0.2532
17422TIP3   OH273680   2.743   4.036  15.268  0.1882 -0.1307  0.2733
17422TIP3    H173681   2.813   4.013  15.328 -0.1668  0.0334  0.7492
17422TIP3    H273682   2.739   4.132  15.271 -1.2814 -0.2309  1.6373
17423TIP3   OH273683   6.072   1.949  13.572  0.2573 -0.1713  0.3067
17423TIP3    H173684   6.035   1.977  13.656 -0.4605 -1.1139  0.3190
17423TIP3    H273685   6.062   1.854  13.572  1.5792 -0.3125 -0.2312
17424TIP3   OH273686   4.780   1.726   0.615  0.7408  0.5607 -0.0912
17424TIP3    H173687   4.871   1.707   0.595  0.4526  0.7829 -1.6718
17424TIP3    H273688   4.773   1.715   0.710  1.8593 -1.6934 -0.2522
17425TIP3   OH273689   1.350   4.147   1.290  0.0468  0.0775 -0.0031
17425TIP3    H173690   1.436   4.118   1.260 -0.4775 -3.3766  1.5240
17425TIP3    H273691   1.362   4.167   1.383 -1.1315 -2.2640  0.7040
17426TIP3   OH273692   1.336   5.783  14.500  0.2799 -0.0750 -0.5117
17426TIP3    H173693   1.326   5.761  14.407 -0.8187  0.2825 -0.4845
17426TIP3    H273694   1.416   5.835  14.503  1.1115 -1.2970 -1.0457
17427TIP3   OH273695   5.257   1.152  11.762 -0.1982 -0.0597  0.1940
17427TIP3    H173696   5.209   1.231  11.739 -0.2288  0.2551  1.2947
17427TIP3    H273697   5.329   1.183  11.817  0.2388 -0.7102 -0.0040
17428TIP3   OH273698   3.991   5.267   2.659 -0.8710  0.0204  0.2960
17428TIP3    H173699   4.042   5.196   2.697  1.3398  0.5797 -1.4910
17428TIP3    H273700   3.950   5.228   2.582  0.1704  0.5599 -0.5618
17429TIP3   OH273701   0.256   5.365  12.068 -0.3706  0.2852  0.2100
17429TIP3    H173702   0.330   5.328  12.116 -1.0615  2.1306  2.7550
17429TIP3    H273703   0.187   5.298  12.074 -0.2786  0.2905  1.3543
17430TIP3   OH273704   5.969   6.253  13.740  0.3904  0.1198  0.5468
17430TIP3    H173705   6.036   6.322  13.737  1.4118 -0.8988 -0.9190
17430TIP3    H273706   5.928   6.256  13.654  0.4332 -1.0855  0.4775
17431TIP3   OH273707   6.453   0.565   3.753 -0.3871 -0.1969 -0.7464
17431TIP3    H173708   6.438   0.495   3.817  0.7006 -0.3791 -0.6898
17431TIP3    H273709   6.523   0.532   3.697  1.1894  1.4627  0.2060
17432TIP3   OH273710   0.443   4.143  13.062 -0.0351 -0.3543 -0.1804
17432TIP3    H173711   0.406   4.220  13.105  2.2620  0.9852 -0.5150
17432TIP3    H273712   0.519   4.119  13.116  1.2412 -0.3235 -1.9092
17433TIP3   OH273713   0.684   4.946  12.371  0.4210  0.9907  0.3268
17433TIP3    H173714   0.774   4.918  12.391  1.4474  2.5653 -1.8172
17433TIP3    H273715   0.687   4.971  12.279 -2.5164  0.0551 -0.0506
17434TIP3   OH273716   0.212   6.446   6.920  0.8491  0.4515  0.4180
17434TIP3    H173717   0.271   6.517   6.891 -0.2493  1.1701 -0.0887
17434TIP3    H273718   0.208   6.387   6.845  0.7366  0.5209  0.3707
17435TIP3   OH273719   5.305   6.217   3.463 -0.2876 -0.6424 -0.9441
17435TIP3    H173720   5.266   6.241   3.379  1.3120  0.2845 -1.4318
17435TIP3    H273721   5.399   6.224   3.449 -0.0457  1.6707  1.5555
17436TIP3   OH273722   5.130   1.813  16.075 -0.2310 -0.0881  0.4667
17436TIP3    H173723   5.222   1.817  16.047 -0.5485  0.5897 -0.5081
17436TIP3    H273724   5.099   1.903  16.066 -0.8483 -0.2129  1.3118
17437TIP3   OH273725   0.202   2.849  11.963  0.0608  0.2411 -0.0199
17437TIP3    H173726   0.115   2.884  11.949 -1.0507 -1.9365  1.1581
17437TIP3    H273727   0.227   2.881  12.050  0.5444  1.0810 -0.4678
17438TIP3   OH273728   0.827   5.158   5.145 -0.3097  0.2265 -0.0811
17438TIP3    H173729   0.752   5.203   5.107 -0.3048  0.0227 -0.3323
17438TIP3    H273730   0.895   5.162   5.077 -0.0162  0.6098  0.2298
17439TIP3   OH273731   2.597   3.302   0.986 -0.5466 -0.4537 -0.0091
17439TIP3    H173732   2.551   3.374   1.031 -1.1540 -0.0624 -1.2469
17439TIP3    H273733   2.604   3.234   1.053 -0.2522  0.6259  1.0893
17440TIP3   OH273734   5.045   4.691  11.436  0.8522  0.0355 -0.3571
17440TIP3    H173735   5.022   4.681  11.528  2.9271  3.1924  0.5727
17440TIP3    H273736   4.965   4.669  11.389 -0.8983  0.5062  2.2925
17441TIP3   OH273737   0.272   2.348   5.500  0.4437  0.1721 -0.3459
17441TIP3    H173738   0.342   2.412   5.488  1.5118 -1.1245 -1.2029
17441TIP3    H273739   0.191   2.399   5.493  1.3080  1.8928  1.9471
17442TIP3   OH273740   3.643   1.084  16.967  0.2138 -0.8999  0.4638
17442TIP3    H173741   3.671   1.135  17.043 -1.2934  0.1804  0.3185
17442TIP3    H273742   3.624   1.149  16.900  0.8649 -1.8107 -0.6306
17443TIP3   OH273743   0.901   3.306   5.846 -0.1288 -0.0298 -0.5750
17443TIP3    H173744   0.835   3.372   5.866  1.3011  1.6144 -1.1002
17443TIP3    H273745   0.984   3.346   5.875  0.7384 -1.6612 -0.7601
17444TIP3   OH273746   6.109   3.003  13.752 -0.5853  0.7557 -0.4810
17444TIP3    H173747   6.070   3.082  13.790 -0.7654  0.8499 -0.8589
17444TIP3    H273748   6.040   2.937  13.758  0.1025  0.1454  1.3630
17445TIP3   OH273749   3.032   1.845  14.280 -0.5153  0.8504  0.0959
17445TIP3    H173750   3.016   1.865  14.372 -0.0914 -0.5880  0.4885
17445TIP3    H273751   3.032   1.750  14.275 -1.3610  0.9207 -1.5488
17446TIP3   OH273752   4.164   6.083   2.451  0.5130  0.3808 -0.0476
17446TIP3    H173753   4.109   6.159   2.433  0.2459 -0.0744 -1.2081
17446TIP3    H273754   4.118   6.009   2.410  0.9423 -0.3516  0.7651
17447TIP3   OH273755   0.697   3.135   5.218  0.0635  0.0989 -0.1581
17447TIP3    H173756   0.603   3.140   5.200  0.7356  1.7382 -3.6320
17447TIP3    H273757   0.731   3.221   5.192  2.4069 -0.1156  2.0112
17448TIP3   OH273758   4.468   3.432  12.677  0.1827  0.2431  0.2804
17448TIP3    H173759   4.470   3.485  12.597 -0.2453 -0.0973  0.0451
17448TIP3    H273760   4.556   3.443  12.715  0.9209 -0.8647 -1.0575
17449TIP3   OH273761   5.696   0.689   4.238 -0.1402 -0.4668  0.2809
17449TIP3    H173762   5.710   0.647   4.322 -0.3154  1.3227  1.2383
17449TIP3    H273763   5.752   0.767   4.241  0.3586 -0.7292 -1.5263
17450TIP3   OH273764   5.295   2.644  10.947  0.3309  0.3457  0.0908
17450TIP3    H173765   5.201   2.642  10.931  0.1998 -2.5440  0.8381
17450TIP3    H273766   5.304   2.617  11.039  1.9264 -0.3402 -0.2573
17451TIP3   OH273767   5.436   0.125   0.952  0.0714 -0.0902  0.3458
17451TIP3    H173768   5.490   0.066   0.899  0.8734  0.7610  0.2093
17451TIP3    H273769   5.352   0.080   0.960  0.8370 -1.4985  0.6659
17452TIP3   OH273770   1.643   1.211   4.762  0.0474  0.1331  0.4746
17452TIP3    H173771   1.615   1.302   4.773  0.2393 -0.0523  2.7053
17452TIP3    H273772   1.667   1.205   4.669 -1.9493  1.7735 -0.1825
17453TIP3   OH273773   0.986   1.283  13.377  0.4952 -0.1149  0.4348
17453TIP3    H173774   1.009   1.360  13.324 -0.1623 -0.7972 -0.8697
17453TIP3    H273775   1.069   1.237  13.390  0.7823  0.4572  0.6380
17454TIP3   OH273776   5.714   2.120  16.690  0.8929  0.6201  0.4293
17454TIP3    H173777   5.716   2.128  16.594  1.6385  0.3483  0.4190
17454TIP3    H273778   5.653   2.188  16.718 -0.8549 -0.5549 -0.3602
17455TIP3   OH273779   0.355   1.632  11.270  0.1280  0.3854  0.1862
17455TIP3    H173780   0.402   1.565  11.221 -0.1128  0.0673  0.3861
17455TIP3    H273781   0.272   1.590  11.294 -0.3246  0.9861 -0.2978
17456TIP3   OH273782   5.644   2.227  16.094 -0.6875 -0.1751  0.4296
17456TIP3    H173783   5.554   2.205  16.069 -0.0446 -0.9430 -1.2591
17456TIP3    H273784   5.697   2.158  16.054  0.9443  1.9109 -1.1120
17457TIP3   OH273785   0.202   2.547   0.599 -0.0676 -0.1789  0.6291
17457TIP3    H173786   0.141   2.516   0.532 -0.9676  1.2089  0.8031
17457TIP3    H273787   0.164   2.628   0.632  0.4392 -0.7587  2.7332
17458TIP3   OH273788   0.063   0.900   2.240  0.1340 -0.4305 -0.4386
17458TIP3    H173789   0.131   0.901   2.308 -0.2627  3.1665  0.0358
17458TIP3    H273790   0.060   0.809   2.211  1.1938 -1.8490  3.4559
17459TIP3   OH273791   6.531   1.376   0.837 -0.0088 -0.3349 -0.4116
17459TIP3    H173792   6.472   1.336   0.900  1.1507 -0.4240  0.6398
17459TIP3    H273793   6.591   1.306   0.811 -1.0758 -0.5625 -2.3888
17460TIP3   OH273794   4.271   4.393   3.956  0.1243 -0.1188  0.2393
17460TIP3    H173795   4.310   4.467   3.909  2.8656 -1.4057  0.4405
17460TIP3    H273796   4.184   4.384   3.917  0.9600  1.1665 -2.0461
17461TIP3   OH273797   0.180   3.316   5.195  0.5018 -0.3375 -0.8175
17461TIP3    H173798   0.163   3.268   5.276  0.7724  0.3237 -0.3660
17461TIP3    H273799   0.189   3.407   5.222 -2.6562  0.3950 -2.0111
17462TIP3   OH273800   1.057   4.905   0.764  0.7641 -0.0421 -0.0125
17462TIP3    H173801   0.971   4.876   0.734  0.7646 -1.0535  0.9323
17462TIP3    H273802   1.118   4.871   0.699  0.4117  1.1469 -0.9834
17463TIP3   OH273803   3.771   2.420   5.907 -0.1689  0.1090  0.3438
17463TIP3    H173804   3.827   2.497   5.893 -0.3935  0.3594  0.7875
17463TIP3    H273805   3.762   2.415   6.002  0.8079 -1.1700  0.3851
17464TIP3   OH273806   1.288   5.103  16.795  0.5350  0.2847 -0.4523
17464TIP3    H173807   1.257   5.036  16.734 -0.2280 -0.1673  0.4243
17464TIP3    H273808   1.375   5.073  16.822  1.8182  1.5674 -2.9351
17465TIP3   OH273809   5.668   0.722  12.416 -0.9263 -0.0377 -0.1419
17465TIP3    H173810   5.648   0.681  12.332  0.5196  1.7645 -1.3923
17465TIP3    H273811   5.763   0.736  12.415 -0.5670 -1.7563  2.6225
17466TIP3   OH273812   3.691   0.692  12.651 -0.3326  0.4440 -0.1118
17466TIP3    H173813   3.602   0.711  12.624 -1.4288 -0.8233  2.4674
17466TIP3    H273814   3.700   0.732  12.737  2.1601  1.9850 -1.0215
17467TIP3   OH273815   1.302   2.767   1.914 -0.2672  0.0837  0.3247
17467TIP3    H173816   1.274   2.677   1.929 -1.1153  0.2839 -0.0489
17467TIP3    H273817   1.278   2.785   1.823 -1.3277  1.1340  0.7934
17468TIP3   OH273818   1.109   4.420   2.868 -0.0060 -0.3675  0.7270
17468TIP3    H173819   1.166   4.376   2.805 -2.3117 -2.8472  0.2959
17468TIP3    H273820   1.100   4.509   2.833 -1.4906 -1.7487 -2.7334
17469TIP3   OH273821   2.805   4.102  12.043  0.2563  0.2934 -0.2354
17469TIP3    H173822   2.789   4.147  12.126 -0.1527 -0.4806  0.1084
17469TIP3    H273823   2.888   4.056  12.058 -1.3930 -2.4314  0.8682
17470TIP3   OH273824   6.567   6.348   6.002 -0.1839 -0.0431  0.1440
17470TIP3    H173825   6.528   6.424   6.046  0.2965  0.7680 -0.8353
17470TIP3    H273826   6.590   6.379   5.915  0.7079 -1.1147 -0.0095
17471TIP3   OH273827   1.330   4.566  11.751 -0.0131  0.8182  0.5013
17471TIP3    H173828   1.335   4.577  11.846  0.3894 -1.4181  0.7625
17471TIP3    H273829   1.415   4.530  11.726 -1.0636 -1.1922 -0.3208
17472TIP3   OH273830   4.140   0.811  10.679 -0.3076 -0.0367  0.3934
17472TIP3    H173831   4.087   0.759  10.618 -0.4043  2.1226 -1.4282
17472TIP3    H273832   4.078   0.871  10.719  0.4294  1.2574 -0.3820
17473TIP3   OH273833   0.748   1.136   1.370  0.1520 -0.2898 -0.2097
17473TIP3    H173834   0.780   1.222   1.342 -0.6753  0.6593  1.6607
17473TIP3    H273835   0.683   1.112   1.303 -0.6765  1.2208  0.0386
17474TIP3   OH273836   1.982   5.701  14.163  0.3056 -0.4718  1.3101
17474TIP3    H173837   1.916   5.670  14.225  0.2089  2.3658  2.6728
17474TIP3    H273838   1.986   5.795  14.177  2.4662 -0.1910 -0.9124
17475TIP3   OH273839   1.613   4.147  15.126 -0.0117  0.2641 -0.5015
17475TIP3    H173840   1.597   4.218  15.188  1.0666 -0.5136  0.6972
17475TIP3    H273841   1.575   4.069  15.167 -0.3117 -0.0471 -1.3512
17476TIP3   OH273842   1.842   1.852   1.795 -0.0042 -0.5400  0.3911
17476TIP3    H173843   1.816   1.944   1.792 -0.0321 -0.5193  1.0501
17476TIP3    H273844   1.887   1.837   1.713 -3.5893 -1.0414 -1.5914
17477TIP3   OH273845   5.919   4.094   0.015 -0.7845 -0.2729 -0.3235
17477TIP3    H173846   6.009   4.105  -0.015 -0.9234  2.6550  0.1296
17477TIP3    H273847   5.888   4.015  -0.029  1.6442 -0.7116 -1.3346
17478TIP3   OH273848   3.616   2.294   3.865 -0.4403 -0.0451  0.0423
17478TIP3    H173849   3.683   2.344   3.819  0.0619 -0.1421  0.6489
17478TIP3    H273850   3.626   2.319   3.957  0.2721 -1.7353  0.4606
17479TIP3   OH273851   2.842   5.132   4.508 -0.3186 -0.0490  0.3009
17479TIP3    H173852   2.751   5.135   4.537  0.4416  1.7463  2.6781
17479TIP3    H273853   2.849   5.203   4.444 -0.0596  1.3730  1.8688
17480TIP3   OH273854   5.728   0.889   3.216 -0.0277  0.4190 -0.0360
17480TIP3    H173855   5.745   0.874   3.309  3.9071  1.3373 -0.5031
17480TIP3    H273856   5.779   0.821   3.171  0.0617  1.4806 -1.5793
17481TIP3   OH273857   4.133   5.497   2.667  0.5698  0.0075 -0.1904
17481TIP3    H173858   4.084   5.415   2.678  1.9145 -0.7104  0.7126
17481TIP3    H273859   4.068   5.566   2.677 -0.1126 -0.9094  1.9965
17482TIP3   OH273860   4.215   3.201   3.634  0.7096  0.2625  0.1311
17482TIP3    H173861   4.255   3.268   3.689  1.2118  0.4701 -0.4798
17482TIP3    H273862   4.251   3.217   3.547  0.1757 -0.2712 -0.1901
17483TIP3   OH273863   1.733   0.863   5.039  0.2511  0.6013 -0.2696
17483TIP3    H173864   1.689   0.799   5.095  0.1472 -0.9453 -2.0729
17483TIP3    H273865   1.824   0.861   5.069 -0.2296  1.4597  1.3266
17484TIP3   OH273866   2.996   1.132  12.584  0.3245 -0.3839 -0.4757
17484TIP3    H173867   2.976   1.188  12.509  3.3170 -0.5060 -1.4102
17484TIP3    H273868   2.960   1.046  12.559 -0.8097  0.1450 -0.7139
17485TIP3   OH273869   4.124   4.672   0.377  0.4670  0.3156 -0.0361
17485TIP3    H173870   4.154   4.582   0.361 -0.3962  0.3336 -1.8960
17485TIP3    H273871   4.151   4.720   0.299 -1.1444  1.1498 -0.0903
17486TIP3   OH273872   2.445   0.409   5.111  0.0335 -0.8877  0.1590
17486TIP3    H173873   2.502   0.388   5.186 -2.2524 -0.4841  2.0733
17486TIP3    H273874   2.357   0.390   5.142 -1.1331  0.9943 -1.8391
17487TIP3   OH273875   0.082   1.904  14.189 -0.4366 -0.0599  0.6609
17487TIP3    H173876   0.170   1.936  14.169  0.3375 -2.1126  0.6416
17487TIP3    H273877   0.045   1.970  14.247  0.3191  1.8936 -1.0203
17488TIP3   OH273878   1.306   6.347   2.884 -0.0740 -0.3108  0.1040
17488TIP3    H173879   1.293   6.255   2.905 -1.2819 -0.4185 -1.1141
17488TIP3    H273880   1.342   6.347   2.795  0.3002  0.3787  0.2467
17489TIP3   OH273881   2.618   4.398   5.491  0.8846 -0.5031 -0.2876
17489TIP3    H173882   2.658   4.479   5.460  0.3212 -1.0136 -2.4425
17489TIP3    H273883   2.663   4.379   5.573  0.6434  2.2712  0.5355
17490TIP3   OH273884   0.424   2.426   5.118 -0.6645  0.6940  0.0454
17490TIP3    H173885   0.431   2.502   5.059 -1.8646  0.7335 -0.0636
17490TIP3    H273886   0.481   2.448   5.192 -0.4508  1.3887 -0.3205
17491TIP3   OH273887   4.956   1.815  14.267  0.0788  0.1849  0.3737
17491TIP3    H173888   5.036   1.763  14.262 -1.1530 -1.6414 -1.7482
17491TIP3    H273889   4.909   1.779  14.342 -0.9740 -2.1888 -1.3488
17492TIP3   OH273890   2.676   0.758   3.393  0.0698  0.0748  0.3401
17492TIP3    H173891   2.698   0.850   3.409  0.2082  0.3273 -1.2721
17492TIP3    H273892   2.744   0.709   3.438  0.4112  0.7729  0.5906
17493TIP3   OH273893   5.520   0.992   1.174  0.6212 -0.0368 -0.2178
17493TIP3    H173894   5.446   0.966   1.120  0.1125 -0.1437  0.5307
17493TIP3    H273895   5.572   1.049   1.118  0.8595 -1.3081 -1.3081
17494TIP3   OH273896   6.590   1.037   2.338 -0.7584  0.8481 -0.0709
17494TIP3    H173897   6.644   1.098   2.387  1.5805 -0.9093 -0.3264
17494TIP3    H273898   6.653   0.973   2.304 -2.9863 -1.0379 -0.7391
17495TIP3   OH273899   0.203   4.810   4.238 -0.0628 -0.6267  0.2104
17495TIP3    H173900   0.286   4.813   4.286  2.2494  0.6436 -3.6864
17495TIP3    H273901   0.179   4.902   4.227 -1.8337 -0.9771  0.9376
17496TIP3   OH273902   5.621   1.363   0.791  0.3338  0.5545 -0.4543
17496TIP3    H173903   5.653   1.296   0.852 -0.4585  1.1011  0.5910
17496TIP3    H273904   5.700   1.400   0.752  0.9132  0.8338  0.9564
17497TIP3   OH273905   4.069   4.195   1.401 -0.6230 -0.2814 -0.2874
17497TIP3    H173906   4.097   4.104   1.391 -0.6837 -0.1829 -1.4322
17497TIP3    H273907   4.042   4.222   1.314  0.9170  1.3422 -0.3012
17498TIP3   OH273908   3.247   3.307   1.348  0.3702  0.0313  0.0822
17498TIP3    H173909   3.189   3.262   1.411  0.7739  0.0152  0.4409
17498TIP3    H273910   3.283   3.381   1.397 -0.7783  1.1261 -0.6935
17499TIP3   OH273911   2.047   6.254   1.716  0.4368 -0.3927  0.7828
17499TIP3    H173912   2.065   6.163   1.737  1.7718 -0.3924 -0.2697
17499TIP3    H273913   2.020   6.253   1.624  0.7264  0.2924  0.6860
17500TIP3   OH273914   1.400   6.366  15.672 -0.2056  0.3084 -0.0777
17500TIP3    H173915   1.461   6.302  15.636 -1.5490 -2.5263  2.5230
17500TIP3    H273916   1.331   6.374  15.606 -1.0758 -2.5316  0.4285
17501TIP3   OH273917   0.720   2.682   1.042 -0.7238  1.0885  0.2401
17501TIP3    H173918   0.648   2.638   1.087  0.8504 -0.9167  0.8841
17501TIP3    H273919   0.693   2.687   0.951 -0.6410 -1.9403  0.0070
17502TIP3   OH273920   2.751   1.833   5.557  0.3694 -0.2876 -0.4823
17502TIP3    H173921   2.692   1.852   5.484 -0.7342 -2.5901 -0.2341
17502TIP3    H273922   2.783   1.744   5.540  1.0192 -0.4000  1.2138
17503TIP3   OH273923   0.579   2.654  14.734 -0.0661  0.4505 -0.1077
17503TIP3    H173924   0.560   2.597  14.659  3.9510  1.2980 -1.8873
17503TIP3    H273925   0.531   2.734  14.715 -0.1114  0.1921 -1.1460
17504TIP3   OH273926   2.919   0.867   2.837 -0.1390 -0.0410  0.4129
17504TIP3    H173927   2.846   0.913   2.795 -1.1122  1.3186  3.4204
17504TIP3    H273928   2.878   0.794   2.883  0.7438 -0.7996  0.0135
17505TIP3   OH273929   0.719   4.970  14.336  0.3697 -0.2579 -0.1434
17505TIP3    H173930   0.638   5.022  14.337 -0.3319 -1.1999  4.4944
17505TIP3    H273931   0.789   5.034  14.347 -0.2049  0.1332  1.4107
17506TIP3   OH273932   3.431   3.316   2.749  0.0699  0.3793  0.0476
17506TIP3    H173933   3.521   3.349   2.750  0.3426 -0.3757  0.3183
17506TIP3    H273934   3.440   3.221   2.751 -0.6806  0.1969 -2.8732
17507TIP3   OH273935   1.266   5.942   2.178 -0.1774  0.0346  0.1510
17507TIP3    H173936   1.357   5.926   2.156 -0.1339  0.3595  0.0883
17507TIP3    H273937   1.243   5.873   2.241 -0.1604 -0.5950 -0.5307
17508TIP3   OH273938   3.685   1.214   1.690 -0.0811  0.5562  0.2171
17508TIP3    H173939   3.682   1.249   1.779 -1.3263  1.8241 -0.2900
17508TIP3    H273940   3.760   1.154   1.690  0.2608  0.9458  1.9596
17509TIP3   OH273941   4.537   4.456  11.262  0.1527  0.7607  0.3688
17509TIP3    H173942   4.585   4.475  11.181  0.8897  0.2075  0.6646
17509TIP3    H273943   4.605   4.424  11.322 -0.2776  1.7798  1.4141
17510TIP3   OH273944   0.206   1.817   5.210 -0.0716 -0.0649  0.2796
17510TIP3    H173945   0.196   1.778   5.123  1.8017 -2.4116  1.0424
17510TIP3    H273946   0.224   1.742   5.268  3.7011  1.8859  1.8212
17511TIP3   OH273947   1.538   4.999  16.859 -0.4505 -0.1270  0.0838
17511TIP3    H173948   1.604   5.039  16.802  0.2333  1.3317  1.8488
17511TIP3    H273949   1.497   4.932  16.805  0.7070  0.7061 -1.8722
17512TIP3   OH273950   5.679   3.779   1.244  0.2414 -0.2863 -0.1151
17512TIP3    H173951   5.625   3.851   1.210  0.9190  0.6701  0.7938
17512TIP3    H273952   5.718   3.815   1.323  2.0742 -1.0198 -0.6656
17513TIP3   OH273953   3.107   1.994   3.798 -0.4386  0.5456 -0.5070
17513TIP3    H173954   3.177   2.047   3.835 -1.6252  0.7917  1.4142
17513TIP3    H273955   3.088   2.035   3.714  0.4588  1.5665 -0.2270
17514TIP3   OH273956   2.380   5.283  16.519 -0.2872 -0.4106  0.3610
17514TIP3    H173957   2.353   5.253  16.606  0.0696  1.3474  1.0996
17514TIP3    H273958   2.475   5.296  16.526 -0.2382 -0.3517 -0.3343
17515TIP3   OH273959   5.071   2.205  14.655  0.1034  0.3913 -0.6593
17515TIP3    H173960   5.086   2.263  14.730  1.6537  0.0567 -0.6848
17515TIP3    H273961   5.146   2.221  14.597 -0.9576  0.4773 -2.0296
17516TIP3   OH273962   2.300   1.642  12.878 -0.0700  0.7386 -0.7624
17516TIP3    H173963   2.395   1.640  12.889 -0.2693 -0.2517  0.8282
17516TIP3    H273964   2.287   1.632  12.783  1.3808  0.0718 -0.9025
17517TIP3   OH273965   0.586   1.044  13.439  0.4652  0.8042 -0.3559
17517TIP3    H173966   0.653   1.008  13.381  0.2324  0.4611 -0.4095
17517TIP3    H273967   0.579   1.135  13.413  0.6504  0.7520 -0.5951
17518TIP3   OH273968   1.762   1.924  13.912  0.1871 -0.0468 -0.0475
17518TIP3    H173969   1.722   1.976  13.843  0.4025 -1.2925 -1.1288
17518TIP3    H273970   1.853   1.915  13.886  0.1229 -1.0557  0.0705
17519TIP3   OH273971   2.402   2.634   2.861 -0.2078 -0.2994  0.0073
17519TIP3    H173972   2.440   2.653   2.775  1.3403  1.2730  0.9956
17519TIP3    H273973   2.421   2.712   2.913 -1.4563 -1.0784  1.6693
17520TIP3   OH273974   0.906   5.256  15.909  0.5022  0.3727  0.5781
17520TIP3    H173975   0.880   5.293  15.825  0.4963 -0.5978  0.1444
17520TIP3    H273976   0.834   5.278  15.968  0.9727  1.9508  0.5951
17521TIP3   OH273977   5.275   4.251   3.181 -0.1910 -0.0222  0.6451
17521TIP3    H173978   5.227   4.168   3.171  0.9946 -0.6851  0.3509
17521TIP3    H273979   5.323   4.240   3.263 -0.7306  0.7395  1.0690
17522TIP3   OH273980   0.847   4.720   3.716  0.1052 -0.9511 -0.2047
17522TIP3    H173981   0.864   4.780   3.644 -1.5277 -0.3188 -0.0766
17522TIP3    H273982   0.865   4.772   3.795  1.6297 -1.5596 -0.1341
17523TIP3   OH273983   3.074   2.543   6.064  0.0298  0.2279  0.4321
17523TIP3    H173984   3.105   2.504   5.982  1.7107  1.1631  0.5876
17523TIP3    H273985   3.111   2.487   6.132  0.1733  0.5020  0.5823
17524TIP3   OH273986   2.154   0.492  12.031 -0.0306  0.4087 -0.4033
17524TIP3    H173987   2.246   0.483  12.006 -0.0430 -0.8750 -0.0150
17524TIP3    H273988   2.119   0.404  12.026 -0.6998  0.5329  1.4935
17525TIP3   OH273989   2.082   6.654   4.170 -0.3045  0.5919  0.4260
17525TIP3    H173990   2.155   6.714   4.156  0.5718 -0.4821  0.3319
17525TIP3    H273991   2.113   6.594   4.238  0.2681 -2.0896 -2.1452
17526TIP3   OH273992   4.353   4.120  10.619  0.6836  0.3380  0.6091
17526TIP3    H173993   4.300   4.072  10.555 -0.0850  0.9525  0.7664
17526TIP3    H273994   4.389   4.194  10.569  0.5291  0.5075  0.7439
17527TIP3   OH273995   1.854   0.856  17.139  0.3758 -0.1042 -0.0706
17527TIP3    H173996   1.870   0.838  17.047 -2.3599  0.3803 -0.6953
17527TIP3    H273997   1.903   0.936  17.157  1.8103 -0.8026 -0.7948
17528TIP3   OH273998   2.205   6.675  17.000  1.0368  0.0517  0.6989
17528TIP3    H173999   2.217   6.609  17.069  1.2568 -0.5956  0.0486
17528TIP3    H274000   2.293   6.708  16.984  1.2055 -0.8752 -0.3221
17529TIP3   OH274001   3.676   4.031   1.290  0.1762  0.5708  0.1368
17529TIP3    H174002   3.654   4.110   1.340  0.3397  1.3142 -0.9436
17529TIP3    H274003   3.666   3.959   1.353  0.4308  1.4924  1.2524
17530TIP3   OH274004   2.519   5.636  12.079  0.0765 -0.0951 -0.3173
17530TIP3    H174005   2.472   5.679  12.151  0.3711  0.0983 -0.2381
17530TIP3    H274006   2.571   5.569  12.122  1.6032  1.1785 -0.1430
17531TIP3   OH274007   3.536   1.025   0.349  0.6779  0.4807  0.5697
17531TIP3    H174008   3.598   0.965   0.391 -1.5566 -0.4936  2.5853
17531TIP3    H274009   3.455   0.975   0.341  0.0785  1.7694 -1.9109
17532TIP3   OH274010   4.588   6.477   6.503 -1.2544  0.0192  0.4824
17532TIP3    H174011   4.676   6.477   6.466 -1.3435  1.1926  0.2703
17532TIP3    H274012   4.530   6.469   6.428 -1.3558 -0.1426  0.5772
17533TIP3   OH274013   3.226   5.924  11.362 -0.3116 -0.1857  0.0316
17533TIP3    H174014   3.272   5.879  11.290 -0.0392  2.9623 -1.8577
17533TIP3    H274015   3.139   5.942  11.326 -0.5803  0.3324  0.9589
17534TIP3   OH274016   4.743   6.653   4.982  0.2159 -0.1804 -0.6071
17534TIP3    H174017   4.688   6.588   5.024 -0.5865  1.0205  0.2186
17534TIP3    H274018   4.683   6.707   4.931  0.6906  0.7518 -0.1990
17535TIP3   OH274019   3.970   4.872   2.948  0.4522 -0.0678  0.0964
17535TIP3    H174020   4.060   4.853   2.977  0.8317  1.0121 -0.3537
17535TIP3    H274021   3.924   4.897   3.028  0.5664 -0.5511  0.3171
17536TIP3   OH274022   3.368   5.849   3.944 -0.3813 -0.3248  0.3105
17536TIP3    H174023   3.457   5.838   3.909 -0.1623 -1.1029  1.1191
17536TIP3    H274024   3.323   5.768   3.922 -0.9575  0.1338 -0.2445
17537TIP3   OH274025   0.185   1.155  14.908  0.4082  0.2558  0.4221
17537TIP3    H174026   0.105   1.135  14.956  0.5135  0.0835  0.5260
17537TIP3    H274027   0.255   1.118  14.961  0.3729 -1.6350 -0.7991
17538TIP3   OH274028   4.928   6.297  13.263 -0.3570  0.0615  0.7189
17538TIP3    H174029   4.959   6.207  13.259 -0.1828  0.0329  2.1773
17538TIP3    H274030   4.956   6.337  13.181  1.6153 -0.5841  1.0408
17539TIP3   OH274031   2.393   5.503   0.895 -0.0755  0.5953  0.7357
17539TIP3    H174032   2.315   5.472   0.942 -0.2072 -3.4873 -1.9244
17539TIP3    H274033   2.398   5.448   0.818  4.0385  2.5296 -0.5336
17540TIP3   OH274034   3.731   1.238  11.825  0.7871 -0.3771 -0.1217
17540TIP3    H174035   3.714   1.324  11.864  1.5579 -0.4417  0.3762
17540TIP3    H274036   3.649   1.190  11.834  0.3231  0.3419 -0.4866
17541TIP3   OH274037   0.256   0.271  11.519  0.2887 -0.0788  0.4085
17541TIP3    H174038   0.325   0.235  11.462  0.7801 -1.9225  2.0960
17541TIP3    H274039   0.292   0.353  11.552  0.2216  0.7360 -1.4806
17542TIP3   OH274040   6.691   5.486  13.763  0.4140 -0.1407 -0.2679
17542TIP3    H174041   6.779   5.511  13.791 -0.5738  1.0298  1.9549
17542TIP3    H274042   6.664   5.420  13.826 -1.1357  1.1390  0.4470
17543TIP3   OH274043   3.286   5.311   5.102  0.6307 -0.6179 -0.6813
17543TIP3    H174044   3.227   5.246   5.063  0.0254  0.4116 -1.4923
17543TIP3    H274045   3.240   5.341   5.181 -0.5443  1.1120 -1.9860
17544TIP3   OH274046   2.696   6.176  14.645 -0.0233 -0.2532 -0.5530
17544TIP3    H174047   2.684   6.156  14.738 -1.7533  0.6338 -0.5552
17544TIP3    H274048   2.790   6.190  14.635  0.6422 -3.6342  0.3802
17545TIP3   OH274049   1.659   3.836  13.254  0.4597 -0.5510  0.0607
17545TIP3    H174050   1.658   3.741  13.243  0.2654 -0.6514  0.8997
17545TIP3    H274051   1.751   3.861  13.244  0.3344 -0.6639 -1.4557
17546TIP3   OH274052   2.371   3.655   3.057 -0.0629  0.3346 -0.4678
17546TIP3    H174053   2.425   3.621   3.128 -0.4873  0.3706 -0.1231
17546TIP3    H274054   2.433   3.680   2.989  0.3060 -0.3780 -0.4010
17547TIP3   OH274055   2.015   3.098  12.875 -0.1244  0.6779 -0.3696
17547TIP3    H174056   2.065   3.049  12.810 -0.2209  0.8338 -0.5638
17547TIP3    H274057   2.063   3.181  12.885  0.2917  0.3644  0.2908
17548TIP3   OH274058   0.620   3.203  16.610  0.0026  0.3672 -0.2640
17548TIP3    H174059   0.652   3.180  16.522 -0.9097  2.6182 -1.2416
17548TIP3    H274060   0.600   3.119  16.651  1.0159 -0.7665 -1.9947
17549TIP3   OH274061   0.342   4.804   1.233  0.1421 -0.7568 -0.0756
17549TIP3    H174062   0.315   4.849   1.153  1.3540  0.1537  0.0050
17549TIP3    H274063   0.337   4.711   1.211 -1.4978 -0.5727 -0.5451
17550TIP3   OH274064   1.306   0.627   0.842  0.1328  0.3545 -0.9386
17550TIP3    H174065   1.234   0.612   0.779  0.1899 -0.1631 -0.8747
17550TIP3    H274066   1.265   0.677   0.912 -0.3666 -0.6673 -0.4961
17551TIP3   OH274067   2.731   1.636  14.709  0.2135 -0.8171 -0.1319
17551TIP3    H174068   2.639   1.625  14.734  0.1075 -0.4202 -0.3373
17551TIP3    H274069   2.779   1.574  14.763 -0.1693 -0.9657  0.0350
17552TIP3   OH274070   3.066   3.868   0.231  0.0017 -0.0257  0.0750
17552TIP3    H174071   3.034   3.802   0.170  1.9412 -3.3442  2.4927
17552TIP3    H274072   3.157   3.882   0.206 -0.3231  1.6569 -0.2767
17553TIP3   OH274073   3.450   1.793  13.921 -0.4295  0.1815 -0.4805
17553TIP3    H174074   3.376   1.732  13.926 -1.0323  0.9265 -0.3115
17553TIP3    H274075   3.410   1.880  13.917  0.4062  0.5403 -1.4060
17554TIP3   OH274076   0.437   0.944  11.343  0.2833  0.4037  0.5594
17554TIP3    H174077   0.423   0.898  11.260 -1.1129 -0.4803  1.2780
17554TIP3    H274078   0.522   0.912  11.374  0.0022 -0.5720  0.3312
17555TIP3   OH274079   5.101   0.557  14.136  0.0293  0.2436  0.6547
17555TIP3    H174080   5.095   0.641  14.090  0.2171  0.0381  0.2562
17555TIP3    H274081   5.189   0.556  14.173 -0.8878  1.4221  2.9778
17556TIP3   OH274082   3.876   1.100  13.327  0.2429  0.2484 -0.3621
17556TIP3    H174083   3.811   1.030  13.328  0.2935  0.1893 -0.9329
17556TIP3    H274084   3.936   1.079  13.398 -0.6055  0.5356  0.4456
17557TIP3   OH274085   5.145   2.729   2.658  0.0718  0.0719  0.3684
17557TIP3    H174086   5.220   2.780   2.690 -0.4940  1.4669 -0.4720
17557TIP3    H274087   5.125   2.767   2.572 -0.3503 -1.6069 -0.2962
17558TIP3   OH274088   0.491   6.387   5.920  0.1538  0.2574  0.6515
17558TIP3    H174089   0.564   6.372   5.981  1.3881 -0.8265 -1.0507
17558TIP3    H274090   0.529   6.438   5.849 -0.2104 -2.0344 -1.2547
17559TIP3   OH274091   3.747   3.015   0.500 -0.0103  0.0105 -0.4804
17559TIP3    H174092   3.789   3.101   0.501 -0.4400  0.2371 -1.7473
17559TIP3    H274093   3.666   3.027   0.548  0.0096  0.2735 -0.5144
17560TIP3   OH274094   4.636   0.814  12.493  0.6282  0.3739 -0.1603
17560TIP3    H174095   4.634   0.888  12.554 -2.1878 -0.8799  1.3721
17560TIP3    H274096   4.563   0.829  12.433 -0.0872 -1.2194  0.2682
17561TIP3   OH274097   6.785   1.636   4.403  0.2360  0.0388  0.0983
17561TIP3    H174098   6.710   1.618   4.346 -0.2489  0.2755  0.6517
17561TIP3    H274099   6.812   1.550   4.435 -0.5063  0.0444  0.7710
17562TIP3   OH274100   1.500   3.401   3.975 -0.3050  0.1372 -0.1345
17562TIP3    H174101   1.449   3.480   3.993  0.3493  1.3815 -3.4246
17562TIP3    H274102   1.474   3.376   3.887  2.2749 -1.1454 -0.5628
17563TIP3   OH274103   1.224   2.471  12.569 -0.7709  0.3053 -0.3817
17563TIP3    H174104   1.283   2.523  12.624 -3.1387  0.8472  1.7148
17563TIP3    H274105   1.196   2.532  12.501 -2.1397  1.2972  1.0413
17564TIP3   OH274106   4.995   5.396   5.569 -0.7274 -0.3560 -0.0358
17564TIP3    H174107   4.943   5.338   5.625 -2.1754  0.6866 -0.2521
17564TIP3    H274108   4.996   5.480   5.615  0.2536 -0.1941 -0.3406
17565TIP3   OH274109   4.487   4.005  11.493 -0.3012 -0.2225 -0.1740
17565TIP3    H174110   4.453   3.944  11.428  0.6538  0.2430 -1.1269
17565TIP3    H274111   4.574   3.974  11.513 -0.5196 -0.2483  0.7472
17566TIP3   OH274112   1.417   6.721  10.438 -0.0295  0.2092 -0.2163
17566TIP3    H174113   1.421   6.628  10.418  1.1205  0.6003 -1.9797
17566TIP3    H274114   1.464   6.731  10.521  1.0224 -0.5985 -0.7153
17567TIP3   OH274115   6.012   4.998  11.758 -0.1041  0.1707 -0.4897
17567TIP3    H174116   5.928   5.022  11.798 -0.7936 -2.5158 -0.1851
17567TIP3    H274117   6.012   4.902  11.761  1.1366  0.0016 -4.3348
17568TIP3   OH274118   3.892   2.365   3.375 -0.2815  0.4378  0.1072
17568TIP3    H174119   3.936   2.305   3.435  3.5373  1.9566 -0.9966
17568TIP3    H274120   3.894   2.450   3.419  0.2717  1.0487 -1.0542
17569TIP3   OH274121   6.114   6.259   3.233 -0.2015  0.0172 -0.5901
17569TIP3    H174122   6.088   6.167   3.246  0.1670  0.0477  0.4407
17569TIP3    H274123   6.137   6.265   3.141 -1.6823 -0.5623 -1.0204
17570TIP3   OH274124   0.701   5.729   0.323  0.1274 -0.0698  0.5299
17570TIP3    H174125   0.650   5.649   0.336 -0.1185 -0.3485 -1.9301
17570TIP3    H274126   0.642   5.800   0.350 -1.3069 -0.4351 -1.5724
17571TIP3   OH274127   5.424   5.153  14.929  0.0428  0.2539 -0.0019
17571TIP3    H174128   5.497   5.172  14.870  0.1708 -1.6527 -0.5042
17571TIP3    H274129   5.348   5.144  14.872  0.6720 -4.4500 -0.3474
17572TIP3   OH274130   3.259   3.666   2.012  0.0653 -0.4521  0.1181
17572TIP3    H174131   3.179   3.669   1.960  1.0156 -0.7677 -1.4117
17572TIP3    H274132   3.272   3.574   2.031 -0.2783 -0.3354  0.9015
17573TIP3   OH274133   2.620   3.107   1.172 -0.3643  0.2543 -0.2211
17573TIP3    H174134   2.605   3.014   1.158 -0.2196 -0.0210  1.3580
17573TIP3    H274135   2.713   3.113   1.195 -1.0052  0.4525  2.3831
17574TIP3   OH274136   2.801   3.501   1.698  0.1297  0.2832  0.2133
17574TIP3    H174137   2.749   3.473   1.623  0.1996  1.4212 -0.2781
17574TIP3    H274138   2.789   3.596   1.701  2.6530  0.6623 -0.2649
17575TIP3   OH274139   3.408   4.418   0.268 -0.6434  0.0721  0.0719
17575TIP3    H174140   3.433   4.502   0.306 -0.4030  0.5206 -1.0526
17575TIP3    H274141   3.422   4.429   0.174  1.8210 -2.0480  0.1209
17576TIP3   OH274142   4.841   4.510   1.859  1.0845  0.1488 -0.0640
17576TIP3    H174143   4.890   4.547   1.785  0.7235 -0.2230 -0.4903
17576TIP3    H274144   4.909   4.489   1.924  1.2522  1.9939  0.3837
17577TIP3   OH274145   0.460   5.813  15.025  0.5632  0.3764  0.2681
17577TIP3    H174146   0.373   5.775  15.032  1.2975 -2.1047 -2.8656
17577TIP3    H274147   0.448   5.891  14.970  0.5003 -0.6753 -1.2214
17578TIP3   OH274148   6.109   2.487   5.771 -0.2483  0.1767 -0.1430
17578TIP3    H174149   6.135   2.423   5.705 -1.4925 -1.1704  0.6515
17578TIP3    H274150   6.123   2.442   5.855 -1.4577  0.8177  0.4097
17579TIP3   OH274151   5.628   4.035   1.713 -0.2127 -0.1117 -0.7266
17579TIP3    H174152   5.593   4.111   1.665  0.0333 -0.7280 -1.9069
17579TIP3    H274153   5.716   4.063   1.741 -0.1742  0.0829 -1.0401
17580TIP3   OH274154   6.047   5.990   3.844  0.5191 -0.0189 -0.3884
17580TIP3    H174155   5.952   6.002   3.846  0.1728 -2.6551 -0.2280
17580TIP3    H274156   6.067   5.978   3.751  0.7315  0.6060 -0.4298
17581TIP3   OH274157   0.694   0.665  11.013  0.1462 -0.1556 -0.6075
17581TIP3    H174158   0.742   0.594  11.055  1.6626  1.5898  0.7020
17581TIP3    H274159   0.681   0.635  10.923  0.9786 -1.9656 -0.1598
17582TIP3   OH274160   5.168   3.196  16.677 -0.8103  0.5134 -0.1365
17582TIP3    H174161   5.140   3.125  16.619  0.4837 -1.4151  1.5616
17582TIP3    H274162   5.247   3.231  16.635 -0.4289 -0.2303 -0.0441
17583TIP3   OH274163   2.277   6.219   3.286  0.0123  0.2452  0.4081
17583TIP3    H174164   2.286   6.244   3.378 -2.1371 -0.4987  0.8338
17583TIP3    H274165   2.208   6.275   3.252  1.6241  1.3848 -1.1256
17584TIP3   OH274166   2.316   0.186  13.587 -0.1061  0.1915  0.3380
17584TIP3    H174167   2.270   0.103  13.583  1.6083 -0.7603 -0.2999
17584TIP3    H274168   2.279   0.231  13.663 -1.7762 -0.7052  0.0614
17585TIP3   OH274169   5.242   0.510  15.907 -0.4659 -0.2049 -0.0829
17585TIP3    H174170   5.271   0.464  15.828 -0.9217 -1.2881  0.3712
17585TIP3    H274171   5.154   0.477  15.923 -0.5992  0.4479  0.5500
17586TIP3   OH274172   4.703   0.766   5.276 -0.2350 -0.0567 -0.5824
17586TIP3    H174173   4.615   0.734   5.258 -0.8353 -0.2943  2.5692
17586TIP3    H274174   4.694   0.862   5.275 -0.7307 -0.0806  0.5421
17587TIP3   OH274175   5.112   2.556   3.490  0.0351  0.1532 -0.0114
17587TIP3    H174176   5.180   2.543   3.557 -0.1352 -0.1186  0.1078
17587TIP3    H274177   5.159   2.593   3.416 -0.0887  2.2887  0.9467
17588TIP3   OH274178   1.399   2.228  11.045 -0.2361 -0.2980 -0.7158
17588TIP3    H174179   1.393   2.151  10.988 -0.9395 -0.9883  0.2815
17588TIP3    H274180   1.415   2.192  11.132  0.8572  0.7563 -0.4660
17589TIP3   OH274181   0.773   6.150  16.574  0.2349  0.2095 -0.0859
17589TIP3    H174182   0.711   6.092  16.619  1.0003  0.1477  0.9145
17589TIP3    H274183   0.797   6.102  16.495 -0.2442 -0.2092  0.0196
17590TIP3   OH274184   1.280   5.269  14.895  0.7333 -0.3559  0.1221
17590TIP3    H174185   1.333   5.198  14.859  1.1532  0.1378 -0.2317
17590TIP3    H274186   1.341   5.342  14.906  0.4586 -0.2629  1.1403
17591TIP3   OH274187   6.603   3.840  11.233  0.4104 -0.1396 -0.6626
17591TIP3    H174188   6.675   3.826  11.172  0.7622  1.7391 -0.6939
17591TIP3    H274189   6.600   3.934  11.246 -1.1948 -0.3132  0.3799
17592TIP3   OH274190   6.651   1.056   4.169 -0.4986 -0.4911 -0.7758
17592TIP3    H174191   6.647   1.136   4.116  0.0648  0.3906  0.4971
17592TIP3    H274192   6.673   0.987   4.106  1.2292  0.7158 -1.5370
17593TIP3   OH274193   1.383   5.048  11.169 -0.0482 -0.1989  0.4683
17593TIP3    H174194   1.409   5.125  11.220  0.1161  0.5258 -0.6742
17593TIP3    H274195   1.403   4.974  11.225  1.4210  0.5116  0.9076
17594TIP3   OH274196   6.128   2.000   4.598 -0.5296 -0.0168  0.3092
17594TIP3    H174197   6.198   1.958   4.548 -0.7679 -0.8721  0.6995
17594TIP3    H274198   6.163   2.087   4.620  0.2440 -0.2900  0.1520
17595TIP3   OH274199   2.049   0.244  12.020  0.6006  0.0723  0.4787
17595TIP3    H174200   1.993   0.168  12.008  0.3188  0.2154  0.8711
17595TIP3    H274201   2.110   0.241  11.947 -0.7346  0.6434 -0.6780
17596TIP3   OH274202   6.059   4.621  15.410 -0.5658 -0.0280  1.0736
17596TIP3    H174203   6.149   4.587  15.407 -0.6412 -0.1521 -0.1257
17596TIP3    H274204   6.004   4.543  15.408 -0.7161  0.0946  0.0421
17597TIP3   OH274205   3.459   5.281  12.383 -0.3360 -0.6435 -0.2889
17597TIP3    H174206   3.523   5.294  12.452  0.0118 -2.3303 -0.2644
17597TIP3    H274207   3.493   5.330  12.308  0.6569 -1.0220 -0.0883
17598TIP3   OH274208   3.149   0.155  14.156  0.4983  0.5862  0.0461
17598TIP3    H174209   3.210   0.146  14.083 -0.6725  2.2050 -1.1823
17598TIP3    H274210   3.083   0.217  14.124 -0.2899  0.9646  2.3124
17599TIP3   OH274211   6.199   1.026   5.239 -0.0467  0.1028 -0.2629
17599TIP3    H174212   6.249   1.106   5.225 -1.4982  1.4302  1.7912
17599TIP3    H274213   6.167   1.002   5.152 -0.5044  2.3840 -0.7506
17600TIP3   OH274214   4.992   4.386  14.062  0.5914  0.1363  0.4277
17600TIP3    H174215   4.936   4.436  14.121 -1.7197 -1.4707 -0.3141
17600TIP3    H274216   4.982   4.429  13.977  0.4235 -0.1952  0.2788
17601TIP3   OH274217   4.219   2.921  15.403  0.0369 -0.3632 -0.0259
17601TIP3    H174218   4.143   2.977  15.385 -0.1244 -0.3299  0.7321
17601TIP3    H274219   4.198   2.838  15.360 -1.1134 -0.8481  1.4096
17602TIP3   OH274220   3.723   0.403   3.554 -0.4877 -0.3902 -0.2020
17602TIP3    H174221   3.627   0.402   3.558 -0.4690  0.2341  0.7684
17602TIP3    H274222   3.747   0.485   3.597  0.5574 -1.5072  1.3955
17603TIP3   OH274223   5.870   2.600  11.812 -0.4682 -0.4726  0.2003
17603TIP3    H174224   5.805   2.660  11.776 -0.4747 -2.0041 -2.4827
17603TIP3    H274225   5.819   2.533  11.858 -0.6123 -0.0339  0.6821
17604TIP3   OH274226   6.133   5.066   1.756  0.3887 -0.1328  0.3814
17604TIP3    H174227   6.115   5.025   1.671 -1.5127  0.1775  0.6058
17604TIP3    H274228   6.061   5.036   1.811  0.6380  1.1197  1.3812
17605TIP3   OH274229   2.667   2.824  15.679  0.2223  0.4862 -0.5018
17605TIP3    H174230   2.751   2.840  15.721  0.1879 -0.8376  0.1079
17605TIP3    H274231   2.603   2.835  15.749  0.0825 -0.7450 -0.4252
17606TIP3   OH274232   4.868   5.319  12.746 -0.1456  0.1991  0.1589
17606TIP3    H174233   4.792   5.340  12.800  0.4712  0.3196  0.9862
17606TIP3    H274234   4.843   5.347  12.658 -0.8325  0.7879  0.5344
17607TIP3   OH274235   4.727   4.793  13.240  0.7087 -0.4436  0.2034
17607TIP3    H174236   4.809   4.799  13.191  0.7228  1.2860  0.4171
17607TIP3    H274237   4.753   4.780  13.331  0.7116 -1.4551  0.0655
17608TIP3   OH274238   2.992   5.124  15.021 -0.3916  0.2948 -0.9228
17608TIP3    H174239   2.906   5.165  15.013 -1.0046 -0.0622  2.7370
17608TIP3    H274240   3.040   5.181  15.082  1.0199 -0.9267 -0.8577
17609TIP3   OH274241   0.702   0.178   1.331  0.2369  0.0528 -0.1563
17609TIP3    H174242   0.657   0.259   1.355 -2.3892 -1.3122 -0.2198
17609TIP3    H274243   0.710   0.130   1.414  2.1520  0.5258 -0.0479
17610TIP3   OH274244   2.344   3.993   6.663 -0.2089  0.0335 -0.2757
17610TIP3    H174245   2.406   4.038   6.606  0.6475  1.7806  1.9697
17610TIP3    H274246   2.299   4.063   6.710 -1.0425 -1.3494  1.0378
17611TIP3   OH274247   3.118   1.839  13.155  0.3795 -0.1435 -0.5133
17611TIP3    H174248   3.079   1.877  13.077  0.0063 -1.1376 -0.8113
17611TIP3    H274249   3.044   1.816  13.211  0.5682 -1.1707 -0.6768
17612TIP3   OH274250   4.751   5.154   0.836  0.8514 -0.1118 -0.1153
17612TIP3    H174251   4.724   5.177   0.748  1.9148  0.2089 -0.3725
17612TIP3    H274252   4.671   5.154   0.888  0.1352 -0.9175 -1.2080
17613TIP3   OH274253   6.240   5.224  17.126  0.0429 -0.1437  0.2815
17613TIP3    H174254   6.155   5.229  17.170 -1.0957  1.5937 -2.0481
17613TIP3    H274255   6.303   5.248  17.194 -1.4176 -0.2999  1.7228
17614TIP3   OH274256   0.550   3.150   3.966 -0.0774 -0.0886  0.7621
17614TIP3    H174257   0.564   3.092   4.040 -1.1155  0.4097  1.3570
17614TIP3    H274258   0.553   3.238   4.003  0.1343  0.1942  0.0903
17615TIP3   OH274259   1.576   5.857  16.149 -0.3733  0.3653  0.5039
17615TIP3    H174260   1.609   5.946  16.159 -0.1300  0.4941 -1.3735
17615TIP3    H274261   1.559   5.847  16.056 -1.7990 -1.0671  0.8813
17616TIP3   OH274262   0.778   5.371  12.980  0.0569  0.4132  0.1333
17616TIP3    H174263   0.760   5.278  12.999 -0.5062  0.2231 -1.2393
17616TIP3    H274264   0.873   5.378  12.983  0.1996 -0.5837 -1.3348
17617TIP3   OH274265   4.010   3.200   2.362 -0.4016  0.4103 -0.1067
17617TIP3    H174266   4.002   3.120   2.414 -1.1837 -1.1706 -2.5387
17617TIP3    H274267   3.953   3.263   2.406 -0.5671 -0.6915  1.2890
17618TIP3   OH274268   0.095   0.945   6.314  0.2514 -0.5822  0.4854
17618TIP3    H174269   0.035   0.999   6.262 -0.1884 -1.8847 -0.3864
17618TIP3    H274270   0.040   0.874   6.348  1.0083 -1.0041  0.8353
17619TIP3   OH274271   4.811   2.825   1.767 -0.0581 -0.3807  0.2220
17619TIP3    H174272   4.740   2.872   1.810 -2.2337 -2.1191 -1.3636
17619TIP3    H274273   4.837   2.881   1.694  0.3875  0.3905  0.9753
17620TIP3   OH274274   4.858   4.490  12.100 -0.1063  0.1863  0.3553
17620TIP3    H174275   4.852   4.421  12.165 -2.0964  1.0962  1.1601
17620TIP3    H274276   4.938   4.538  12.122  0.5248 -0.9840  0.6293
17621TIP3   OH274277   1.172   3.209  13.732 -0.7599 -0.2863  0.1969
17621TIP3    H174278   1.124   3.128  13.747  0.6796 -0.8496  2.1252
17621TIP3    H274279   1.259   3.181  13.703  0.5192  0.3823  3.0840
17622TIP3   OH274280   4.621   4.803   2.829 -0.3756  0.3752  0.3255
17622TIP3    H174281   4.693   4.863   2.850  1.4883 -1.5871 -0.3517
17622TIP3    H274282   4.598   4.763   2.913  0.0865  0.1645  0.3515
17623TIP3   OH274283   4.517   2.655  14.871 -0.0762 -0.1582  0.2419
17623TIP3    H174284   4.462   2.690  14.941 -0.4811  1.2311 -0.7476
17623TIP3    H274285   4.588   2.610  14.917 -0.3785  0.6758  1.5597
17624TIP3   OH274286   6.748   1.042   3.419  0.1159  0.1720 -0.1701
17624TIP3    H174287   6.670   1.096   3.411 -0.8825 -1.2647 -0.4611
17624TIP3    H274288   6.793   1.075   3.497 -0.6358  1.1829 -0.1564
17625TIP3   OH274289   2.739   0.206  15.702 -0.1138  0.0131 -0.0812
17625TIP3    H174290   2.790   0.242  15.629 -0.0612  0.5539  0.2214
17625TIP3    H274291   2.716   0.118  15.673  1.3123 -0.3786 -0.0648
17626TIP3   OH274292   3.502   6.690  13.490 -0.5580 -0.0215  0.2743
17626TIP3    H174293   3.598   6.696  13.482 -0.3579 -0.0370  2.3441
17626TIP3    H274294   3.478   6.613  13.439  0.7075 -0.8751  0.9433
17627TIP3   OH274295   3.223   4.152  16.235  0.2265 -0.2888 -0.5672
17627TIP3    H174296   3.186   4.066  16.217 -0.1398 -0.4664  1.0139
17627TIP3    H274297   3.159   4.195  16.292  1.2642  0.3402  0.1413
17628TIP3   OH274298   2.633   4.432   2.211  0.1780  0.0570  0.2639
17628TIP3    H174299   2.569   4.500   2.187  0.8953  1.0569  1.1788
17628TIP3    H274300   2.642   4.440   2.305 -0.0850 -1.6468  0.4542
17629TIP3   OH274301   0.459   1.552   0.802 -0.1785  0.2043  0.5295
17629TIP3    H174302   0.367   1.575   0.813 -0.3685 -0.2086 -0.1560
17629TIP3    H274303   0.473   1.554   0.708 -0.1739 -2.3331  0.4414
17630TIP3   OH274304   4.171   0.536   2.178 -0.0813 -0.2590  0.2375
17630TIP3    H174305   4.158   0.462   2.119  0.1780 -0.6656  0.6847
17630TIP3    H274306   4.148   0.502   2.265  0.3074  0.1034  0.4847
17631TIP3   OH274307   2.537   1.092  11.131 -0.1045 -0.9393 -0.2439
17631TIP3    H174308   2.620   1.140  11.124  2.0095 -4.2681  0.8979
17631TIP3    H274309   2.516   1.067  11.042 -1.4092  2.1940 -0.9145
17632TIP3   OH274310   4.814   1.357   5.222  0.0357 -0.7412 -0.0176
17632TIP3    H174311   4.888   1.344   5.163  0.0720 -0.8022  0.0426
17632TIP3    H274312   4.749   1.293   5.192  0.1575 -0.9618  0.1820
17633TIP3   OH274313   0.392   5.550   2.933  0.4296  0.7580 -0.2847
17633TIP3    H174314   0.331   5.551   2.860 -0.6093  0.9382  0.5736
17633TIP3    H274315   0.429   5.462   2.934 -2.1705 -0.3790  1.1078
17634TIP3   OH274316   1.351   4.047   2.626 -0.1777 -0.2248  0.0289
17634TIP3    H174317   1.369   4.019   2.536  1.2776 -3.2979  1.1804
17634TIP3    H274318   1.264   4.012   2.645  0.4378 -1.5655  0.4998
17635TIP3   OH274319   4.299   4.860   2.977 -0.2706  0.0673 -0.2333
17635TIP3    H174320   4.370   4.832   3.035  0.2925  2.8323  0.4858
17635TIP3    H274321   4.341   4.918   2.914 -1.7342  0.9096 -0.4545
17636TIP3   OH274322   0.622   6.160   0.358 -0.6027  0.6387 -0.2293
17636TIP3    H174323   0.557   6.124   0.298 -0.1266  0.8525 -0.8772
17636TIP3    H274324   0.706   6.133   0.322 -0.2147  2.7334 -0.9543
17637TIP3   OH274325   0.658   2.084   2.390 -0.1571  0.3981 -0.1929
17637TIP3    H174326   0.676   2.001   2.434  0.7293  0.6658 -0.0398
17637TIP3    H274327   0.579   2.117   2.433  0.4573  0.4502  0.9055
17638TIP3   OH274328   5.701   2.233   3.691 -0.0786  0.7849 -0.1303
17638TIP3    H174329   5.608   2.224   3.707  0.4812  1.3689  3.8900
17638TIP3    H274330   5.743   2.197   3.769  3.0387  0.9562 -1.6564
17639TIP3   OH274331   0.704   0.717  14.687  0.3589 -0.3202  0.1280
17639TIP3    H174332   0.751   0.716  14.604  1.6095 -2.8953  0.8254
17639TIP3    H274333   0.742   0.791  14.735  0.4389  0.4586 -1.1077
17640TIP3   OH274334   3.186   6.391   5.279 -0.2426  0.0125  0.1899
17640TIP3    H174335   3.100   6.424   5.303  0.4924 -0.0181  2.9687
17640TIP3    H274336   3.170   6.302   5.249 -1.1675  0.0263  0.6227
17641TIP3   OH274337   6.073   6.225   1.238 -0.5864 -0.4722  0.5027
17641TIP3    H174338   6.016   6.253   1.309  0.0025 -1.2542  1.2820
17641TIP3    H274339   6.034   6.265   1.160 -1.0832  0.6109  1.2849
17642TIP3   OH274340   4.840   5.296  11.403 -0.4149  0.1279  0.4103
17642TIP3    H174341   4.908   5.312  11.468  1.1046 -0.8646 -0.9144
17642TIP3    H274342   4.790   5.379  11.400  2.5809  1.9592 -0.7993
17643TIP3   OH274343   6.567   5.407   1.079 -0.0144 -0.4760  0.5664
17643TIP3    H174344   6.547   5.439   1.168  0.8326 -1.5693  1.1628
17643TIP3    H274345   6.507   5.333   1.066 -1.2273  0.6424 -0.4003
17644TIP3   OH274346   5.456   5.470  13.454 -0.1715  0.3635 -0.2511
17644TIP3    H174347   5.376   5.428  13.423 -1.5045 -0.0731  3.5693
17644TIP3    H274348   5.442   5.484  13.548  2.3601  4.5016 -0.3327
17645TIP3   OH274349   1.458   2.914  16.211  0.2508  0.0788 -0.1400
17645TIP3    H174350   1.539   2.863  16.224 -0.1232 -0.8224 -1.2103
17645TIP3    H274351   1.456   2.931  16.116 -0.4172  0.7762 -0.0033
17646TIP3   OH274352   4.456   3.341   1.126 -0.0553  0.7002 -0.0484
17646TIP3    H174353   4.500   3.257   1.113 -0.4990  0.6059 -0.9617
17646TIP3    H274354   4.525   3.398   1.159  0.4298  0.1735 -0.1304
17647TIP3   OH274355   4.952   3.488  15.964 -0.7118 -0.4560  0.7541
17647TIP3    H174356   4.997   3.509  16.047  1.4616 -1.3300 -0.1534
17647TIP3    H274357   4.895   3.563  15.948  0.4528  0.7215  1.9559
17648TIP3   OH274358   5.833   5.095   2.918  0.2611 -0.1414  0.2855
17648TIP3    H174359   5.822   5.189   2.909  0.5153 -0.2262 -0.9553
17648TIP3    H274360   5.756   5.058   2.876  1.0438 -0.5281 -0.8182
17649TIP3   OH274361   1.731   6.769   4.378  0.1452  0.2061 -0.6763
17649TIP3    H174362   1.745   6.710   4.452  1.3645  0.1136 -0.9651
17649TIP3    H274363   1.636   6.783   4.375  0.0243 -0.3557  0.4571
17650TIP3   OH274364   4.508   6.402   5.987 -0.2778 -0.2550 -0.3713
17650TIP3    H174365   4.445   6.467   6.017  0.9772  0.7994  0.0562
17650TIP3    H274366   4.556   6.377   6.067 -0.4120 -1.3460 -0.6184
17651TIP3   OH274367   0.169   3.455   1.492  0.2106  0.1081  0.3843
17651TIP3    H174368   0.124   3.495   1.567  1.0612  2.1140 -0.1490
17651TIP3    H274369   0.252   3.425   1.528  0.4188  0.6435  0.3566
17652TIP3   OH274370   4.661   2.772  16.719 -0.7699 -0.2151  0.5933
17652TIP3    H174371   4.594   2.708  16.742 -1.6778  1.6881  3.4892
17652TIP3    H274372   4.631   2.854  16.757  2.8225  0.8397  1.4300
17653TIP3   OH274373   2.510   4.981   5.644 -0.1513  0.0329  0.1960
17653TIP3    H174374   2.418   4.963   5.625 -0.3558 -1.2591  2.2187
17653TIP3    H274375   2.552   4.987   5.558 -1.8654 -0.7361 -0.7245
17654TIP3   OH274376   5.749   3.499   3.188 -0.4316  0.2371  0.1515
17654TIP3    H174377   5.821   3.559   3.206 -0.8283  0.4825  0.9075
17654TIP3    H274378   5.780   3.446   3.114  0.4838  0.4091  0.4093
17655TIP3   OH274379   2.071   2.835  10.737 -0.0754 -0.3516 -0.1174
17655TIP3    H174380   2.027   2.766  10.687  0.4722 -0.8322  0.0630
17655TIP3    H274381   2.016   2.846  10.815 -0.1581 -0.5932 -0.1392
17656TIP3   OH274382   4.286   6.067   3.986 -0.0591  0.1363  0.1632
17656TIP3    H174383   4.214   6.029   4.035  0.2174 -0.5202  0.0621
17656TIP3    H274384   4.270   6.161   3.990 -1.5447 -0.0553 -0.8066
17657TIP3   OH274385   3.821   3.260  15.815 -0.3566  0.4937  0.1694
17657TIP3    H174386   3.870   3.179  15.825  2.0006  1.6504 -1.6289
17657TIP3    H274387   3.838   3.309  15.896  2.1313  1.2201 -0.7673
17658TIP3   OH274388   5.404   4.618   3.778 -0.4234  0.3936 -0.3836
17658TIP3    H174389   5.458   4.679   3.727  0.0181  0.5290  0.2438
17658TIP3    H274390   5.345   4.674   3.827 -0.7939  0.2659 -0.6817
17659TIP3   OH274391   4.636   5.497   4.512 -0.3847 -0.1745 -0.2472
17659TIP3    H174392   4.629   5.592   4.524  1.0175 -0.2956  1.7707
17659TIP3    H274393   4.676   5.487   4.426  1.0534  1.1317  0.2418
17660TIP3   OH274394   5.718   6.289   4.277  0.3619  0.1621 -0.4339
17660TIP3    H174395   5.633   6.286   4.233  0.1069  0.1184  0.0623
17660TIP3    H274396   5.762   6.365   4.239  0.4402 -0.3023 -1.3060
17661TIP3   OH274397   1.915   5.291   2.382 -0.0621 -0.0204 -0.1231
17661TIP3    H174398   1.838   5.301   2.437  0.1394 -0.3867  0.2210
17661TIP3    H274399   1.951   5.205   2.405 -0.5748 -0.6489 -1.5684
17662TIP3   OH274400   1.266   4.308  14.572  0.0591  0.1333 -0.1676
17662TIP3    H174401   1.267   4.234  14.512  0.2257  0.2426 -0.3004
17662TIP3    H274402   1.333   4.367  14.538  0.9764 -0.3394  0.7842
17663TIP3   OH274403   3.289   5.442  17.217 -0.7885 -0.1321 -0.3432
17663TIP3    H174404   3.268   5.531  17.187 -0.4324  0.6162  1.5609
17663TIP3    H274405   3.258   5.439  17.307  1.7058 -1.0053  0.5197
17664TIP3   OH274406   2.488   1.714  14.374  0.9130 -0.3223 -0.2150
17664TIP3    H174407   2.397   1.684  14.381  0.8925 -0.0255  0.7927
17664TIP3    H274408   2.489   1.799  14.417  1.8071 -0.6021  0.3382
17665TIP3   OH274409   2.189   3.586   0.495 -0.4573  0.5207 -0.0225
17665TIP3    H174410   2.102   3.597   0.457 -0.5551  0.6220  0.2326
17665TIP3    H274411   2.174   3.582   0.589 -0.2558 -0.1250 -0.0116
17666TIP3   OH274412   4.417   1.388  14.277  0.2753  0.9735 -0.3219
17666TIP3    H174413   4.435   1.482  14.288  0.5234  0.7734  1.0186
17666TIP3    H274414   4.392   1.358  14.364  3.0918 -0.8369 -0.0639
17667TIP3   OH274415   0.244   0.843   3.879 -0.4456 -0.1615 -0.0008
17667TIP3    H174416   0.264   0.917   3.937 -0.6789  1.0886 -1.4546
17667TIP3    H274417   0.159   0.812   3.908 -1.4280  1.6544 -0.7998
17668TIP3   OH274418   5.411   5.275  16.326 -0.6482  0.3396  0.2261
17668TIP3    H174419   5.463   5.196  16.313  0.5101  1.2208 -0.6220
17668TIP3    H274420   5.347   5.274  16.255  0.9406  1.4051 -1.2285
17669TIP3   OH274421   5.986   5.983   0.561 -0.0776 -0.1627 -0.0928
17669TIP3    H174422   5.931   5.940   0.627 -1.2750  3.2880  1.3179
17669TIP3    H274423   6.032   6.051   0.610  1.9479  0.0202 -2.1613
17670TIP3   OH274424   2.979   5.667  17.052  0.3403 -0.0888 -0.4372
17670TIP3    H174425   2.932   5.748  17.031  0.9412  0.1522 -0.8705
17670TIP3    H274426   3.063   5.697  17.086  0.8723 -0.5420 -1.3399
17671TIP3   OH274427   6.480   4.763  12.404 -0.1391 -0.0295 -0.0840
17671TIP3    H174428   6.466   4.845  12.450 -3.1060  0.3299 -1.4800
17671TIP3    H274429   6.414   4.703  12.440  0.0021 -0.8597 -1.1618
17672TIP3   OH274430   6.226   1.181  16.173  0.0580 -0.2426  0.3035
17672TIP3    H174431   6.137   1.197  16.143  0.1780 -2.7593 -1.6091
17672TIP3    H274432   6.216   1.131  16.253 -0.2546 -0.3718  0.1844
17673TIP3   OH274433   4.334   1.763  16.085 -0.5156 -0.2933  0.6681
17673TIP3    H174434   4.339   1.717  16.001  0.3202  2.0117 -0.5936
17673TIP3    H274435   4.253   1.813  16.080  0.0564  0.6612  0.7692
17674TIP3   OH274436   0.461   6.515   0.975  0.2557  0.3671  0.1888
17674TIP3    H174437   0.485   6.522   0.883 -0.7921 -0.1198 -0.1230
17674TIP3    H274438   0.367   6.535   0.978 -0.0594 -1.1516  0.9275
17675TIP3   OH274439   1.277   5.599  14.701 -0.1079  0.1491 -0.0504
17675TIP3    H174440   1.321   5.654  14.766  1.3895 -1.6109  0.4600
17675TIP3    H274441   1.285   5.649  14.619 -0.5227  1.5980  0.7709
17676TIP3   OH274442   4.141   0.164  15.687 -0.0479 -0.3395 -0.5786
17676TIP3    H174443   4.087   0.124  15.618 -0.9975 -1.6103  0.8656
17676TIP3    H274444   4.227   0.125  15.676  0.1127  0.3043 -1.7309
17677TIP3   OH274445   2.803   0.637   2.952 -0.5581 -0.1535 -0.3343
17677TIP3    H174446   2.810   0.543   2.935 -1.5002 -0.2257 -0.3053
17677TIP3    H274447   2.876   0.656   3.011  0.9030 -0.4781 -1.9563
17678TIP3   OH274448   3.280   0.228   1.852  0.5577 -0.2809 -0.0952
17678TIP3    H174449   3.314   0.143   1.823  0.6523 -1.2002  2.5463
17678TIP3    H274450   3.313   0.237   1.941 -0.5000  1.9891  0.0978
17679TIP3   OH274451   5.701   5.355   2.039  0.2294 -0.6069  0.0985
17679TIP3    H174452   5.792   5.364   2.066  0.6449  1.3186 -1.8218
17679TIP3    H274453   5.653   5.415   2.096  0.7431  1.4323 -1.5484
17680TIP3   OH274454   2.482   5.636  11.302  0.1111 -0.2146  0.4621
17680TIP3    H174455   2.401   5.648  11.352 -0.4911 -0.1923 -0.5043
17680TIP3    H274456   2.483   5.710  11.241 -0.0217 -1.1515 -0.6981
17681TIP3   OH274457   1.349   4.943  14.471  0.4306 -0.0597  0.0419
17681TIP3    H174458   1.436   4.913  14.446  0.1760 -0.8465  0.0894
17681TIP3    H274459   1.292   4.912  14.401  0.4234  1.8742 -0.8332
17682TIP3   OH274460   1.984   2.908  14.561  0.5852 -0.1499  0.5291
17682TIP3    H174461   2.051   2.841  14.550 -0.7880 -1.3088 -0.9676
17682TIP3    H274462   1.949   2.922  14.473 -2.7358 -1.2782  1.6001
17683TIP3   OH274463   2.236   3.068  16.815  0.4259  0.3799 -0.8190
17683TIP3    H174464   2.330   3.048  16.812  1.0184  2.5969  1.4091
17683TIP3    H274465   2.226   3.140  16.753  0.1092 -0.0945 -1.3248
17684TIP3   OH274466   5.780   5.626   5.358 -0.2296 -0.2612  0.1072
17684TIP3    H174467   5.692   5.662   5.364 -0.2307 -0.1273 -0.7563
17684TIP3    H274468   5.837   5.701   5.376 -0.2682 -0.1540 -0.2215
17685TIP3   OH274469   3.129   4.812   3.747  0.0783  0.0224 -0.7079
17685TIP3    H174470   3.195   4.848   3.806 -0.6099  0.9837 -0.4933
17685TIP3    H274471   3.093   4.889   3.702 -0.2532 -0.5793 -1.4809
17686TIP3   OH274472   5.890   3.157  12.619  0.3039  0.8638 -0.7332
17686TIP3    H174473   5.853   3.137  12.533 -0.9122  0.8692 -0.2204
17686TIP3    H274474   5.833   3.225  12.655  0.9810  1.0745 -0.0367
17687TIP3   OH274475   0.435   5.842   5.868  0.0585  0.0226 -0.8256
17687TIP3    H174476   0.368   5.849   5.936  1.4361 -1.7091  0.7113
17687TIP3    H274477   0.452   5.933   5.843  0.3760  0.7466  1.9387
17688TIP3   OH274478   2.325   4.163  11.274 -0.3400  0.6873 -0.3811
17688TIP3    H174479   2.236   4.196  11.258 -0.8310 -0.4467 -0.0003
17688TIP3    H274480   2.347   4.113  11.195 -0.4483  0.0880 -0.0335
17689TIP3   OH274481   4.867   3.927  10.376  0.5550 -0.4724  0.2628
17689TIP3    H174482   4.856   3.847  10.326  0.4463 -1.3616  1.6782
17689TIP3    H274483   4.958   3.925  10.405 -0.1042 -1.3477  2.3755
17690TIP3   OH274484   5.287   3.667  13.692 -0.1745  0.1525  0.2169
17690TIP3    H174485   5.375   3.630  13.695 -0.6965 -1.0857  0.6938
17690TIP3    H274486   5.248   3.641  13.776 -0.2522  2.5759  0.9629
17691TIP3   OH274487   1.404   4.160  15.671 -0.4519 -0.2276  0.2773
17691TIP3    H174488   1.486   4.188  15.629 -1.0965  0.3233 -0.6302
17691TIP3    H274489   1.372   4.089  15.615 -1.2191  0.3791 -0.0622
17692TIP3   OH274490   2.731   2.373  15.338 -0.1094  0.3524 -0.2003
17692TIP3    H174491   2.800   2.417  15.388 -2.4647  2.1555  1.5498
17692TIP3    H274492   2.741   2.280  15.360  0.7151  0.7879  1.3527
17693TIP3   OH274493   4.710   5.159   2.648  0.2410 -0.3710 -0.0554
17693TIP3    H174494   4.689   5.215   2.574 -2.1412 -1.7216 -0.4443
17693TIP3    H274495   4.722   5.072   2.610  0.2071 -0.8395  0.9853
17694TIP3   OH274496   1.358   5.162  16.131  0.1939  0.3231  0.1464
17694TIP3    H174497   1.425   5.116  16.182  0.0814 -1.7272 -1.4808
17694TIP3    H274498   1.302   5.203  16.196  1.6945  0.0977  1.5966
17695TIP3   OH274499   3.310   3.027  15.888  0.0256 -0.0193 -0.8597
17695TIP3    H174500   3.376   3.064  15.829  0.8841 -1.1503 -0.6222
17695TIP3    H274501   3.239   3.000  15.830  0.3457 -0.0220 -1.2529
17696TIP3   OH274502   5.536   6.692   5.142 -0.1268 -0.1144 -0.1657
17696TIP3    H174503   5.476   6.673   5.070 -0.2053 -0.7257  0.0601
17696TIP3    H274504   5.591   6.614   5.149 -0.6605 -0.3951  0.9771
17697TIP3   OH274505   0.667   5.788  13.012  0.1603 -0.3524 -0.2312
17697TIP3    H174506   0.573   5.768  13.014 -0.4657  1.7887 -3.8677
17697TIP3    H274507   0.672   5.881  13.033  1.4212 -0.3233 -0.6295
17698TIP3   OH274508   2.757   4.577  16.376  0.0629  0.1469  0.3915
17698TIP3    H174509   2.742   4.503  16.435  0.2970  0.8879  1.3953
17698TIP3    H274510   2.841   4.613  16.404 -0.9167  1.9232  1.1313
17699TIP3   OH274511   2.746   4.825   3.583 -0.3952  0.4723  0.1433
17699TIP3    H174512   2.722   4.789   3.668  1.1217 -0.0901  0.3569
17699TIP3    H274513   2.667   4.869   3.552 -1.1235  0.2214  1.5996
17700TIP3   OH274514   3.136   6.639   0.868  0.2084 -0.7422  0.6065
17700TIP3    H174515   3.088   6.578   0.813  1.7159 -0.1517 -1.4271
17700TIP3    H274516   3.204   6.674   0.811  0.2897  1.7398  2.1462
17701TIP3   OH274517   4.271   5.633  15.625  0.1206 -1.0102 -0.3564
17701TIP3    H174518   4.184   5.594  15.626 -0.6467  0.6907  0.8028
17701TIP3    H274519   4.289   5.656  15.716  1.8504 -1.4677 -0.5584
17702TIP3   OH274520   5.985   0.853  16.460  0.4014 -0.1002  0.8709
17702TIP3    H174521   5.973   0.764  16.493  2.1761  0.2089  2.4332
17702TIP3    H274522   6.031   0.841  16.376 -1.6805 -0.7503 -0.2091
17703TIP3   OH274523   0.026   5.364   5.352  0.3817 -0.2262  0.2539
17703TIP3    H174524  -0.063   5.376   5.383  0.1438 -0.4215 -0.3497
17703TIP3    H274525   0.026   5.279   5.309  1.0760 -0.6094  1.0006
17704TIP3   OH274526   3.537   5.689   5.353 -0.4303 -0.3618  0.4897
17704TIP3    H174527   3.578   5.771   5.379  1.5424 -0.6351 -1.5621
17704TIP3    H274528   3.573   5.624   5.412  1.5478 -0.4661 -0.7940
17705TIP3   OH274529   3.381   2.746  16.838 -0.3224 -0.3896  0.0378
17705TIP3    H174530   3.443   2.741  16.911  0.6281 -0.4051 -0.7563
17705TIP3    H274531   3.296   2.734  16.879  0.2792 -1.5111  1.0088
17706TIP3   OH274532   5.059   4.691   0.675 -0.2082 -0.1845  0.6943
17706TIP3    H174533   5.056   4.689   0.580  1.9160 -1.2346  0.6061
17706TIP3    H274534   5.077   4.782   0.698 -1.8805  0.2894  0.1567
17707TIP3   OH274535   5.125   5.405   4.372 -0.2501 -0.3708 -0.5376
17707TIP3    H174536   5.136   5.483   4.317  0.8200 -1.4218 -1.8538
17707TIP3    H274537   5.167   5.429   4.455 -1.4840  1.0735 -0.3093
17708TIP3   OH274538   6.495   2.746   4.642 -0.4752 -0.2667  0.1174
17708TIP3    H174539   6.552   2.823   4.645 -1.5392  0.5752 -0.7195
17708TIP3    H274540   6.500   2.709   4.731 -1.4121  1.8435  1.0692
17709TIP3   OH274541   4.413   3.511  16.437 -0.0172 -0.1439  0.0521
17709TIP3    H174542   4.359   3.587  16.416 -1.6186 -1.3821 -0.3463
17709TIP3    H274543   4.496   3.527  16.391  0.0986  1.8946  0.9028
17710TIP3   OH274544   4.004   2.848   2.523  0.2001 -0.2583 -0.3670
17710TIP3    H174545   4.024   2.797   2.601  0.3432 -2.4229 -1.8059
17710TIP3    H274546   3.912   2.827   2.504 -0.4514  1.7809  0.3078
17711TIP3   OH274547   2.024   2.338  14.655  0.4822 -0.2263 -0.0221
17711TIP3    H174548   1.961   2.268  14.670  2.0364 -1.0444  3.1720
17711TIP3    H274549   1.978   2.418  14.680 -0.8635 -0.2098 -2.4289
17712TIP3   OH274550   4.012   5.325   4.839  0.0446 -0.3980  0.0256
17712TIP3    H174551   4.021   5.420   4.828  0.1699 -0.3689  0.3947
17712TIP3    H274552   3.917   5.311   4.847  0.0545 -0.2668  0.3523
17713TIP3   OH274553   4.702   5.849  14.383  0.7188 -0.5605 -0.2156
17713TIP3    H174554   4.792   5.861  14.414 -0.4865  2.0650  2.5616
17713TIP3    H274555   4.697   5.901  14.303  1.2455  0.6795  0.5338
17714TIP3   OH274556   4.941   1.447   3.427  0.1149 -0.3674  0.0828
17714TIP3    H174557   4.859   1.403   3.406  0.2286 -0.3505 -0.3909
17714TIP3    H274558   4.915   1.524   3.478 -0.1534 -0.4156  0.0180
17715TIP3   OH274559   4.375   3.079  16.643 -0.4109  0.0287  0.5613
17715TIP3    H174560   4.318   3.006  16.620  1.3564 -1.2205  0.1175
17715TIP3    H274561   4.392   3.124  16.560 -0.8701  0.5142  0.7235
17716TIP3   OH274562   5.074   1.392  12.190 -0.5407  0.4660  0.3479
17716TIP3    H174563   5.152   1.448  12.183  0.3875 -0.3731  3.4812
17716TIP3    H274564   5.000   1.454  12.184  0.3375  1.4258 -1.1554
17717TIP3   OH274565   2.391   3.193  10.837 -0.4621  0.5808 -0.0854
17717TIP3    H174566   2.322   3.127  10.846 -0.7303  0.9872  0.9226
17717TIP3    H274567   2.354   3.258  10.776 -1.2407  1.1338  0.9621
17718TIP3   OH274568   5.833   3.360  13.631  0.7524  0.1067 -0.0745
17718TIP3    H174569   5.750   3.314  13.641  1.8273 -1.5212  1.5089
17718TIP3    H274570   5.883   3.307  13.568  0.7711  0.8414 -0.6884
17719TIP3   OH274571   1.776   3.122  15.058  0.1302  0.0628 -0.1572
17719TIP3    H174572   1.691   3.081  15.071  0.8309 -0.9703  1.2635
17719TIP3    H274573   1.772   3.159  14.970 -2.0535  0.6997  0.1856
17720TIP3   OH274574   6.540   4.632   2.139 -0.4369  0.1753 -0.2054
17720TIP3    H174575   6.547   4.546   2.096 -1.4302 -0.2834  0.5126
17720TIP3    H274576   6.629   4.651   2.169 -0.3983 -1.1061  0.5547
17721TIP3   OH274577   4.200   4.422   5.644  0.6625  0.3206 -0.3156
17721TIP3    H174578   4.153   4.359   5.699  0.7392 -0.0801 -0.7044
17721TIP3    H274579   4.175   4.508   5.679 -1.4286  0.1795 -1.3388
17722TIP3   OH274580   2.979   5.428   1.180 -0.2927  0.0637 -0.3171
17722TIP3    H174581   3.036   5.352   1.192  0.3033  0.0088 -3.1261
17722TIP3    H274582   3.034   5.503   1.204  0.1499 -0.1675 -0.5970
17723TIP3   OH274583   4.839   4.707   5.371 -0.6800 -0.2442 -0.8256
17723TIP3    H174584   4.859   4.786   5.423  0.1177 -0.4845 -0.7493
17723TIP3    H274585   4.755   4.678   5.404  0.4668 -1.2008  1.3766
17724TIP3   OH274586   0.220   5.994   4.278 -0.1944 -0.0616  0.6484
17724TIP3    H174587   0.314   5.987   4.261  0.0092  2.3129  0.6586
17724TIP3    H274588   0.179   5.950   4.204  0.8964  0.8453 -0.5156
17725TIP3   OH274589   3.557   5.202   2.286 -0.6905  0.4245 -0.1901
17725TIP3    H174590   3.479   5.256   2.272  0.6359  2.5146  0.1767
17725TIP3    H274591   3.590   5.231   2.371 -0.4750 -1.6755  0.4632
17726TIP3   OH274592   0.643   6.503   0.327  0.5892  0.8096 -0.0832
17726TIP3    H174593   0.603   6.587   0.351 -1.6333 -0.5332  1.0544
17726TIP3    H274594   0.672   6.466   0.410 -1.6783 -1.1293 -0.0914
17727TIP3   OH274595   3.311   2.718   4.621 -0.4240  0.2828  0.3330
17727TIP3    H174596   3.333   2.811   4.626  0.3019  0.2447 -1.5949
17727TIP3    H274597   3.395   2.674   4.611 -0.8606 -0.4600 -0.1518
17728TIP3   OH274598   3.828   5.610   6.220 -0.0316  0.3529  0.3164
17728TIP3    H174599   3.918   5.621   6.190 -0.1684  0.2865 -0.1157
17728TIP3    H274600   3.798   5.699   6.237 -0.1578  0.4326 -0.3326
17729TIP3   OH274601   5.931   2.344  16.084 -0.4830  1.2559 -0.0332
17729TIP3    H174602   5.846   2.301  16.094 -0.8304  2.2232  1.3680
17729TIP3    H274603   5.908   2.435  16.061  0.0817  2.2239  3.0465
17730TIP3   OH274604   2.736   5.866  11.083  0.7920  0.0931  0.2344
17730TIP3    H174605   2.725   5.874  10.988 -0.5968  0.4498  0.4193
17730TIP3    H274606   2.702   5.779  11.104  1.6433 -0.2270  0.3427
17731TIP3   OH274607   0.404   6.756   6.288 -0.0490 -0.1605  0.3293
17731TIP3    H174608   0.427   6.731   6.199  3.6235 -2.9850  1.8879
17731TIP3    H274609   0.431   6.847   6.296  1.2563 -0.4095 -0.9679
17732TIP3   OH274610   2.733   0.274  11.345 -0.5522 -0.0321  0.0411
17732TIP3    H174611   2.732   0.278  11.440 -0.5357 -0.0444  0.0416
17732TIP3    H274612   2.641   0.269  11.319 -0.6642  1.9488 -0.0328
17733TIP3   OH274613   1.708   3.523  12.406  0.0669 -0.4072 -0.3654
17733TIP3    H174614   1.763   3.445  12.407  0.9304  0.1862 -0.9659
17733TIP3    H274615   1.741   3.575  12.333  0.4770  1.2156  0.9511
17734TIP3   OH274616   4.325   5.597   3.960 -0.2511 -0.7961 -0.0210
17734TIP3    H174617   4.415   5.598   3.994 -0.4883 -1.0261  0.6117
17734TIP3    H274618   4.275   5.549   4.026 -1.0421  0.2282  0.1443
17735TIP3   OH274619   1.572   3.595   5.511  0.1079  0.3216  0.0750
17735TIP3    H174620   1.489   3.551   5.494  0.0507  0.5100 -0.1401
17735TIP3    H274621   1.613   3.544   5.581  0.3277 -0.4348 -0.6051
17736TIP3   OH274622   1.799   6.675  17.150  0.0199 -0.1481 -0.2712
17736TIP3    H174623   1.795   6.716  17.064 -0.3221  1.9294  0.6981
17736TIP3    H274624   1.750   6.735  17.207 -0.9741 -2.2118  1.0888
17737TIP3   OH274625   1.978   0.815  16.003  0.1320 -0.2563 -0.2448
17737TIP3    H174626   2.024   0.899  16.005  2.6104 -1.5555 -0.8085
17737TIP3    H274627   1.925   0.818  15.923  1.0932  0.3121 -0.8610
17738TIP3   OH274628   4.283   5.167  11.733 -0.2731  0.1273 -0.1708
17738TIP3    H174629   4.352   5.227  11.706  0.6275 -0.6083  0.4377
17738TIP3    H274630   4.329   5.100  11.784 -1.1624 -1.3879 -1.3317
17739TIP3   OH274631   3.319   0.093  13.588  0.2852  0.4684  0.1593
17739TIP3    H174632   3.377   0.017  13.586  1.7424  1.4627  2.4978
17739TIP3    H274633   3.376   0.167  13.609 -1.4413  1.8723  0.0554
17740TIP3   OH274634   5.148   2.273  13.105  0.3806 -0.3720 -0.1677
17740TIP3    H174635   5.091   2.223  13.163  0.2248  2.2508  2.0320
17740TIP3    H274636   5.093   2.295  13.030 -0.5893 -0.3490  0.5577
17741TIP3   OH274637   3.590   5.220   4.689 -0.3573 -0.3716  0.2038
17741TIP3    H174638   3.531   5.164   4.741  0.2580  1.7467  3.3250
17741TIP3    H274639   3.667   5.166   4.675 -0.8875 -1.2939  0.7437
17742TIP3   OH274640   6.051   1.538  14.610 -0.9303 -0.2222  0.2352
17742TIP3    H174641   6.086   1.579  14.690  0.0675  0.4899 -0.5472
17742TIP3    H274642   6.069   1.445  14.622  0.2100 -0.0016  0.3837
17743TIP3   OH274643   5.317   2.949  13.205 -0.3688  0.3827 -0.0759
17743TIP3    H174644   5.375   3.007  13.255 -0.3453  0.5000 -0.2395
17743TIP3    H274645   5.237   3.000  13.192  0.3087  1.0345 -1.7448
17744TIP3   OH274646   5.351   0.704  17.116 -0.2977 -0.2715  0.1809
17744TIP3    H174647   5.403   0.774  17.075 -1.3941 -0.1209 -1.0023
17744TIP3    H274648   5.352   0.633  17.052  0.7937 -1.3442  1.3737
17745TIP3   OH274649   5.838   5.699  13.567 -0.1838  0.4287  0.3677
17745TIP3    H174650   5.880   5.687  13.482  1.6052  0.1612  1.2687
17745TIP3    H274651   5.745   5.689  13.549  0.2040 -0.0257 -1.4959
17746TIP3   OH274652   2.357   4.545  16.019  0.2557  0.7572  0.0558
17746TIP3    H174653   2.304   4.553  16.099  0.3104 -2.3702  0.4669
17746TIP3    H274654   2.447   4.552  16.049  0.2571  0.1861  0.1888
17747TIP3   OH274655   6.375   5.602   2.213 -0.0506 -0.3750 -0.3373
17747TIP3    H174656   6.378   5.624   2.306  0.0956  0.9006 -0.6242
17747TIP3    H274657   6.402   5.683   2.169  0.3682 -1.1219 -1.4679
17748TIP3   OH274658   3.264   1.702   1.682 -0.0400  0.1171 -0.5834
17748TIP3    H174659   3.295   1.782   1.723 -0.8526  0.2519 -0.2285
17748TIP3    H274660   3.259   1.638   1.753  1.0722 -0.3992 -0.9487
17749TIP3   OH274661   0.346   2.064  11.609 -0.0997  0.5067  0.0064
17749TIP3    H174662   0.342   2.051  11.514 -1.1146  0.4011  0.0621
17749TIP3    H274663   0.421   2.012  11.637  1.8442  2.5843 -1.0867
17750TIP3   OH274664   4.901   3.942  13.474  0.5366  0.1957 -0.3811
17750TIP3    H174665   4.945   3.864  13.508  0.1708 -0.6689 -1.8499
17750TIP3    H274666   4.833   3.908  13.415 -0.3041  1.5930 -0.2491
17751TIP3   OH274667   4.072   4.969   2.304  0.3452 -0.0282  0.0079
17751TIP3    H174668   4.107   4.901   2.247  2.3513 -0.4486  1.7011
17751TIP3    H274669   4.067   5.047   2.249  1.1390 -0.7220 -1.0494
17752TIP3   OH274670   0.347   1.731  11.544 -0.1589  1.0865  0.3538
17752TIP3    H174671   0.369   1.671  11.473  1.9419  1.5069  0.6128
17752TIP3    H274672   0.267   1.775  11.514 -1.2638 -1.2076 -0.1915
17753TIP3   OH274673   2.493   3.934   2.125 -0.1907 -0.2709 -0.1604
17753TIP3    H174674   2.584   3.907   2.118 -0.8255 -2.1539 -1.4641
17753TIP3    H274675   2.475   3.931   2.219  0.7672 -1.0354  0.0083
17754TIP3   OH274676   6.428   2.751   5.710  0.6132  0.0714 -0.4876
17754TIP3    H174677   6.369   2.748   5.785 -1.1621  1.0695 -1.8048
17754TIP3    H274678   6.492   2.681   5.726 -1.4608 -1.6388  0.5332
17755TIP3   OH274679   0.941   5.852   0.665  0.1448  0.0378  0.1639
17755TIP3    H174680   0.914   5.856   0.756  2.9918  1.9165  0.9879
17755TIP3    H274681   0.873   5.901   0.618 -0.9202 -0.2550  1.3643
17756TIP3   OH274682   3.293   1.247  15.151 -0.1106  0.1677  0.5239
17756TIP3    H174683   3.264   1.252  15.059 -0.9458 -1.9937  0.6388
17756TIP3    H274684   3.361   1.314  15.158  0.3010  0.0578 -1.8030
17757TIP3   OH274685   5.388   0.514   2.522 -0.7363  0.1297  0.6483
17757TIP3    H174686   5.315   0.477   2.572  0.1435 -1.0856  1.0711
17757TIP3    H274687   5.353   0.526   2.434 -1.3151 -0.8897  0.7301
17758TIP3   OH274688   2.313   2.354   5.643 -0.2690  0.4084 -0.3232
17758TIP3    H174689   2.361   2.302   5.707  0.2976  0.7879 -0.4368
17758TIP3    H274690   2.378   2.413   5.606 -0.3332 -0.5691 -2.0647
17759TIP3   OH274691   2.372   1.646  12.604  0.2652  0.0735  0.6708
17759TIP3    H174692   2.466   1.642  12.586 -0.0248  0.0477 -0.9287
17759TIP3    H274693   2.345   1.732  12.571 -0.2318  0.1940  1.3796
17760TIP3   OH274694   4.197   0.236   3.781  0.5480 -0.1250  0.0886
17760TIP3    H174695   4.135   0.209   3.849  0.6033 -1.4842 -0.3826
17760TIP3    H274696   4.144   0.280   3.715  0.4223  0.7549  0.7695
17761TIP3   OH274697   3.705   1.731   5.983 -0.5104 -0.1210  0.5449
17761TIP3    H174698   3.724   1.800   6.046  3.0276  0.6942 -1.2594
17761TIP3    H274699   3.783   1.675   5.983 -0.5008 -0.2577 -2.7914
17762TIP3   OH274700   6.665   4.041   0.358 -0.1838  0.9264  0.1753
17762TIP3    H174701   6.746   3.989   0.355 -0.7121  0.0635  0.5865
17762TIP3    H274702   6.643   4.056   0.266  0.9353  1.9610  0.0581
17763TIP3   OH274703   3.354   4.901  12.422 -0.2915 -0.1157 -0.1011
17763TIP3    H174704   3.373   4.938  12.509  0.6304  0.6291 -0.6180
17763TIP3    H274705   3.354   4.806  12.436  0.0699 -0.0073  0.6695
17764TIP3   OH274706   1.170   3.757  13.380 -0.3259  0.4592  0.4984
17764TIP3    H174707   1.128   3.824  13.435  1.3512  2.2638 -0.3405
17764TIP3    H274708   1.231   3.807  13.325  0.5036 -1.7122 -0.5915
17765TIP3   OH274709   3.928   0.741  13.478  0.4076  0.2519 -0.1705
17765TIP3    H174710   3.946   0.734  13.572  1.7634  0.5834 -0.3857
17765TIP3    H274711   3.847   0.692  13.465  1.0947 -1.2005  0.9021
17766TIP3   OH274712   0.181   5.675  16.357  0.0392  0.3507  0.2655
17766TIP3    H174713   0.120   5.622  16.408 -0.6713  0.2427 -0.6603
17766TIP3    H274714   0.129   5.752  16.332  0.8011  1.0722  0.8875
17767TIP3   OH274715   2.863   2.005   6.486 -0.4671 -0.1758  0.1550
17767TIP3    H174716   2.832   2.021   6.575  0.2196  2.2394 -0.0151
17767TIP3    H274717   2.958   2.020   6.490 -0.5003  0.4817 -1.0738
17768TIP3   OH274718   4.286   5.313  13.526  0.2661  0.2473  0.3524
17768TIP3    H174719   4.326   5.400  13.522 -0.3831  0.5845  1.0048
17768TIP3    H274720   4.254   5.297  13.438  1.2268  0.2723  0.0016
17769TIP3   OH274721   6.054   4.948  12.152 -0.4667 -0.4106  0.8480
17769TIP3    H174722   6.069   5.022  12.093 -0.0042  0.0082  1.4876
17769TIP3    H274723   6.085   4.872  12.103  0.2547 -0.0179  0.6933
17770TIP3   OH274724   1.796   1.408  15.343  0.5791  0.0502 -0.4460
17770TIP3    H174725   1.766   1.318  15.351 -1.4253  0.6812 -0.5678
17770TIP3    H274726   1.821   1.416  15.251  1.1356 -0.4834 -0.3454
17771TIP3   OH274727   0.195   4.126  11.221  0.3898 -0.5860  0.5202
17771TIP3    H174728   0.282   4.117  11.261  1.0125  0.1716 -0.6317
17771TIP3    H274729   0.211   4.112  11.127 -1.1432 -2.9810  0.5796
17772TIP3   OH274730   0.486   3.716  15.545 -0.0580  0.6931  0.1204
17772TIP3    H174731   0.448   3.799  15.572 -1.4630 -0.5254  2.0492
17772TIP3    H274732   0.522   3.679  15.626 -0.3478 -1.0254 -0.5172
17773TIP3   OH274733   4.645   3.027  11.750 -0.3476 -0.2273 -0.0553
17773TIP3    H174734   4.632   3.092  11.819  0.7411 -0.1244  0.0598
17773TIP3    H274735   4.729   2.986  11.771 -0.8639 -1.4500 -0.3127
17774TIP3   OH274736   1.377   1.128   2.647 -0.1387 -0.1087  0.3619
17774TIP3    H174737   1.317   1.200   2.627  1.1077  1.2981  1.6131
17774TIP3    H274738   1.335   1.079   2.717 -0.7095 -0.2421 -0.0756
17775TIP3   OH274739   5.291   4.238   0.816 -0.5249 -0.2004 -0.0251
17775TIP3    H174740   5.244   4.191   0.747 -1.1314 -0.0123  0.2552
17775TIP3    H274741   5.232   4.309   0.841 -0.1030  0.0168  0.3530
17776TIP3   OH274742   2.013   1.921  13.716 -0.1993 -0.2376  0.0006
17776TIP3    H174743   2.106   1.938  13.728 -0.0950 -0.5335 -0.3963
17776TIP3    H274744   1.993   1.954  13.628 -0.4898 -0.0942  0.1156
17777TIP3   OH274745   6.169   3.754  16.313 -0.6977 -0.5717  0.6445
17777TIP3    H174746   6.166   3.688  16.243  0.7975 -0.1537  0.1649
17777TIP3    H274747   6.122   3.829  16.276  0.9373  0.0098 -0.3393
17778TIP3   OH274748   3.389   3.548   1.782  0.0694 -0.3346 -0.0797
17778TIP3    H174749   3.300   3.574   1.757 -1.4480 -2.2786  3.0102
17778TIP3    H274750   3.392   3.454   1.766  1.5468 -0.3109  0.0058
17779TIP3   OH274751   4.684   4.288  10.999  0.0744 -0.3283  0.0560
17779TIP3    H174752   4.714   4.378  11.015 -0.4518 -0.3010  0.9129
17779TIP3    H274753   4.601   4.299  10.953  1.5080 -0.4046 -2.6383
17780TIP3   OH274754   3.267   4.411  11.570 -0.0301 -0.2738 -0.0860
17780TIP3    H174755   3.344   4.377  11.524 -0.2742 -1.3149  0.2421
17780TIP3    H274756   3.302   4.474  11.633  0.5122 -0.3672 -0.2929
17781TIP3   OH274757   4.605   3.317   1.368  0.2057  0.9344  0.2500
17781TIP3    H174758   4.659   3.375   1.314  2.3585  1.0993  2.5075
17781TIP3    H274759   4.625   3.343   1.458 -1.3880 -1.0483  1.2098
17782TIP3   OH274760   6.781   0.911  17.059  0.2057  0.3854 -0.4796
17782TIP3    H174761   6.776   0.953  17.145 -0.9410  0.2014 -0.4423
17782TIP3    H274762   6.870   0.929  17.028  1.0440 -0.5787  1.2712
17783TIP3   OH274763   5.573   5.555  15.637  0.0405 -1.0096 -0.2873
17783TIP3    H174764   5.561   5.563  15.732  0.3830 -0.0168 -0.3149
17783TIP3    H274765   5.484   5.546  15.603  0.0129 -2.9787  0.2427
17784TIP3   OH274766   6.070   1.114  13.398 -0.1101  0.1530  0.2331
17784TIP3    H174767   6.032   1.188  13.445  0.4535  0.1873  0.6524
17784TIP3    H274768   6.164   1.121  13.415 -0.0263 -0.5165  0.0659
17785TIP3   OH274769   2.595   0.887   6.380 -0.2079 -0.1034  0.7048
17785TIP3    H174770   2.526   0.864   6.442  0.6336 -0.1037  1.6366
17785TIP3    H274771   2.547   0.906   6.299 -1.1628 -1.8693  0.8305
17786TIP3   OH274772   2.521   4.406   0.434  0.0899  0.4969  0.2354
17786TIP3    H174773   2.455   4.462   0.392 -1.3118  0.2430  2.0034
17786TIP3    H274774   2.471   4.330   0.465  1.6217 -0.7722 -0.3285
17787TIP3   OH274775   0.194   1.614  16.952  0.1231  0.4151 -0.3437
17787TIP3    H174776   0.128   1.595  16.885 -0.5434  1.6310 -0.0643
17787TIP3    H274777   0.150   1.675  17.011  1.2234  0.5595  0.3408
17788TIP3   OH274778   2.213   0.121   1.986  0.0004 -0.5045  0.0660
17788TIP3    H174779   2.178   0.099   1.900 -0.0364  0.7059 -0.2375
17788TIP3    H274780   2.168   0.202   2.011  2.8824  1.3927 -0.5664
17789TIP3   OH274781   4.936   3.813   5.598  0.1720  0.3785  0.1267
17789TIP3    H174782   4.987   3.893   5.583 -0.8294  0.8790 -0.6324
17789TIP3    H274783   4.976   3.774   5.676 -0.2676  2.4189  1.4290
17790TIP3   OH274784   2.280   2.937  17.100  0.1780  0.6373  0.2924
17790TIP3    H174785   2.219   2.872  17.065 -0.2675  1.0077  0.3783
17790TIP3    H274786   2.330   2.966  17.024 -1.0174  1.6861 -0.1030
17791TIP3   OH274787   1.570   2.522   4.244  0.4960  0.4470  0.2208
17791TIP3    H174788   1.609   2.580   4.179 -0.5672 -0.9780 -1.7397
17791TIP3    H274789   1.476   2.531   4.231  0.3075 -1.3161  0.2336
17792TIP3   OH274790   2.911   2.084   4.231 -0.1103  0.0672  0.1030
17792TIP3    H174791   2.822   2.077   4.267 -0.3488  2.1148 -0.0419
17792TIP3    H274792   2.968   2.057   4.302 -0.7657  0.4196  0.7723
17793TIP3   OH274793   4.360   1.309   0.502  0.2302  0.1617  0.1522
17793TIP3    H174794   4.337   1.230   0.551  0.3952 -1.1252 -1.7675
17793TIP3    H274795   4.279   1.335   0.459  0.7580 -0.5156 -1.3045
17794TIP3   OH274796   1.977   3.518  12.721 -0.2269 -0.3241  0.1035
17794TIP3    H174797   2.007   3.609  12.729  0.5974 -0.4907 -0.9382
17794TIP3    H274798   1.980   3.500  12.627 -0.3903 -1.4219  0.3009
17795TIP3   OH274799   1.308   3.569  12.444  0.2850 -0.3217  0.2977
17795TIP3    H174800   1.382   3.625  12.421 -1.0236  1.4382  0.2625
17795TIP3    H274801   1.252   3.569  12.366  0.3337 -1.7697  0.2623
17796TIP3   OH274802   4.311   0.788   3.824 -0.3869  0.0315  0.3802
17796TIP3    H174803   4.272   0.876   3.834 -1.4793 -0.5142  1.0192
17796TIP3    H274804   4.384   0.801   3.764 -2.2064  0.9059 -1.7254
17797TIP3   OH274805   5.725   3.048   1.347  0.0278 -0.1179 -0.3196
17797TIP3    H174806   5.633   3.067   1.331 -0.0930  0.0955  0.5938
17797TIP3    H274807   5.770   3.131   1.332  0.4026 -0.7824 -3.1588
17798TIP3   OH274808   3.505   4.415   1.074 -0.5807  0.7981  0.1884
17798TIP3    H174809   3.574   4.471   1.038  1.7613 -1.8887  0.3265
17798TIP3    H274810   3.534   4.396   1.163 -0.1166 -2.3989 -0.5630
17799TIP3   OH274811   3.402   2.632  13.958 -0.0573 -0.1809  0.3238
17799TIP3    H174812   3.318   2.662  13.995  0.0511 -0.2414  0.6158
17799TIP3    H274813   3.467   2.691  13.996 -0.1103  0.6979 -0.9000
17800TIP3   OH274814   4.275   1.084   5.762  0.1008  0.2016  0.1931
17800TIP3    H174815   4.348   1.023   5.767  0.7831  1.0015  0.1319
17800TIP3    H274816   4.203   1.040   5.807  0.9191 -0.1597  1.1549
17801TIP3   OH274817   5.084   1.120  10.536  0.3005 -0.1844  0.2451
17801TIP3    H174818   5.015   1.119  10.603  0.7211  2.8599  0.8030
17801TIP3    H274819   5.053   1.059  10.469 -2.2668  0.0332  1.1609
17802TIP3   OH274820   5.150   1.654  15.458  0.3279  0.0209 -0.1864
17802TIP3    H174821   5.221   1.709  15.426  0.2002  0.7401  0.7387
17802TIP3    H274822   5.156   1.659  15.553  0.3259 -1.5912 -0.0911
17803TIP3   OH274823   2.030   1.247  15.193  0.4849  0.1583  0.9392
17803TIP3    H174824   1.962   1.293  15.144  0.0534 -1.8798 -0.4531
17803TIP3    H274825   2.094   1.221  15.126  0.6721 -1.3053  1.6803
17804TIP3   OH274826   1.762   4.692  17.229  0.6314  0.1441  0.3374
17804TIP3    H174827   1.802   4.609  17.204 -0.7795 -0.1485 -1.0316
17804TIP3    H274828   1.685   4.666  17.280  0.0039  0.5884 -0.3723
17805TIP3   OH274829   5.705   0.116   4.819 -0.1315 -0.0339  0.0059
17805TIP3    H174830   5.729   0.042   4.764  0.0359  0.6859 -0.8890
17805TIP3    H274831   5.617   0.141   4.790 -0.1417  0.2006  0.2307
17806TIP3   OH274832   4.118   5.244  14.657 -0.1718 -0.1055 -0.3871
17806TIP3    H174833   4.055   5.173  14.643 -0.0970  0.2756 -2.9301
17806TIP3    H274834   4.108   5.300  14.580 -0.9718  3.2288  2.0552
17807TIP3   OH274835   2.475   2.577  13.073 -0.9471 -0.2146 -0.6910
17807TIP3    H174836   2.400   2.519  13.065 -1.9202  1.0206 -0.6517
17807TIP3    H274837   2.462   2.644  13.006 -1.2224  1.4670  1.0064
17808TIP3   OH274838   6.418   1.877   1.221  0.2916 -0.5812  0.0345
17808TIP3    H174839   6.392   1.892   1.312 -0.3195  1.7921 -0.4844
17808TIP3    H274840   6.513   1.867   1.225  0.1813 -1.4005  1.0177
17809TIP3   OH274841   5.968   2.538  12.310 -0.1654  0.1404 -0.8434
17809TIP3    H174842   5.936   2.607  12.368 -0.6021 -0.2460 -0.6174
17809TIP3    H274843   5.999   2.469  12.368  0.2548  0.1374 -1.0699
17810TIP3   OH274844   5.403   5.279  15.666 -0.0235 -0.1204  0.6087
17810TIP3    H174845   5.337   5.213  15.645  1.2561 -1.7044  1.4787
17810TIP3    H274846   5.435   5.254  15.753  1.0957  1.1512  0.5839
17811TIP3   OH274847   4.504   4.734  10.910  0.5044 -0.3192 -0.4783
17811TIP3    H174848   4.463   4.682  10.979 -1.7164 -1.1224 -2.3335
17811TIP3    H274849   4.503   4.823  10.943 -1.8133 -0.4878  0.0054
17812TIP3   OH274850   6.192   4.418  15.149 -0.0079 -0.5354 -0.7552
17812TIP3    H174851   6.133   4.387  15.080  0.1207 -2.8396  0.1256
17812TIP3    H274852   6.175   4.512  15.154 -2.8635 -0.9572 -1.2553
17813TIP3   OH274853   3.447   6.606  16.276 -0.1345 -0.2074  0.3190
17813TIP3    H174854   3.364   6.559  16.277 -0.5851  0.5386 -0.7318
17813TIP3    H274855   3.469   6.615  16.184  0.2671  1.0614  0.5240
17814TIP3   OH274856   2.778   5.443   4.693 -0.2893 -0.3813  0.0479
17814TIP3    H174857   2.726   5.482   4.623  1.7670  0.7028 -0.9338
17814TIP3    H274858   2.793   5.515   4.755 -1.1685 -1.0531  1.0684
17815TIP3   OH274859   1.579   1.820   6.084 -0.6516 -0.1962  0.4376
17815TIP3    H174860   1.655   1.875   6.107 -0.8631  0.2301  0.1247
17815TIP3    H274861   1.541   1.796   6.168  0.2905 -1.0695  0.6272
17816TIP3   OH274862   3.997   3.409  13.486 -0.6351 -0.2254  0.3113
17816TIP3    H174863   4.073   3.385  13.433  0.4673 -1.2887  2.2874
17816TIP3    H274864   3.925   3.414  13.424  1.1058  1.1897 -1.6678
17817TIP3   OH274865   4.008   6.150  11.545 -0.3022  0.3916  0.1328
17817TIP3    H174866   3.952   6.222  11.573  0.9771  1.6676 -0.5260
17817TIP3    H274867   3.951   6.073  11.546 -1.9624  1.5922 -0.1689
17818TIP3   OH274868   0.047   6.093   5.398 -0.7670  0.0406  0.0962
17818TIP3    H174869   0.057   6.016   5.454 -1.7283 -1.6062 -1.9456
17818TIP3    H274870  -0.044   6.090   5.369 -0.4615  1.2546 -1.0297
17819TIP3   OH274871   5.025   2.520  13.662  0.0458 -0.1044  0.2999
17819TIP3    H174872   5.005   2.595  13.607  1.8543  1.6083  1.8947
17819TIP3    H274873   4.946   2.506  13.713 -0.8933 -0.3739 -1.1959
17820TIP3   OH274874   3.012   5.525  13.710  0.2824  0.0091  0.5548
17820TIP3    H174875   3.045   5.437  13.726 -2.6666 -2.0176 -3.3865
17820TIP3    H274876   2.928   5.529  13.756  0.4332  0.7576  0.7761
17821TIP3   OH274877   6.149   1.766  16.089  0.2749 -0.2348 -0.5228
17821TIP3    H174878   6.074   1.801  16.042  1.0447  2.1396 -0.0552
17821TIP3    H274879   6.111   1.708  16.156 -1.1105  0.8238 -0.3806
17822TIP3   OH274880   4.967   2.841   5.274 -0.2562 -0.1981 -0.2936
17822TIP3    H174881   5.054   2.837   5.313 -0.5134  1.9038  0.5713
17822TIP3    H274882   4.979   2.894   5.195 -0.8187  0.5075  0.0839
17823TIP3   OH274883   0.856   6.316  14.198  0.1119 -0.8258 -0.0024
17823TIP3    H174884   0.818   6.358  14.121  1.6026  0.1072 -0.2611
17823TIP3    H274885   0.935   6.273  14.165  1.0371  0.0026  1.0794
17824TIP3   OH274886   5.705   0.995   1.924  0.2389  0.2263 -0.0459
17824TIP3    H174887   5.717   0.912   1.877 -0.5523  0.5414 -0.8225
17824TIP3    H274888   5.651   0.972   2.000 -0.3907  0.1138 -0.5245
17825TIP3   OH274889   5.476   3.473   2.746  0.3534  0.6333 -0.2964
17825TIP3    H174890   5.560   3.486   2.703  0.9216  2.0915  1.2305
17825TIP3    H274891   5.488   3.396   2.800  0.4051  0.2734 -0.8161
17826TIP3   OH274892   5.289   5.395   4.632 -0.3249  0.5358 -0.1162
17826TIP3    H174893   5.362   5.455   4.645 -0.0403 -0.3820  2.8683
17826TIP3    H274894   5.215   5.437   4.676 -1.3611  0.9359 -2.1684
17827TIP3   OH274895   6.242   3.701  12.026  0.5033 -0.1146 -0.1127
17827TIP3    H174896   6.327   3.684  11.984  1.4531 -0.0996  1.7471
17827TIP3    H274897   6.181   3.642  11.982  2.0681 -2.2716  0.5115
17828TIP3   OH274898   0.117   4.995  13.203 -0.1481  0.3025  0.2592
17828TIP3    H174899   0.135   4.910  13.242 -0.2600 -0.0335 -0.4171
17828TIP3    H274900   0.162   5.058  13.259  1.2800 -0.3376 -0.1596
17829TIP3   OH274901   6.121   1.463   1.480  0.0009 -0.3051  0.0729
17829TIP3    H174902   6.059   1.527   1.517  0.0429 -0.8091  1.0497
17829TIP3    H274903   6.076   1.379   1.488  0.4039 -0.5417 -0.1493
17830TIP3   OH274904   6.153   3.699  11.137  0.3903 -0.5287 -0.0578
17830TIP3    H174905   6.102   3.642  11.080  0.2318  0.6069 -1.0669
17830TIP3    H274906   6.090   3.732  11.201  0.0341  0.1555 -0.7518
17831TIP3   OH274907   5.274   1.510   5.476  0.2156 -0.1510  0.3948
17831TIP3    H174908   5.357   1.555   5.490 -0.0958  0.5553  0.0216
17831TIP3    H274909   5.224   1.526   5.556  0.2089 -0.0593  0.3730
17832TIP3   OH274910   1.935   4.556  14.284 -0.2143 -0.2663 -0.3306
17832TIP3    H174911   1.875   4.579  14.355 -0.3306 -2.8810  0.4663
17832TIP3    H274912   1.975   4.474  14.312  1.5228 -0.1034 -2.2232
17833TIP3   OH274913   5.969   2.137  14.917 -0.6839  0.6314  0.2579
17833TIP3    H174914   5.985   2.059  14.970 -0.9493  1.0972  1.0417
17833TIP3    H274915   5.936   2.103  14.833  0.1611 -0.1293  0.2308
17834TIP3   OH274916   1.396   0.031   1.779  0.6962 -0.4366 -0.1190
17834TIP3    H174917   1.417   0.081   1.858 -1.7895  0.8055 -0.1991
17834TIP3    H274918   1.301   0.038   1.771  0.5853 -3.1138 -1.5375
17835TIP3   OH274919   4.054   1.421  15.932 -0.6078 -0.4007  0.1564
17835TIP3    H174920   4.047   1.431  16.027 -1.6954 -0.1460  0.0543
17835TIP3    H274921   4.040   1.509  15.898  1.2439 -0.2230 -0.1760
17836TIP3   OH274922   2.107   1.786   3.916  0.5069  0.0419 -0.1685
17836TIP3    H174923   2.046   1.712   3.924  0.3714 -0.0474 -1.9085
17836TIP3    H274924   2.190   1.746   3.891  0.6100  0.4161 -0.4169
17837TIP3   OH274925   0.154   2.925   5.494 -0.4171  0.2819  0.2781
17837TIP3    H174926   0.147   3.019   5.512 -0.9593  0.1568  0.7138
17837TIP3    H274927   0.169   2.920   5.399 -0.6795  0.7984  0.2071
17838TIP3   OH274928   6.197   1.116  16.455  0.2672 -0.6110  0.0579
17838TIP3    H174929   6.118   1.161  16.485 -0.1022 -0.5167 -1.0306
17838TIP3    H274930   6.257   1.122  16.530 -0.4974 -0.0737  0.6496
17839TIP3   OH274931   2.120   6.621   6.015 -0.3369  0.2048 -0.2258
17839TIP3    H174932   2.090   6.671   6.091  1.1132  1.2240 -0.3070
17839TIP3    H274933   2.067   6.541   6.017 -1.6784  1.0900  0.7247
17840TIP3   OH274934   6.181   4.644   1.688  0.0779 -0.2246 -0.6518
17840TIP3    H174935   6.263   4.651   1.737  0.3392 -0.7644 -0.9981
17840TIP3    H274936   6.130   4.580   1.737  0.5750 -1.2118 -1.3815
17841TIP3   OH274937   4.332   3.973  14.794  0.2511  0.4462 -0.3619
17841TIP3    H174938   4.303   4.003  14.880  1.3081  1.3909 -0.3246
17841TIP3    H274939   4.366   4.052  14.751  1.8491 -0.4327 -0.7659
17842TIP3   OH274940   4.097   4.569  11.071  0.1460 -0.1701 -0.0403
17842TIP3    H174941   4.045   4.529  11.001  1.2737 -1.1582 -0.3046
17842TIP3    H274942   4.083   4.513  11.147  0.3525 -0.0889  0.0569
17843TIP3   OH274943   2.891   0.024  12.797 -0.0590 -0.0506  0.1103
17843TIP3    H174944   2.912   0.051  12.708 -0.4480  2.6790  0.8222
17843TIP3    H274945   2.977   0.007  12.837  0.0875 -2.1478 -0.9848
17844TIP3   OH274946   6.230   2.733  10.898  0.1274  0.5471  0.0641
17844TIP3    H174947   6.170   2.773  10.962  2.0829  0.3937  2.0616
17844TIP3    H274948   6.172   2.690  10.835 -1.9447  3.2957 -0.0430
17845TIP3   OH274949   6.626   0.812  13.065  0.1598 -0.3054 -1.0715
17845TIP3    H174950   6.686   0.750  13.024  0.4784 -1.4854  1.0699
17845TIP3    H274951   6.683   0.874  13.110 -0.1106 -2.2820  2.2182
17846TIP3   OH274952   0.881   3.581   2.969 -0.1215 -0.0754  0.2427
17846TIP3    H174953   0.816   3.528   3.015  0.2061 -0.1733  0.5988
17846TIP3    H274954   0.938   3.615   3.038 -0.5602  1.0704  0.0533
17847TIP3   OH274955   5.854   3.350  11.968  0.2382 -0.6270  0.4299
17847TIP3    H174956   5.853   3.262  12.007 -0.0051 -0.3761  0.9935
17847TIP3    H274957   5.821   3.337  11.879 -0.2793 -1.0261  0.6802
17848TIP3   OH274958   6.263   3.842   2.293 -0.0225 -0.0428  0.2129
17848TIP3    H174959   6.288   3.910   2.230 -1.7113  0.8376  0.4581
17848TIP3    H274960   6.180   3.807   2.259 -0.3122 -0.4271  1.2852
17849TIP3   OH274961   1.765   3.716  14.027  0.5267  0.1736 -0.8948
17849TIP3    H174962   1.861   3.723  14.030  0.6891 -1.7917 -0.7604
17849TIP3    H274963   1.742   3.677  14.111 -0.1979 -1.2657 -1.7520
17850TIP3   OH274964   4.761   5.407  15.871 -0.3900  0.0179  0.2650
17850TIP3    H174965   4.671   5.376  15.884 -0.8727  1.0918 -0.3297
17850TIP3    H274966   4.754   5.466  15.795  0.4968  1.4147  1.2519
17851TIP3   OH274967   3.116   3.351  15.796 -0.6330  0.2434  0.6486
17851TIP3    H174968   3.131   3.312  15.881  0.1680  2.3427  1.5109
17851TIP3    H274969   3.202   3.381  15.767 -0.9186 -0.3288 -0.8399
17852TIP3   OH274970   6.527   6.288  12.504  0.2933  0.0346 -1.0802
17852TIP3    H174971   6.589   6.215  12.507  1.0738  0.7599  2.8250
17852TIP3    H274972   6.574   6.357  12.456  2.3618  0.3894  1.3742
17853TIP3   OH274973   5.010   0.717   4.414 -0.1620  0.3025 -0.4218
17853TIP3    H174974   5.017   0.637   4.467 -0.6105  0.0443 -0.7541
17853TIP3    H274975   5.062   0.698   4.336 -1.9486 -0.4422 -1.4514
17854TIP3   OH274976   3.845   0.066  12.055 -0.0897 -0.7301 -0.6157
17854TIP3    H174977   3.823  -0.016  12.011 -2.4176 -0.8063  0.6161
17854TIP3    H274978   3.800   0.133  12.005 -2.1933 -0.7461  1.1675
17855TIP3   OH274979   3.485   6.655   3.256 -0.3920  0.6409 -0.3037
17855TIP3    H174980   3.528   6.571   3.242  1.2143  1.3593  0.1226
17855TIP3    H274981   3.400   6.646   3.215 -1.3175 -2.1251  2.0745
17856TIP3   OH274982   5.962   2.385  11.337  0.1132  0.1601 -0.8732
17856TIP3    H174983   6.052   2.366  11.362  0.1357  0.5802 -0.6430
17856TIP3    H274984   5.914   2.305  11.360  0.3444  0.1013 -0.5873
17857TIP3   OH274985   0.549   1.517   3.650 -0.5163 -0.0579  0.1117
17857TIP3    H174986   0.604   1.523   3.572 -0.9861  2.6325 -0.0350
17857TIP3    H274987   0.598   1.458   3.708  2.1462  1.6037 -0.3540
17858TIP3   OH274988   0.953   2.814  15.034  0.5679  0.0703 -0.4858
17858TIP3    H174989   0.888   2.766  14.983  0.0237 -0.0973  0.3586
17858TIP3    H274990   0.927   2.906  15.026  1.6065  0.2510 -2.1003
17859TIP3   OH274991   3.605   3.282  14.010  0.5678 -0.0625 -0.7118
17859TIP3    H174992   3.675   3.345  14.026  0.8722 -1.1120  2.3524
17859TIP3    H274993   3.532   3.336  13.979  0.3470  2.1372  3.2083
17860TIP3   OH274994   4.631   0.785  14.780  0.0854 -0.0936  0.1182
17860TIP3    H174995   4.586   0.855  14.827 -0.6707  1.1862 -2.4105
17860TIP3    H274996   4.619   0.807  14.687  3.8992 -1.0069 -0.6857
17861TIP3   OH274997   2.562   6.548   2.921  0.3196  0.6835  0.7730
17861TIP3    H174998   2.553   6.586   3.008 -1.1443  2.0701  0.0626
17861TIP3    H274999   2.472   6.526   2.895  0.6448  0.9988 -0.6900
17862TIP3   OH275000   0.632   3.448  14.512  0.0278 -0.2130  0.2990
17862TIP3    H175001   0.589   3.390  14.449  1.0810 -0.4109 -0.2471
17862TIP3    H275002   0.597   3.421  14.597  0.9279 -2.0123  0.1054
17863TIP3   OH275003   0.516   2.067  16.292 -0.5982  0.2582 -0.3227
17863TIP3    H175004   0.430   2.027  16.308 -0.5525  0.3823  0.2346
17863TIP3    H275005   0.579   1.998  16.314 -0.5216  0.6107  0.5613
17864TIP3   OH275006   2.187   5.583  12.863 -0.0325 -0.1805 -0.1661
17864TIP3    H175007   2.133   5.582  12.783  0.5338 -3.6382 -0.5678
17864TIP3    H275008   2.252   5.651  12.847 -1.7944  1.2756 -1.3559
17865TIP3   OH275009   2.366   5.387  12.975 -0.0150  0.1108 -0.3472
17865TIP3    H175010   2.317   5.318  13.020 -1.9082  2.9678  2.1447
17865TIP3    H275011   2.313   5.406  12.897 -1.1898  0.9505  0.6459
17866TIP3   OH275012   5.771   3.444   4.214 -0.0471  0.8003  0.2324
17866TIP3    H175013   5.787   3.349   4.218  1.9881  1.1089 -0.2093
17866TIP3    H275014   5.829   3.481   4.280 -0.4292  1.8129  0.0099
17867TIP3   OH275015   0.398   0.563  14.574  0.3727  0.2458 -0.3949
17867TIP3    H175016   0.308   0.591  14.560 -0.2203 -1.8874 -1.0722
17867TIP3    H275017   0.451   0.627  14.526 -0.8605  0.7847 -1.0639
17868TIP3   OH275018   6.137   0.754  17.119  0.5578 -0.1559 -0.0285
17868TIP3    H175019   6.189   0.683  17.155  1.1305  0.2332 -0.0796
17868TIP3    H275020   6.072   0.711  17.064  1.0649 -0.6247 -0.2630
17869TIP3   OH275021   4.250   3.389  12.278  0.2863 -0.1815 -0.2173
17869TIP3    H175022   4.307   3.453  12.237 -0.0393  1.2896  1.5539
17869TIP3    H275023   4.265   3.401  12.372 -2.1006 -0.5452  0.2362
17870TIP3   OH275024   0.214   0.825  16.404 -0.4652  0.0185  0.5283
17870TIP3    H175025   0.279   0.872  16.352 -1.3286  1.4103  0.6791
17870TIP3    H275026   0.264   0.792  16.479  0.0405  1.2816  0.7712
17871TIP3   OH275027   3.556   5.252  11.758 -0.4370 -0.3378  0.1014
17871TIP3    H175028   3.624   5.287  11.700  1.4278 -0.1297  2.3468
17871TIP3    H275029   3.509   5.330  11.789 -1.1024 -0.4098 -0.7236
17872TIP3   OH275030   5.379   6.268  12.335  0.6853 -0.3173 -0.2929
17872TIP3    H175031   5.433   6.261  12.256  2.1501  1.0007  0.5441
17872TIP3    H275032   5.442   6.264  12.407 -0.1474  2.6817  0.6834
17873TIP3   OH275033   2.348   0.099   1.273  0.0345 -0.2008 -0.1919
17873TIP3    H175034   2.313   0.037   1.337  1.2850 -0.6156  0.1072
17873TIP3    H275035   2.414   0.149   1.322 -1.1030  1.5052 -0.3813
17874TIP3   OH275036   4.336   3.782  10.796 -0.4839 -0.3128 -0.2417
17874TIP3    H175037   4.410   3.842  10.782 -1.3487  0.8351 -0.0136
17874TIP3    H275038   4.259   3.838  10.790 -1.3210 -1.4378 -0.1139
17875TIP3   OH275039   2.860   6.467   1.729  0.6857 -0.7109 -0.1861
17875TIP3    H175040   2.826   6.380   1.749  0.0865 -0.4607 -0.1136
17875TIP3    H275041   2.942   6.450   1.684  0.6313 -1.3150 -0.0666
17876TIP3   OH275042   3.952   4.796  11.644  0.2472  0.3495  0.0508
17876TIP3    H175043   4.008   4.725  11.612  0.5696  1.4267 -1.8882
17876TIP3    H275044   4.014   4.857  11.684  0.2985  0.7594 -0.6326
17877TIP3   OH275045   4.219   1.368  16.308  0.6515  0.1340  0.6401
17877TIP3    H175046   4.278   1.367  16.384  2.1482  0.7302 -0.4949
17877TIP3    H275047   4.264   1.423  16.244 -0.1780 -1.0796 -1.0074
17878TIP3   OH275048   1.171   4.268   6.002 -0.7779  0.8338  0.4620
17878TIP3    H175049   1.122   4.299   6.078  0.2082  1.5922  0.8043
17878TIP3    H275050   1.251   4.230   6.039 -0.5783  0.6457 -0.1611
17879TIP3   OH275051   6.484   1.231   0.436 -0.2604 -0.3805  0.1126
17879TIP3    H175052   6.560   1.240   0.494 -0.0550  1.4529 -0.4097
17879TIP3    H275053   6.522   1.217   0.349 -0.4389  2.3163 -0.4505
17880TIP3   OH275054   2.957   4.055  14.258 -0.3656 -0.2155 -0.0859
17880TIP3    H175055   2.973   3.961  14.260  3.7639  0.3826 -0.2893
17880TIP3    H275056   2.978   4.085  14.347 -0.3149  0.7034 -0.4060
17881TIP3   OH275057   2.867   1.449   1.967 -0.1512  0.3570 -0.1949
17881TIP3    H175058   2.892   1.541   1.977 -1.0426  0.4564  1.3394
17881TIP3    H275059   2.888   1.409   2.052 -0.7818 -0.5957 -0.4770
17882TIP3   OH275060   2.643   3.714  17.085  0.9013  0.1013 -0.3321
17882TIP3    H175061   2.720   3.660  17.072  0.4872 -0.8097  0.9109
17882TIP3    H275062   2.630   3.716  17.180 -1.9104 -1.6106 -0.6208
17883TIP3   OH275063   2.787   1.990   5.310 -0.5164  0.0378  0.6253
17883TIP3    H175064   2.842   1.946   5.246 -0.9813  1.2981 -0.6799
17883TIP3    H275065   2.846   2.051   5.355 -0.2252 -0.7276  1.2835
17884TIP3   OH275066   0.803   2.759   1.918  0.3034  0.3360  0.1056
17884TIP3    H175067   0.771   2.844   1.949 -2.4377 -0.6194  0.0018
17884TIP3    H275068   0.727   2.702   1.920  1.6262 -1.5982 -1.8344
17885TIP3   OH275069   3.784   3.972  12.882 -0.0498  0.1824  0.4784
17885TIP3    H175070   3.778   3.968  12.787  1.1804 -0.3884  0.4127
17885TIP3    H275071   3.693   3.965  12.912 -0.3570 -0.7399 -0.6169
17886TIP3   OH275072   0.605   4.992   0.461 -0.4391  0.2970 -0.0833
17886TIP3    H175073   0.651   5.066   0.503 -0.1934  0.4245 -0.5761
17886TIP3    H275074   0.540   5.033   0.404 -0.4074  0.1318 -0.2398
17887TIP3   OH275075   1.972   5.916  15.257  0.3235  0.3216 -0.1696
17887TIP3    H175076   2.055   5.940  15.299  0.1943 -2.2555  1.6602
17887TIP3    H275077   1.992   5.835  15.210 -0.6906  0.7687 -1.3873
17888TIP3   OH275078   2.631   5.259  15.290 -0.6098 -1.1673  0.3477
17888TIP3    H175079   2.694   5.221  15.352  2.8682  1.9802 -1.0139
17888TIP3    H275080   2.581   5.321  15.343 -1.3434 -2.3826  1.0870
17889TIP3   OH275081   4.205   2.713   0.524  0.0847  0.4808  0.4232
17889TIP3    H175082   4.283   2.740   0.573 -0.7559 -0.2985  2.2325
17889TIP3    H275083   4.132   2.735   0.581 -0.7999 -2.7587  0.6480
17890TIP3   OH275084   3.919   5.101   3.848  0.1341  0.4759  0.5038
17890TIP3    H175085   3.953   5.051   3.923  1.8487  1.2450  0.2458
17890TIP3    H275086   3.997   5.127   3.799 -0.9328  0.7922 -1.0382
17891TIP3   OH275087   4.205   3.912   0.171 -0.3445  0.3476 -0.0494
17891TIP3    H175088   4.171   3.951   0.252 -0.0542  0.4552  0.0191
17891TIP3    H275089   4.126   3.890   0.121 -0.5712 -1.0663  0.8811
17892TIP3   OH275090   0.344   2.809   6.185 -0.4090 -0.0858  0.1288
17892TIP3    H175091   0.337   2.721   6.147  0.0678  0.3444 -0.9942
17892TIP3    H275092   0.254   2.833   6.208 -0.8588 -0.0009 -1.6137
17893TIP3   OH275093   3.698   3.800  14.531 -0.4636 -0.5835 -0.0208
17893TIP3    H175094   3.778   3.758  14.563 -0.0275 -0.1737 -0.5482
17893TIP3    H275095   3.627   3.741  14.558  0.1894 -1.9985 -1.3076
17894TIP3   OH275096   3.606   6.302  15.491 -0.1759  0.5259 -0.3017
17894TIP3    H175097   3.545   6.317  15.419 -0.7480 -1.6639 -0.3156
17894TIP3    H275098   3.679   6.254  15.451 -0.5661 -0.8333  0.5786
17895TIP3   OH275099   3.577   4.209   3.227  0.2215 -0.2809  1.0159
17895TIP3    H175100   3.554   4.300   3.207 -0.7531 -0.7523 -0.0905
17895TIP3    H275101   3.578   4.205   3.322 -1.5915  0.4586  1.0983
17896TIP3   OH275102   5.567   2.467   5.110  0.4984  0.1824 -0.2498
17896TIP3    H175103   5.608   2.472   5.197  1.8884 -0.6759 -0.8336
17896TIP3    H275104   5.493   2.527   5.115 -0.3861 -1.0095  2.0376
17897TIP3   OH275105   0.037   3.002  16.042  0.5189 -0.4496 -1.0826
17897TIP3    H175106  -0.036   2.979  15.985  1.1930 -0.7131 -1.8521
17897TIP3    H275107   0.029   2.943  16.116 -1.9573  1.6926  0.4733
17898TIP3   OH275108   5.888   4.079  14.782  0.1637  0.1213  0.6410
17898TIP3    H175109   5.905   3.987  14.763 -0.2100  0.0888  0.4448
17898TIP3    H275110   5.856   4.115  14.699 -0.5679  0.2083  0.9573
17899TIP3   OH275111   6.205   6.706  13.280 -0.2513 -0.4378 -0.1820
17899TIP3    H175112   6.221   6.612  13.273  2.2287 -0.1695  1.1340
17899TIP3    H275113   6.288   6.746  13.253 -1.5559  1.4135 -1.5659
17900TIP3   OH275114   1.007   5.997  16.716  0.5286  0.1860  0.8699
17900TIP3    H175115   0.915   5.982  16.737  0.6745  0.1861  1.5300
17900TIP3    H275116   1.024   5.940  16.641  0.4203 -1.0713  1.7716
17901TIP3   OH275117   6.542   1.947   0.663 -0.3661 -0.2103 -0.6939
17901TIP3    H175118   6.491   1.894   0.724  1.4678 -1.7652 -0.4791
17901TIP3    H275119   6.578   1.884   0.601  2.8582  0.5688  0.2874
17902TIP3   OH275120   5.243   1.102   5.110  0.2423 -0.2152  0.5799
17902TIP3    H175121   5.282   1.090   5.197  1.8897 -0.4312 -0.1728
17902TIP3    H275122   5.156   1.138   5.128  1.1568  1.2337  2.2454
17903TIP3   OH275123   0.079   6.290  11.401  0.0732 -0.5893  0.0668
17903TIP3    H175124   0.136   6.247  11.337  1.5075 -0.5404  1.2863
17903TIP3    H275125   0.114   6.379  11.408 -1.2057 -0.0307 -0.4196
17904TIP3   OH275126   4.730   5.915   4.168  0.2115 -0.1879  0.0310
17904TIP3    H175127   4.727   6.008   4.193  0.2604  0.0144 -0.6962
17904TIP3    H275128   4.650   5.901   4.117 -0.4139 -0.8600  1.1895
17905TIP3   OH275129   6.503   0.836   0.335 -0.3772 -0.1859  0.4453
17905TIP3    H175130   6.441   0.765   0.321  2.0293 -2.3408  0.3152
17905TIP3    H275131   6.534   0.859   0.247 -0.0634  0.0233  0.6076
17906TIP3   OH275132   0.550   3.382  15.527  0.3191  0.5757  0.3227
17906TIP3    H175133   0.495   3.310  15.494 -0.1481  1.1125 -0.0703
17906TIP3    H275134   0.522   3.395  15.617  1.3021 -0.6083  0.8277
17907TIP3   OH275135   3.228   2.234   2.390 -0.3009 -0.2267  0.0530
17907TIP3    H175136   3.156   2.200   2.337 -2.4403  0.6090  2.3294
17907TIP3    H275137   3.256   2.314   2.344 -1.3471 -0.1375 -0.4320
17908TIP3   OH275138   1.589   3.679   0.930 -0.0554 -0.7788 -0.5247
17908TIP3    H175139   1.651   3.606   0.922 -0.0687 -0.9265  0.5327
17908TIP3    H275140   1.551   3.668   1.018 -0.5982  0.0812 -0.6435
17909TIP3   OH275141   3.804   2.640  11.752  0.3224  0.0843 -0.2825
17909TIP3    H175142   3.774   2.589  11.828  1.9943  1.0275  1.0520
17909TIP3    H275143   3.898   2.624  11.749  0.8668  3.0040  0.1043
17910TIP3   OH275144   0.202   1.214  11.339  0.5754 -0.4708 -0.2536
17910TIP3    H175145   0.267   1.155  11.379 -0.8515 -1.0363  1.3086
17910TIP3    H275146   0.130   1.157  11.314 -0.3068  0.4427  0.1578
17911TIP3   OH275147   5.931   0.729  12.366  0.3208 -0.8100 -0.2039
17911TIP3    H175148   6.001   0.736  12.301  0.6826  3.2129  0.4287
17911TIP3    H275149   5.972   0.687  12.442  0.9856 -1.8948 -1.1580
17912TIP3   OH275150   2.071   4.091  11.004  0.1153 -0.3763  0.4633
17912TIP3    H175151   2.024   4.157  11.055  0.8874  0.3760  0.2011
17912TIP3    H275152   2.151   4.134  10.975  0.4002 -1.2718 -0.1235
17913TIP3   OH275153   2.054   1.523  15.521  0.2685 -0.1083  0.3694
17913TIP3    H175154   2.125   1.576  15.485  0.7683 -2.8503 -2.9559
17913TIP3    H275155   1.981   1.537  15.461  0.2967 -2.7961 -0.3728
17914TIP3   OH275156   6.325   2.674  16.981 -0.0738  0.0162  0.2836
17914TIP3    H175157   6.385   2.604  17.007  0.3747  0.2975 -0.0031
17914TIP3    H275158   6.296   2.649  16.893  0.6199  0.5492 -0.0959
17915TIP3   OH275159   2.391   4.222   3.718 -0.1627 -0.0762  0.2396
17915TIP3    H175160   2.472   4.181   3.749  0.1027  1.0580  1.0444
17915TIP3    H275161   2.409   4.315   3.719 -1.2076  0.1385 -0.3707
17916TIP3   OH275162   5.109   6.111  16.779 -0.3462 -0.6201  0.3037
17916TIP3    H175163   5.130   6.031  16.730 -2.0660 -0.0466 -1.4705
17916TIP3    H275164   5.104   6.083  16.870  2.8397 -1.7624  0.1962
17917TIP3   OH275165   4.230   0.790  13.904  0.7049 -1.0901  0.4388
17917TIP3    H175166   4.299   0.819  13.964  1.2500 -0.6124 -0.4180
17917TIP3    H275167   4.262   0.813  13.817 -0.2856 -1.3800 -0.0076
17918TIP3   OH275168   2.904   5.300   5.994 -0.0381  0.0229 -0.5116
17918TIP3    H175169   2.849   5.369   5.959 -0.0654 -0.5395 -1.5864
17918TIP3    H275170   2.875   5.291   6.085 -0.1023  1.3359 -0.3910
17919TIP3   OH275171   0.788   2.642  16.282 -0.0407  0.4179  0.1201
17919TIP3    H175172   0.795   2.583  16.357 -1.1090 -3.0919 -2.4044
17919TIP3    H275173   0.871   2.630  16.235 -1.1046 -0.6579 -1.5045
17920TIP3   OH275174   5.873   5.342  12.997  0.2844  0.0017 -0.3513
17920TIP3    H175175   5.847   5.431  12.973  4.1940  0.3028 -3.8455
17920TIP3    H275176   5.872   5.294  12.915  0.3783 -2.6897  1.1753
17921TIP3   OH275177   1.041   6.741  13.689 -0.3430  0.0451 -0.0744
17921TIP3    H175178   1.033   6.830  13.655  1.2514  0.7825  1.4082
17921TIP3    H275179   0.987   6.741  13.768  0.6854  0.0746  0.6328
17922TIP3   OH275180   2.303   1.243  12.338 -0.1891 -0.2117 -0.6564
17922TIP3    H175181   2.342   1.234  12.251 -0.3712 -1.6116 -0.5993
17922TIP3    H275182   2.377   1.232  12.399 -0.6546 -2.9819 -0.5439
17923TIP3   OH275183   3.296   3.350   5.614 -0.6124  0.3379 -0.2241
17923TIP3    H175184   3.384   3.313   5.602 -1.1363 -0.8165 -0.5878
17923TIP3    H275185   3.242   3.303   5.550 -1.4863  1.0668 -0.0215
17924TIP3   OH275186   5.556   2.832   3.765  0.0043 -1.0509 -0.3461
17924TIP3    H175187   5.573   2.753   3.815 -1.3658 -1.0741  0.0944
17924TIP3    H275188   5.637   2.883   3.772 -0.3959 -0.7434  2.4566
17925TIP3   OH275189   6.740   0.697   3.646 -0.0305  0.2310  0.3681
17925TIP3    H175190   6.691   0.719   3.726 -0.0196  0.9302  0.1784
17925TIP3    H275191   6.791   0.775   3.627 -0.5793  0.3225 -0.7315
17926TIP3   OH275192   0.917   3.806  12.350 -0.4497  0.8256  0.0646
17926TIP3    H175193   0.950   3.849  12.429  0.5787  2.1460 -1.0587
17926TIP3    H275194   0.914   3.876  12.284  3.3047 -1.1430 -2.4224
17927TIP3   OH275195   1.019   5.597   4.617 -0.5160 -0.4161  0.7788
17927TIP3    H175196   0.927   5.617   4.601 -0.2886 -0.5033 -0.7966
17927TIP3    H275197   1.055   5.676   4.657 -1.0816 -0.0788  0.6273
17928TIP3   OH275198   2.858   4.950  16.612  0.8403 -0.3193 -0.5872
17928TIP3    H175199   2.874   5.037  16.647  1.1227 -0.7925  0.4687
17928TIP3    H275200   2.871   4.891  16.686 -0.4880 -1.1653 -1.0087
17929TIP3   OH275201   5.442   0.255   5.822  0.0235 -0.9897  0.2707
17929TIP3    H175202   5.348   0.261   5.807  0.4444  2.0211 -1.7476
17929TIP3    H275203   5.462   0.329   5.879  1.4880 -0.0656 -1.3744
17930TIP3   OH275204   2.567   0.748  11.569 -0.1555  0.5114  0.2891
17930TIP3    H175205   2.566   0.829  11.518 -3.2806 -0.2375 -0.9402
17930TIP3    H275206   2.543   0.680  11.506  0.5783 -1.1116  1.7317
17931TIP3   OH275207   2.203   3.219  13.339 -0.2603 -0.4648 -0.1190
17931TIP3    H175208   2.260   3.295  13.355  1.5507 -2.1363  1.6900
17931TIP3    H275209   2.152   3.210  13.419  2.5744 -3.6480  1.4369
17932TIP3   OH275210   6.406   2.864   1.359  0.2581 -0.4508 -0.3803
17932TIP3    H175211   6.498   2.856   1.333  0.2680 -0.4947 -0.3342
17932TIP3    H275212   6.377   2.946   1.320  0.4746 -0.1586  0.0677
17933TIP3   OH275213   1.896   6.587  15.754 -0.0163 -0.5321 -0.5918
17933TIP3    H175214   1.842   6.538  15.691  0.0622 -2.9352  1.1569
17933TIP3    H275215   1.985   6.576  15.722 -0.1581 -0.0649 -1.1626
17934TIP3   OH275216   1.574   3.697   2.252  0.0230 -0.0907  0.3341
17934TIP3    H175217   1.606   3.715   2.163  1.4873 -0.0293  0.8753
17934TIP3    H275218   1.515   3.771   2.271 -1.5626 -0.9229 -1.1819
17935TIP3   OH275219   5.640   3.099   3.111  0.4849  0.2041  0.0804
17935TIP3    H175220   5.686   3.179   3.087  0.5747  0.5860  1.4848
17935TIP3    H275221   5.670   3.034   3.047  0.5933  1.2165 -0.9231
17936TIP3   OH275222   1.521   2.770  10.521  0.6919 -0.9372  0.2995
17936TIP3    H175223   1.602   2.812  10.493 -0.1534  1.2624  1.0412
17936TIP3    H275224   1.467   2.768  10.442  1.1636 -1.6796 -0.0064
17937TIP3   OH275225   5.962   0.224  12.266  0.1512 -0.2820  0.1501
17937TIP3    H175226   5.882   0.271  12.241  0.8442  0.7149 -0.2034
17937TIP3    H275227   6.033   0.277  12.230  0.9771 -1.1503  0.4973
17938TIP3   OH275228   0.185   0.154   3.655  0.0180  0.6290 -0.6816
17938TIP3    H175229   0.109   0.105   3.621  0.2028 -1.0476  1.2233
17938TIP3    H275230   0.157   0.245   3.653 -0.9956  0.3137 -2.6699
17939TIP3   OH275231   5.951   0.552  11.996  0.2240  0.4420 -0.2334
17939TIP3    H175232   5.981   0.636  12.030 -0.3582  0.4394  0.2938
17939TIP3    H275233   5.890   0.575  11.926 -0.0644  0.4591  0.0236
17940TIP3   OH275234   1.457   1.953  14.080 -0.1225 -0.2049 -0.0402
17940TIP3    H175235   1.429   1.978  14.168  1.5935 -0.0586  0.4811
17940TIP3    H275236   1.448   2.032  14.028 -1.3734 -0.3552 -0.0567
17941TIP3   OH275237   3.087   6.730   4.764 -0.8296 -0.2816  0.0288
17941TIP3    H175238   3.083   6.635   4.767 -0.2066 -0.2894  0.9728
17941TIP3    H275239   3.018   6.759   4.822 -2.8756 -0.0946 -2.3928
17942TIP3   OH275240   4.097   3.690   1.391  0.6526  0.0297 -0.4286
17942TIP3    H175241   4.087   3.619   1.456  1.8830  0.5486  0.3505
17942TIP3    H275242   4.081   3.770   1.441  1.8032  0.4455 -0.6958
17943TIP3   OH275243   6.398   3.706   1.736 -0.0499  0.1562  1.1840
17943TIP3    H175244   6.445   3.681   1.656  0.5889 -0.0561  1.6176
17943TIP3    H275245   6.308   3.677   1.721  0.0971 -0.0170  0.6048
17944TIP3   OH275246   3.712   3.624   4.673 -0.4869  0.0055 -0.3339
17944TIP3    H175247   3.704   3.602   4.580  0.2878  0.1500 -0.4417
17944TIP3    H275248   3.734   3.541   4.716  2.4970  0.5115 -0.7494
17945TIP3   OH275249   2.521   1.309  12.515 -0.1412  0.7213  0.7304
17945TIP3    H175250   2.469   1.318  12.595 -0.8383 -0.1915  0.3887
17945TIP3    H275251   2.567   1.226  12.526 -2.0296 -0.5753 -0.8205
17946TIP3   OH275252   3.260   2.686   0.836 -0.1100 -0.3756  0.7505
17946TIP3    H175253   3.272   2.773   0.875  1.1990  0.3371 -1.1129
17946TIP3    H275254   3.349   2.659   0.812 -0.6095 -1.8493  0.5168
17947TIP3   OH275255   0.910   1.347   6.048 -0.4719  0.7654 -0.3411
17947TIP3    H175256   0.821   1.383   6.052 -1.5612 -1.2477 -3.9067
17947TIP3    H275257   0.919   1.297   6.129 -2.8061  0.5907 -0.1322
17948TIP3   OH275258   0.658   1.212  15.816 -0.1227 -0.0796  0.6702
17948TIP3    H175259   0.701   1.135  15.853  0.3056  0.3681  1.1102
17948TIP3    H275260   0.673   1.206  15.722 -1.3403 -1.3006  0.5405
17949TIP3   OH275261   0.412   5.267  12.994  0.8495 -0.7404  0.3034
17949TIP3    H175262   0.364   5.187  12.970  0.1672  0.2562 -1.7934
17949TIP3    H275263   0.470   5.240  13.065  1.2714 -3.2989 -0.9781
17950TIP3   OH275264   4.556   1.690  12.633  0.1841 -0.0749 -0.5522
17950TIP3    H175265   4.622   1.715  12.697 -1.8541 -1.8900  2.4025
17950TIP3    H275266   4.594   1.617  12.585 -0.6166 -3.0090  3.0556
17951TIP3   OH275267   6.069   4.287  14.903  0.8597  0.1352 -0.5636
17951TIP3    H175268   6.034   4.367  14.864  0.6027  1.0771  1.5057
17951TIP3    H275269   6.016   4.217  14.866 -1.5436  1.3094  0.5530
17952TIP3   OH275270   3.323   0.586  15.823  0.1402  0.2618 -0.6978
17952TIP3    H175271   3.229   0.583  15.805  0.4490 -0.1358 -2.2869
17952TIP3    H275272   3.348   0.494  15.832  0.7519  0.2468 -2.3397
17953TIP3   OH275273   1.781   1.176   2.321 -0.0906  0.1934 -0.1645
17953TIP3    H175274   1.699   1.152   2.364  0.1154 -0.8847 -0.3576
17953TIP3    H275275   1.831   1.222   2.388 -1.1422  1.5159 -0.2620
17954TIP3   OH275276   5.712   2.686   3.924  0.2154 -0.0356 -0.2793
17954TIP3    H175277   5.658   2.608   3.933 -0.7323  0.6777  0.2816
17954TIP3    H275278   5.736   2.709   4.014  0.0384  0.6438 -0.4048
17955TIP3   OH275279   2.157   3.431  13.775  0.0383 -0.2724  0.3097
17955TIP3    H175280   2.154   3.461  13.684 -1.7240  1.1730  0.8099
17955TIP3    H275281   2.249   3.436  13.799  0.2455  1.3978 -0.7550
17956TIP3   OH275282   1.260   0.071  11.313  0.5505 -0.0158 -0.1372
17956TIP3    H175283   1.208   0.027  11.245 -0.3209 -0.3651  0.7339
17956TIP3    H275284   1.237   0.163  11.304  0.6267 -0.0285 -0.4817
17957TIP3   OH275285   3.521   0.125   4.846  0.6045  0.0731  0.2323
17957TIP3    H175286   3.613   0.133   4.821  1.3299  0.7222  2.9098
17957TIP3    H275287   3.523   0.092   4.936 -1.7909  0.0145  0.3125
17958TIP3   OH275288   3.304   4.991  13.250  0.4680 -0.5183  0.8384
17958TIP3    H175289   3.217   4.955  13.236  0.2522  0.4396 -0.4664
17958TIP3    H275290   3.323   4.976  13.343 -0.7477 -1.4406  0.9392
17959TIP3   OH275291   2.007   4.946  11.225 -0.2452 -0.9179 -0.3180
17959TIP3    H175292   2.075   4.911  11.282  0.3124 -0.3714 -0.6358
17959TIP3    H275293   2.004   4.885  11.151 -0.0353 -0.8977 -0.3443
17960TIP3   OH275294   4.953   2.242   5.528 -0.4446  0.0438 -0.0773
17960TIP3    H175295   4.874   2.217   5.577 -1.2887  0.9671 -0.9421
17960TIP3    H275296   4.940   2.204   5.441 -0.1506  0.6092 -0.3674
17961TIP3   OH275297   4.976   0.173   2.449  0.1289 -0.1778 -0.1148
17961TIP3    H175298   4.938   0.234   2.386 -0.1282 -1.4760 -1.2419
17961TIP3    H275299   4.901   0.131   2.490  0.3064  0.2782  0.7005
17962TIP3   OH275300   2.334   1.376   1.736  0.5615  0.1242  0.2715
17962TIP3    H175301   2.399   1.414   1.795  1.2102  1.0588 -1.0351
17962TIP3    H275302   2.256   1.428   1.749  0.7211  0.3656  0.2642
17963TIP3   OH275303   1.718   5.789   0.876  0.3479  0.0601  0.0893
17963TIP3    H175304   1.812   5.792   0.862  0.3068  1.4395  0.0152
17963TIP3    H275305   1.703   5.844   0.954 -0.1418 -2.1049  1.5621
17964TIP3   OH275306   1.015   6.747  16.442  0.0952  0.2429  0.0547
17964TIP3    H175307   1.046   6.821  16.390 -1.0090  1.3762  0.9563
17964TIP3    H275308   1.061   6.671  16.406  0.3863  1.1913 -1.6548
17965TIP3   OH275309   4.370   3.435   2.993  0.0624  0.1289  0.2060
17965TIP3    H175310   4.432   3.453   2.922 -0.5948  0.6485 -0.2476
17965TIP3    H275311   4.284   3.456   2.955 -0.5007 -1.6666  0.4488
17966TIP3   OH275312   6.729   4.134   2.215  0.4361 -0.1138 -0.2229
17966TIP3    H175313   6.689   4.219   2.231  0.4674 -0.4554  1.7549
17966TIP3    H275314   6.680   4.073   2.269  0.7594 -1.2826 -1.2046
17967TIP3   OH275315   5.714   3.482   3.944  0.2785  0.2991 -0.1427
17967TIP3    H175316   5.784   3.523   3.894 -1.4266  2.4743 -0.8425
17967TIP3    H275317   5.753   3.464   4.030  2.0012  0.4317 -0.8808
17968TIP3   OH275318   6.312   1.218  13.416  0.4347 -0.3827  0.6616
17968TIP3    H175319   6.353   1.132  13.426  1.2651  0.0528  1.0663
17968TIP3    H275320   6.342   1.248  13.330 -1.3398 -1.2695 -0.3058
17969TIP3   OH275321   6.275   4.503  14.151 -0.5671  0.1560 -0.4935
17969TIP3    H175322   6.293   4.550  14.070  1.7800  1.4215  0.7013
17969TIP3    H275323   6.266   4.411  14.124 -2.0759  0.8340 -2.4404
17970TIP3   OH275324   0.476   2.080  12.125 -0.1161 -0.2721  0.6743
17970TIP3    H175325   0.563   2.042  12.138 -1.6233 -4.0350  0.4168
17970TIP3    H275326   0.474   2.103  12.032  0.7749  0.3836  0.8079
17971TIP3   OH275327   2.697   3.239   5.467 -0.2832 -0.5081  0.1000
17971TIP3    H175328   2.644   3.276   5.397  0.6228  0.8899  0.1474
17971TIP3    H275329   2.738   3.314   5.509  1.4873 -1.5594  0.2778
17972TIP3   OH275330   2.066   0.315  11.369 -0.4779 -0.5816  0.1124
17972TIP3    H175331   2.122   0.386  11.336 -1.6169  0.1042 -0.3536
17972TIP3    H275332   2.117   0.277  11.441  0.0749  0.8247  0.4895
17973TIP3   OH275333   4.794   0.229   5.453 -0.3058 -0.4750 -0.5991
17973TIP3    H175334   4.856   0.162   5.482  0.9954  0.0841 -2.0421
17973TIP3    H275335   4.719   0.218   5.511  1.3330 -0.8228  1.5129
17974TIP3   OH275336   4.922   2.936  15.655  0.1685  0.1571  0.5631
17974TIP3    H175337   4.932   3.027  15.685 -0.6193 -0.2037  1.9746
17974TIP3    H275338   4.840   2.906  15.696  0.1566 -1.0295 -0.3031
17975TIP3   OH275339   1.560   6.174   5.382 -0.0955 -0.1648 -0.3909
17975TIP3    H175340   1.600   6.242   5.436  0.1148  0.6657 -1.5743
17975TIP3    H275341   1.551   6.214   5.295 -1.0255 -1.2537 -0.8152
17976TIP3   OH275342   3.945   0.354  13.173  0.0038 -0.1443 -0.1957
17976TIP3    H175343   3.909   0.337  13.260 -0.3323  0.1399 -0.2781
17976TIP3    H275344   4.033   0.386  13.190 -0.8706  2.1784  0.1639
17977TIP3   OH275345   0.550   2.610  10.942 -0.8752 -0.0921  0.1509
17977TIP3    H175346   0.602   2.689  10.958 -1.4609  0.0878  1.1626
17977TIP3    H275347   0.616   2.543  10.922 -0.3543  0.5573 -0.3501
17978TIP3   OH275348   6.268   0.695   4.645  0.2814 -0.2183  0.4202
17978TIP3    H175349   6.357   0.662   4.660 -0.1810 -0.8516  1.8489
17978TIP3    H275350   6.226   0.688   4.730 -1.7081 -1.6851 -0.6454
17979TIP3   OH275351   2.650   3.461  11.588 -0.0695 -0.0536 -0.1373
17979TIP3    H175352   2.691   3.526  11.644 -1.3489 -0.3808  1.2090
17979TIP3    H275353   2.584   3.509  11.538  0.5517  0.0961 -0.8226
17980TIP3   OH275354   0.015   4.757   6.594 -0.4953 -0.5508 -0.1854
17980TIP3    H175355  -0.045   4.765   6.520 -1.1608  1.8159  0.5578
17980TIP3    H275356   0.036   4.664   6.599 -1.8055 -0.9698 -2.2701
17981TIP3   OH275357   3.686   3.707  12.230 -0.2850  0.1738 -0.3140
17981TIP3    H175358   3.628   3.748  12.294 -0.6999  0.8879 -1.1252
17981TIP3    H275359   3.772   3.746  12.247 -0.6312  1.2286 -0.9276
17982TIP3   OH275360   6.353   3.047   3.826 -0.2797 -0.1194  0.1519
17982TIP3    H175361   6.284   3.010   3.881 -1.9758  0.9363 -1.1954
17982TIP3    H275362   6.384   3.123   3.876 -2.1043  1.0868 -0.4765
17983TIP3   OH275363   1.618   2.146   2.350  0.5176  0.3743  0.3865
17983TIP3    H175364   1.548   2.134   2.415  0.7792 -2.3426  0.2245
17983TIP3    H275365   1.582   2.108   2.270  2.2972 -1.4412  0.4121
17984TIP3   OH275366   1.032   0.235   1.885  0.8580 -0.3120  0.7855
17984TIP3    H175367   1.098   0.268   1.945  3.0828 -0.0995 -1.6579
17984TIP3    H275368   1.064   0.149   1.859  0.3781 -0.0644 -0.6928
17985TIP3   OH275369   1.984   5.297  14.667 -0.1583  0.1755  0.2556
17985TIP3    H175370   1.902   5.282  14.619  0.0907 -0.7000  0.0957
17985TIP3    H275371   1.958   5.299  14.759 -0.7163  2.3940  0.0662
17986TIP3   OH275372   1.294   3.841  12.709  0.4010  0.2806  0.6564
17986TIP3    H175373   1.240   3.870  12.782 -0.8823  1.7673 -0.8385
17986TIP3    H275374   1.235   3.787  12.656  0.8264  0.5778 -0.1312
17987TIP3   OH275375   2.918   0.290  15.898 -0.4929 -0.1748  0.4056
17987TIP3    H175376   2.848   0.279  15.833  0.0770  0.2544 -0.2912
17987TIP3    H275377   2.873   0.323  15.976 -1.0921 -0.0258  0.0030
17988TIP3   OH275378   3.748   5.334   3.340 -0.8409  0.3186  0.0832
17988TIP3    H175379   3.689   5.268   3.376 -0.2077 -0.4351 -0.2331
17988TIP3    H275380   3.698   5.376   3.271 -1.3404  0.3576  0.4611
17989TIP3   OH275381   1.647   3.431   2.720  0.1069 -0.0152 -0.0267
17989TIP3    H175382   1.626   3.524   2.715  1.4805  0.3336  0.5081
17989TIP3    H275383   1.595   3.391   2.649  1.2864  1.4972 -1.7942
17990TIP3   OH275384   4.186   2.440   4.111 -0.4333 -0.1625 -0.1418
17990TIP3    H175385   4.189   2.358   4.062  1.1531 -0.5355  0.5320
17990TIP3    H275386   4.277   2.470   4.113 -0.7679  0.8253  0.9116
17991TIP3   OH275387   1.186   2.551   5.311  0.0754 -0.7548 -0.1612
17991TIP3    H175388   1.134   2.471   5.316 -1.5660  0.2700 -0.5557
17991TIP3    H275389   1.214   2.567   5.401 -1.3117 -0.6539  0.2602
17992TIP3   OH275390   2.083   6.315  13.434 -0.1213 -0.5462  0.0430
17992TIP3    H175391   2.086   6.234  13.384 -0.3495 -0.4039 -0.2037
17992TIP3    H275392   2.008   6.304  13.493 -2.6394  1.0310 -2.6953
17993TIP3   OH275393   4.185   5.631   0.438  0.6434  0.4643 -0.2719
17993TIP3    H175394   4.109   5.685   0.461  0.5351  0.2126 -0.0329
17993TIP3    H275395   4.156   5.541   0.452  1.0150  0.3714 -0.0899
17994TIP3   OH275396   5.374   4.161  17.180  0.1834 -0.2315 -0.4598
17994TIP3    H175397   5.443   4.170  17.246  2.6056 -2.2462 -2.6174
17994TIP3    H275398   5.337   4.249  17.172  3.2977  1.1681 -0.0899
17995TIP3   OH275399   0.332   4.791   1.508  0.0911 -0.0974  0.3641
17995TIP3    H175400   0.254   4.841   1.534 -0.0665 -0.1092 -0.0795
17995TIP3    H275401   0.341   4.807   1.414  2.0419  1.8666  0.8545
17996TIP3   OH275402   6.425   2.437  14.386 -0.0686  0.3263  0.5144
17996TIP3    H175403   6.348   2.494  14.388 -0.0167  0.3709  1.1524
17996TIP3    H275404   6.456   2.442  14.295 -0.7993  0.3322  0.2683
17997TIP3   OH275405   6.032   4.642  12.696 -0.0418  0.6698  0.8646
17997TIP3    H175406   6.021   4.727  12.654  0.8231  1.3150  1.8968
17997TIP3    H275407   6.076   4.588  12.630 -0.5664  1.0325  0.2154
17998TIP3   OH275408   0.396   1.635  12.548  0.1566  0.0784  0.2440
17998TIP3    H175409   0.366   1.559  12.499  0.5653  0.1397 -0.1083
17998TIP3    H275410   0.316   1.678  12.578 -0.1579  1.0110 -1.8627
17999TIP3   OH275411   4.745   0.592   6.947  0.0857 -0.6098 -0.0650
17999TIP3    H175412   4.711   0.676   6.918 -0.8841 -0.8793  0.2890
17999TIP3    H275413   4.834   0.589   6.911  1.5529  2.2061  3.0068
18000TIP3   OH275414   6.570   0.881  16.729 -1.0875  0.6179  0.5936
18000TIP3    H175415   6.609   0.847  16.648 -1.6616 -0.3666  0.7305
18000TIP3    H275416   6.641   0.878  16.793 -0.5469  1.6739  0.0714
18001TIP3   OH275417   1.235   1.983   3.376 -0.3092 -0.2420  0.6679
18001TIP3    H175418   1.297   1.913   3.393 -0.3312 -0.5960 -0.6735
18001TIP3    H275419   1.281   2.063   3.401 -1.0629 -0.8391  4.3737
18002TIP3   OH275420   3.292   5.732   2.444  0.7663  0.1318  0.2779
18002TIP3    H175421   3.386   5.749   2.442  1.0935 -1.6614 -0.7679
18002TIP3    H275422   3.262   5.771   2.526  1.8861  3.3531 -0.7535
18003TIP3   OH275423   1.735   0.251   4.696 -0.1671  0.2452 -0.6986
18003TIP3    H175424   1.683   0.331   4.706 -0.7405  0.1166 -2.3724
18003TIP3    H275425   1.673   0.180   4.713  0.1519  0.1395  0.0311
18004TIP3   OH275426   3.786   1.384  10.856 -0.3417  0.0464 -0.1453
18004TIP3    H175427   3.755   1.473  10.875 -0.7303 -0.5138  1.9929
18004TIP3    H275428   3.879   1.395  10.835 -0.4545  0.9919 -0.1811
18005TIP3   OH275429   2.273   3.403   5.424 -0.0701  0.3332 -0.0689
18005TIP3    H175430   2.182   3.401   5.454 -0.3286  0.8331 -0.7934
18005TIP3    H275431   2.321   3.444   5.496 -0.4510  0.2499  0.2341
18006TIP3   OH275432   3.569   5.088   5.198 -0.3451  0.1691 -0.3818
18006TIP3    H175433   3.656   5.083   5.160 -0.0105 -0.3257  0.4390
18006TIP3    H275434   3.533   4.999   5.188 -0.5643  0.2447 -0.2863
18007TIP3   OH275435   5.634   5.050  13.625  0.1446  0.4671 -0.3421
18007TIP3    H175436   5.540   5.036  13.614  0.2931 -0.3893 -0.6224
18007TIP3    H275437   5.653   5.131  13.577 -0.4998  0.7965 -0.0329
18008TIP3   OH275438   5.316   1.263  15.606 -0.5430 -0.4959  0.0925
18008TIP3    H175439   5.247   1.254  15.671  0.5366  0.7845  1.4676
18008TIP3    H275440   5.281   1.325  15.542 -1.4080 -1.3422 -0.2425
18009TIP3   OH275441   1.312   3.924   0.588 -0.3020 -0.1787 -0.2446
18009TIP3    H175442   1.256   3.988   0.544 -1.2455 -0.7101  0.1718
18009TIP3    H275443   1.258   3.889   0.659  0.7416 -0.3241  0.4810
18010TIP3   OH275444   0.037   6.390  16.209 -0.4835 -0.1804 -0.0482
18010TIP3    H175445  -0.058   6.405  16.206 -0.3741  0.5308  0.0135
18010TIP3    H275446   0.050   6.338  16.289 -0.7502  0.2658  0.2907
18011TIP3   OH275447   4.508   5.438  14.068 -0.6153  0.6079  0.2914
18011TIP3    H175448   4.502   5.400  13.981  0.7867 -0.8713  0.8264
18011TIP3    H275449   4.534   5.529  14.053 -0.7476  0.4674 -0.8403
18012TIP3   OH275450   2.537   3.454   1.954  0.0514  0.6128  0.0859
18012TIP3    H175451   2.617   3.416   1.919 -0.7074 -0.6530 -0.3189
18012TIP3    H275452   2.487   3.480   1.877 -0.0841  1.0539  0.3239
18013TIP3   OH275453   1.452   4.107   5.300 -0.4561 -0.3397  0.0290
18013TIP3    H175454   1.539   4.107   5.339 -0.7320  0.7446  0.6651
18013TIP3    H275455   1.426   4.015   5.300  1.3478 -0.8794 -1.6797
18014TIP3   OH275456   1.348   1.747  11.871  0.2706 -0.7417 -0.5868
18014TIP3    H175457   1.257   1.721  11.883  0.2512  0.0396  1.1068
18014TIP3    H275458   1.364   1.812  11.940  1.9706 -0.5295 -1.1489
18015TIP3   OH275459   4.827   1.807  11.554 -0.3057  0.3611  0.2081
18015TIP3    H175460   4.817   1.798  11.459  2.6917  1.4638 -0.2558
18015TIP3    H275461   4.812   1.900  11.571 -1.5680  0.0373  0.9473
18016TIP3   OH275462   6.326   2.747   2.815  0.1881  0.0675 -0.1666
18016TIP3    H175463   6.403   2.692   2.804  0.4323  0.3144  0.3233
18016TIP3    H275464   6.300   2.734   2.906  0.5720  1.2001  0.1073
18017TIP3   OH275465   0.719   5.252   2.172 -0.3827  0.3412 -0.7609
18017TIP3    H175466   0.691   5.235   2.082  0.8720  1.1040 -1.2981
18017TIP3    H275467   0.739   5.166   2.208 -0.9534  0.0296 -1.1765
18018TIP3   OH275468   2.771   4.650  11.089  0.6426  0.7188 -0.2736
18018TIP3    H175469   2.859   4.612  11.094  0.6390  0.8506  0.9444
18018TIP3    H275470   2.733   4.612  11.009  1.1734 -0.6877  0.1192
18019TIP3   OH275471   2.394   2.377   3.916  0.0827 -0.3561 -0.5720
18019TIP3    H175472   2.334   2.374   3.991  0.4504 -0.4467 -0.2774
18019TIP3    H275473   2.476   2.342   3.950  0.7386  1.1561 -0.5554
18020TIP3   OH275474   2.580   3.854  15.514 -0.6452 -0.6799  0.1196
18020TIP3    H175475   2.591   3.943  15.549 -1.2594 -0.9192  0.9301
18020TIP3    H275476   2.581   3.866  15.419 -0.9749  0.2371  0.2254
18021TIP3   OH275477   4.787   2.422  10.882 -0.5382  0.1680  0.2027
18021TIP3    H175478   4.701   2.397  10.916  0.2584 -0.4914  1.7944
18021TIP3    H275479   4.846   2.413  10.957  0.9262  0.5893 -0.8719
18022TIP3   OH275480   5.207   3.203  10.989 -0.4554  0.1704 -0.6338
18022TIP3    H175481   5.199   3.113  11.019 -0.9100  0.0484 -1.1172
18022TIP3    H275482   5.198   3.198  10.894 -0.2932  0.7054 -0.6803
18023TIP3   OH275483   0.944   1.625   2.451 -0.0688 -0.6178 -0.3819
18023TIP3    H175484   1.006   1.623   2.525  0.9135 -1.6371 -1.2159
18023TIP3    H275485   0.858   1.617   2.492  0.4257 -0.3937  0.7174
18024TIP3   OH275486   2.363   4.730   5.548  0.1600  0.4497 -0.0120
18024TIP3    H175487   2.304   4.801   5.573  0.3257  0.4129  0.4829
18024TIP3    H275488   2.417   4.714   5.626  0.2847 -0.0564 -0.1987
18025TIP3   OH275489   0.353   0.520   2.322 -0.3522 -0.0896 -0.9536
18025TIP3    H175490   0.306   0.449   2.279 -1.5342 -2.0190  3.3476
18025TIP3    H275491   0.439   0.483   2.342 -0.1044  0.5158 -0.8937
18026TIP3   OH275492   0.080   0.121   4.664  0.1998 -0.0066 -0.1576
18026TIP3    H175493   0.089   0.060   4.738  0.7108 -0.8451 -0.9091
18026TIP3    H275494   0.167   0.158   4.653 -0.2985  1.4861  0.8251
18027TIP3   OH275495   3.426   4.175  14.096 -0.6483 -0.1846  0.7387
18027TIP3    H175496   3.412   4.084  14.123 -2.3750 -0.0983  0.2076
18027TIP3    H275497   3.340   4.216  14.105 -0.5660  0.6337 -1.8652
18028TIP3   OH275498   3.380   6.361   5.797 -0.3443 -0.1789  0.1860
18028TIP3    H175499   3.372   6.327   5.708 -4.7918  3.4042 -0.9947
18028TIP3    H275500   3.458   6.417   5.794 -1.6619  1.6374 -2.1976
18029TIP3   OH275501   1.697   5.002   3.109  0.0901 -1.1722  0.1067
18029TIP3    H175502   1.682   4.913   3.077 -0.7775 -0.9411 -0.1540
18029TIP3    H275503   1.715   5.054   3.031  1.2748 -1.2407  0.3241
18030TIP3   OH275504   1.378   0.026  14.706  0.2636  0.0984  0.0098
18030TIP3    H175505   1.340   0.094  14.760  1.1336 -0.9220  1.9599
18030TIP3    H275506   1.343   0.042  14.618 -0.9181  1.9612  0.8032
18031TIP3   OH275507   2.061   0.620  16.505 -0.3025 -0.3644 -0.0996
18031TIP3    H175508   2.138   0.675  16.521  0.3416 -0.9677 -1.1125
18031TIP3    H275509   2.097   0.533  16.487 -1.3379 -1.4037  2.5140
18032TIP3   OH275510   1.083   2.319  14.150  0.9897 -0.4514 -0.1486
18032TIP3    H175511   1.091   2.294  14.242  1.1635 -0.6028 -0.2065
18032TIP3    H275512   1.103   2.240  14.101  0.9374 -0.3601 -0.3200
18033TIP3   OH275513   4.454   4.158  16.918  0.6428 -0.7790 -0.0359
18033TIP3    H175514   4.414   4.119  16.996  0.5222 -0.4616  0.0621
18033TIP3    H275515   4.423   4.103  16.846 -1.5842  0.6337 -0.2076
18034TIP3   OH275516   3.788   6.636   2.852  0.0154  0.7677  0.7967
18034TIP3    H175517   3.785   6.688   2.772  1.7780 -0.2939 -0.0019
18034TIP3    H275518   3.696   6.624   2.876 -0.6189  0.1515 -1.7151
18035TIP3   OH275519   3.905   0.940   5.697  0.3701 -0.4347  0.0252
18035TIP3    H175520   3.968   0.947   5.768  0.1595  1.1422  0.0685
18035TIP3    H275521   3.957   0.952   5.617  0.3637 -0.6989 -0.0212
18036TIP3   OH275522   1.171   4.539  11.545  0.7719  0.7018 -0.3152
18036TIP3    H175523   1.235   4.581  11.603  1.8265 -0.4615 -0.6076
18036TIP3    H275524   1.200   4.447  11.540 -0.4323  0.3568 -1.1349
18037TIP3   OH275525   5.059   1.492  11.107  0.3117 -0.4791 -0.2050
18037TIP3    H175526   5.025   1.411  11.071 -0.5528 -0.5932  0.8252
18037TIP3    H275527   4.998   1.559  11.076 -0.6133 -0.6189  1.2455
18038TIP3   OH275528   4.116   2.773  12.369 -0.0161 -0.1251  0.2875
18038TIP3    H175529   4.037   2.825  12.354 -0.3023 -0.8141 -0.6530
18038TIP3    H275530   4.145   2.798  12.457 -2.7430 -1.7320  1.7206
18039TIP3   OH275531   6.462   3.050   4.596 -0.5653  0.0984 -0.4780
18039TIP3    H175532   6.551   3.052   4.560  0.2758 -0.7279  1.4395
18039TIP3    H275533   6.452   3.135   4.638 -0.3577 -0.1218  0.0216
18040TIP3   OH275534   5.241   3.376   2.549  0.4077 -0.5367  0.2205
18040TIP3    H175535   5.306   3.338   2.608  1.0736 -1.5403 -1.1294
18040TIP3    H275536   5.208   3.301   2.499  0.2147  0.3629 -1.0134
18041TIP3   OH275537   3.298   1.140   0.683 -0.3446  0.7245  0.4561
18041TIP3    H175538   3.270   1.056   0.647 -0.6040  0.4440  1.3058
18041TIP3    H275539   3.299   1.127   0.778 -0.2157  1.6255  0.5863
18042TIP3   OH275540   0.152   6.129   1.283 -0.0204 -0.5059  0.4645
18042TIP3    H175541   0.065   6.154   1.312  0.4155 -0.4810  1.8068
18042TIP3    H275542   0.138   6.085   1.199 -1.0208  2.1571 -0.8238
18043TIP3   OH275543   4.114   1.809  17.092 -0.4605  0.4289 -0.6504
18043TIP3    H175544   4.173   1.752  17.043 -0.4140  0.2968 -0.4403
18043TIP3    H275545   4.087   1.876  17.028 -1.5301 -0.5703 -1.2664
18044TIP3   OH275546   2.590   4.944  13.268 -0.6885  0.3283 -0.2239
18044TIP3    H175547   2.631   5.022  13.305  1.5141 -2.0181  2.5611
18044TIP3    H275548   2.624   4.939  13.179 -0.7351  2.4320 -0.3808
18045TIP3   OH275549   4.755   3.203   5.639 -0.2657  0.1502  0.3445
18045TIP3    H175550   4.783   3.262   5.570  2.7817  0.1700  1.5241
18045TIP3    H275551   4.815   3.129   5.633 -1.2891 -0.8090  1.6530
18046TIP3   OH275552   2.275   5.511   5.315  0.0388  0.1631 -0.6191
18046TIP3    H175553   2.308   5.490   5.402  2.6789  1.0244 -1.3606
18046TIP3    H275554   2.197   5.564   5.330 -1.6015 -2.6931  1.2097
18047TIP3   OH275555   2.880   3.149  15.417  0.3669 -0.2279  0.2840
18047TIP3    H175556   2.903   3.241  15.433  0.1961 -0.2916  0.9032
18047TIP3    H275557   2.811   3.130  15.481 -0.8832 -0.2601 -1.0359
18048TIP3   OH275558   1.065   2.069   2.286  0.0745  0.0039 -0.2380
18048TIP3    H175559   0.988   2.126   2.278  0.4113  0.7294  1.6484
18048TIP3    H275560   1.028   1.981   2.299 -0.4397  0.3152  0.4350
18049TIP3   OH275561   1.723   1.653  12.109 -0.0918 -0.6849 -0.1134
18049TIP3    H175562   1.793   1.681  12.169  0.0419 -0.3863 -0.4053
18049TIP3    H275563   1.766   1.650  12.024 -0.3707 -0.7709 -0.2472
18050TIP3   OH275564   2.122   5.713   6.293 -0.4885  0.4024  0.8005
18050TIP3    H175565   2.194   5.773   6.313 -0.2518  0.7532 -0.9429
18050TIP3    H275566   2.045   5.752   6.336 -0.4053  2.1777 -0.5978
18051TIP3   OH275567   5.494   5.114  12.923 -0.6907 -0.3879  0.2289
18051TIP3    H175568   5.499   5.199  12.965 -1.4992  0.0145 -0.4811
18051TIP3    H275569   5.520   5.130  12.832  0.1455 -1.0835  0.3364
18052TIP3   OH275570   5.308   3.685   3.108 -0.4239 -0.4285 -0.2959
18052TIP3    H175571   5.283   3.725   3.191  1.7332  1.3059 -0.4477
18052TIP3    H275572   5.314   3.591   3.128  0.8413  0.0529  1.7288
18053TIP3   OH275573   2.070   0.318   2.112  0.1087 -0.3912  0.2082
18053TIP3    H175574   2.094   0.403   2.148  0.2740 -1.1084  1.8565
18053TIP3    H275575   2.004   0.283   2.173 -1.9445 -0.3131 -1.9055
18054TIP3   OH275576   2.543   5.209   1.330 -0.0026 -0.3363 -0.4849
18054TIP3    H175577   2.628   5.233   1.367  1.0154 -1.0351 -2.2847
18054TIP3    H275578   2.545   5.244   1.241 -1.2540 -1.1252 -0.8425
18055TIP3   OH275579   0.936   3.387   3.319 -0.3532 -0.2280  0.1636
18055TIP3    H175580   0.884   3.352   3.391 -0.6458  0.3173  0.2192
18055TIP3    H275581   0.880   3.380   3.243  0.4674 -2.1349 -0.3092
18056TIP3   OH275582   0.406   1.650   1.100 -0.2092 -0.8951 -0.2954
18056TIP3    H175583   0.402   1.673   1.007 -1.2748  0.4351  0.0570
18056TIP3    H275584   0.498   1.629   1.116  0.2302  0.1983 -1.3511
18057TIP3   OH275585   1.409   6.167  13.769  0.1594 -0.2247 -0.0404
18057TIP3    H175586   1.335   6.117  13.735 -0.1493 -0.6971  1.3008
18057TIP3    H275587   1.395   6.256  13.735  0.3755 -0.8843 -1.9060
18058TIP3   OH275588   2.637   1.668   1.450  0.0023  0.6199  0.1978
18058TIP3    H175589   2.724   1.640   1.424  0.3641  0.1716  1.7946
18058TIP3    H275590   2.585   1.588   1.452 -0.0619  0.6685  0.6454
18059TIP3   OH275591   3.932   5.681   1.834 -0.4491  0.0767 -0.1338
18059TIP3    H175592   3.937   5.596   1.791 -1.0210 -0.0820  0.1218
18059TIP3    H275593   3.977   5.740   1.773 -3.1142  0.2724 -1.9898
18060TIP3   OH275594   2.553   2.924  14.595  0.0011 -0.0557  0.1735
18060TIP3    H175595   2.530   2.873  14.518 -0.2192  1.0057 -0.4776
18060TIP3    H275596   2.634   2.884  14.628 -0.4627 -1.1504 -0.0026
18061TIP3   OH275597   4.049   1.923   1.330 -0.5500 -0.6362  0.1827
18061TIP3    H175598   3.977   1.865   1.357 -0.6468 -0.0391  1.2669
18061TIP3    H275599   4.051   1.990   1.399  1.7970 -1.2878  0.7710
18062TIP3   OH275600   6.489   4.850  16.902 -0.2876 -0.1890  0.0781
18062TIP3    H175601   6.400   4.852  16.936  0.3363 -0.8358  1.7879
18062TIP3    H275602   6.545   4.846  16.979  1.2723  1.1738 -0.9447
18063TIP3   OH275603   0.955   0.659  16.053 -0.1078 -0.3587  0.0690
18063TIP3    H175604   0.945   0.586  16.114  1.4470 -0.2225  0.5149
18063TIP3    H275605   0.938   0.737  16.107  0.0600 -0.2966  0.0301
18064TIP3   OH275606   0.966   5.630   4.155 -0.1788 -0.4211  0.1017
18064TIP3    H175607   1.061   5.629   4.140 -0.3106 -0.6723 -0.7252
18064TIP3    H275608   0.939   5.539   4.141 -0.6826 -0.1671 -0.5951
18065TIP3   OH275609   3.115   5.285  11.408 -0.1124 -0.6195 -0.3295
18065TIP3    H175610   3.196   5.330  11.381 -0.3486  0.4124  0.6282
18065TIP3    H275611   3.100   5.315  11.498 -1.5612 -0.8141 -0.4926
18066TIP3   OH275612   1.723   4.706   1.742  0.0872 -0.6840  0.1309
18066TIP3    H175613   1.631   4.701   1.767  0.6219 -1.0375  2.0518
18066TIP3    H275614   1.724   4.771   1.671 -1.6153 -0.6026  0.1470
18067TIP3   OH275615   2.121   3.500  13.249  0.2663  0.8110  0.5935
18067TIP3    H175616   2.048   3.440  13.266  1.9777 -1.5519 -0.1474
18067TIP3    H275617   2.095   3.549  13.171 -0.1372 -0.6829 -0.2252
18068TIP3   OH275618   1.197   5.219  15.139  0.2953 -0.4186 -0.1594
18068TIP3    H175619   1.228   5.260  15.058 -2.0445 -1.4863 -1.6489
18068TIP3    H275620   1.125   5.274  15.168 -0.4844 -1.3952 -0.1895
18069TIP3   OH275621   1.784   0.149  16.221  0.0718 -0.3580  1.3945
18069TIP3    H175622   1.777   0.232  16.174  0.3556 -0.8579  0.4469
18069TIP3    H275623   1.796   0.174  16.312  2.6475  0.6960  0.8084
18070TIP3   OH275624   5.630   1.876   0.079 -0.0327  0.0216 -0.1040
18070TIP3    H175625   5.626   1.920   0.164 -1.2136  0.7299 -0.5137
18070TIP3    H275626   5.631   1.783   0.100  1.9609  0.2215  0.7572
18071TIP3   OH275627   1.480   2.959  11.386 -0.4237 -0.2400  0.6410
18071TIP3    H175628   1.471   3.001  11.472  2.0575  0.1739  0.7500
18071TIP3    H275629   1.451   3.026  11.324 -1.0711 -0.1061  1.0755
18072TIP3   OH275630   4.813   1.067   3.367 -0.1175 -0.2617 -0.2607
18072TIP3    H175631   4.799   0.972   3.359 -2.5662  0.2476 -2.7947
18072TIP3    H275632   4.906   1.076   3.386 -0.1421 -3.2378  1.6132
18073TIP3   OH275633   5.244   3.663  17.226  0.0197  0.0616 -0.2097
18073TIP3    H175634   5.214   3.677  17.315  0.5503  0.4113 -0.0773
18073TIP3    H275635   5.222   3.572  17.206 -0.6714  0.1754  0.0513
18074TIP3   OH275636   3.103   1.963  12.595 -0.3798 -0.1387 -0.3698
18074TIP3    H175637   3.019   1.930  12.627 -0.4335 -0.0971 -0.4678
18074TIP3    H275638   3.094   2.059  12.598 -0.1446 -0.1300  0.1229
18075TIP3   OH275639   2.407   2.063   3.868 -0.1811 -0.0106 -0.2061
18075TIP3    H175640   2.432   2.135   3.925 -1.1617  0.4154 -0.2954
18075TIP3    H275641   2.482   2.050   3.811  0.6786 -0.2241  0.9689
18076TIP3   OH275642   4.156   1.912  15.430  0.1441  0.1595  0.1743
18076TIP3    H175643   4.235   1.960  15.452 -0.3946  0.9690  0.3680
18076TIP3    H275644   4.106   1.911  15.512  0.1828 -0.7831  0.1856
18077TIP3   OH275645   4.851   4.709  11.924 -0.6684  0.3247  0.0946
18077TIP3    H175646   4.775   4.766  11.938  0.5986  2.0554  0.0830
18077TIP3    H275647   4.839   4.637  11.986 -2.0817  0.8071  0.4066
18078TIP3   OH275648   2.527   2.487  10.995 -0.3738 -0.2653 -0.5575
18078TIP3    H175649   2.563   2.423  10.934  0.9190 -0.1191  0.0239
18078TIP3    H275650   2.603   2.519  11.043 -1.3950 -0.5591  1.3045
18079TIP3   OH275651   5.452   3.136  12.795 -0.4790  0.1426  0.2069
18079TIP3    H175652   5.472   3.057  12.746 -1.6277  1.3286 -2.2607
18079TIP3    H275653   5.537   3.175  12.815  0.0482 -1.1834  0.5934
18080TIP3   OH275654   1.259   6.625  16.659  0.2332  0.0021  0.1765
18080TIP3    H175655   1.326   6.603  16.594 -0.5622 -0.1202 -0.6193
18080TIP3    H275656   1.181   6.578  16.630  0.5852 -2.3188  2.8009
18081TIP3   OH275657   3.545   4.040  15.809  0.4205 -0.3884  0.1028
18081TIP3    H175658   3.639   4.039  15.787  0.8769  2.1784  1.7525
18081TIP3    H275659   3.531   4.125  15.850 -3.0455 -0.0107 -1.7444
18082TIP3   OH275660   5.406   4.488  11.743 -0.2039 -0.5477  0.2366
18082TIP3    H175661   5.369   4.523  11.662  1.1500  0.1201 -0.1047
18082TIP3    H275662   5.389   4.394  11.738  1.3679 -0.7599 -1.6472
18083TIP3   OH275663   0.712   6.543  15.605 -0.1564 -0.0931  0.2521
18083TIP3    H175664   0.622   6.552  15.573 -0.4426  0.5132  1.1970
18083TIP3    H275665   0.724   6.448  15.615 -0.3323 -0.2400 -0.8428
18084TIP3   OH275666   1.378   6.136   1.891  0.0863 -1.0274  0.3313
18084TIP3    H175667   1.448   6.169   1.947 -0.4109  2.2811 -0.9104
18084TIP3    H275668   1.422   6.113   1.809 -0.2882  1.4865 -0.6125
18085TIP3   OH275669   0.941   4.617   3.071 -0.3562 -0.1778 -0.2781
18085TIP3    H175670   1.018   4.561   3.065  0.8468  0.8328  4.0435
18085TIP3    H275671   0.964   4.695   3.020  0.9177 -0.5144 -0.2293
18086TIP3   OH275672   5.091   2.230   2.273  0.3343  0.1727 -0.3388
18086TIP3    H175673   5.146   2.153   2.288 -0.6492 -0.8827 -2.0032
18086TIP3    H275674   5.021   2.223   2.338 -0.1449 -0.7161 -0.9506
18087TIP3   OH275675   1.785   4.626  11.378  0.3129 -0.3563  0.4040
18087TIP3    H175676   1.699   4.600  11.345 -0.4777  1.9944  0.4860
18087TIP3    H275677   1.844   4.617  11.303 -0.5620  0.6050 -0.4154
18088TIP3   OH275678   1.943   4.862  16.696 -0.1629  0.3828  0.5712
18088TIP3    H175679   2.001   4.891  16.625  0.5552 -0.7225  0.6897
18088TIP3    H275680   2.002   4.839  16.767 -0.8026  0.1615  1.0364
18089TIP3   OH275681   1.911   1.604   3.896  0.9624 -0.4707  0.3920
18089TIP3    H175682   1.826   1.621   3.937  0.4878  0.9229 -1.1208
18089TIP3    H275683   1.904   1.513   3.865  0.5057 -0.7856  1.3834
18090TIP3   OH275684   1.851   6.511  14.909 -0.1722  0.3222  0.2246
18090TIP3    H175685   1.766   6.530  14.949 -0.6708  1.5174 -1.3731
18090TIP3    H275686   1.852   6.416  14.898 -0.9182  0.2092  1.0703
18091TIP3   OH275687   1.232   2.332   4.574 -0.1875  0.0023 -0.4126
18091TIP3    H175688   1.216   2.342   4.480  1.2209 -0.9315 -0.7660
18091TIP3    H275689   1.241   2.237   4.587  1.4242  0.2445  0.3532
18092TIP3   OH275690   0.201   2.885  13.801 -0.4467  0.1504  0.0939
18092TIP3    H175691   0.108   2.894  13.780 -0.6262  2.5694  1.7071
18092TIP3    H275692   0.212   2.935  13.882  2.2520 -0.1037 -0.0879
18093TIP3   OH275693   3.800   5.556   0.044  0.8597  0.1546  0.3400
18093TIP3    H175694   3.765   5.517  -0.036  1.5815  1.3034 -0.5687
18093TIP3    H275695   3.870   5.614   0.013 -0.2144  2.2061  1.6068
18094TIP3   OH275696   4.155   2.278   3.011  0.0766 -0.4472 -0.3438
18094TIP3    H175697   4.138   2.186   3.031  0.4641 -0.5410 -0.4388
18094TIP3    H275698   4.166   2.320   3.096  0.0415 -0.5151 -0.3055
18095TIP3   OH275699   0.116   0.133   1.883 -0.1103  0.3828 -0.2695
18095TIP3    H175700   0.187   0.197   1.873  0.7592 -0.1911  1.9402
18095TIP3    H275701   0.120   0.108   1.975 -0.9755 -2.2430 -0.9145
18096TIP3   OH275702   2.487   1.991   1.740  0.0140  0.1758  0.4528
18096TIP3    H175703   2.398   1.981   1.708  0.3324 -0.2700 -0.3033
18096TIP3    H275704   2.477   2.015   1.833 -0.9020  1.3042  0.0730
18097TIP3   OH275705   1.262   2.968  16.997  0.2001 -0.2916  0.0861
18097TIP3    H175706   1.318   2.999  16.926 -0.4032  0.5379 -0.0395
18097TIP3    H275707   1.179   2.949  16.955 -0.6233  1.6141  0.7858
18098TIP3   OH275708   4.677   3.075   2.872 -0.2923  0.2791 -0.3354
18098TIP3    H175709   4.601   3.024   2.902 -0.0249 -0.2856 -0.6020
18098TIP3    H275710   4.707   3.028   2.794  1.4241 -0.5670  0.7996
18099TIP3   OH275711   0.969   3.559  16.883 -0.4684 -0.1885 -0.2124
18099TIP3    H175712   0.944   3.524  16.968  2.4091 -0.6478  0.4982
18099TIP3    H275713   0.943   3.491  16.821  0.0300 -1.1649  0.6140
18100TIP3   OH275714   6.083   2.962  13.443  0.4419 -0.7124  0.0996
18100TIP3    H175715   6.028   2.953  13.520  0.8011 -0.7478  0.3524
18100TIP3    H275716   6.027   2.936  13.370 -0.4778  1.0347  0.1458
18101TIP3   OH275717   1.023   4.820   4.267 -0.2383  0.2837  0.0186
18101TIP3    H175718   1.106   4.799   4.225 -0.1491  0.8100 -0.0616
18101TIP3    H275719   1.040   4.810   4.361 -0.2138 -0.0669 -0.0212
18102TIP3   OH275720   6.613   5.914  15.762  0.4802 -0.1859  0.1082
18102TIP3    H175721   6.569   5.942  15.682 -1.3990  0.4327  1.3339
18102TIP3    H275722   6.666   5.989  15.787  1.2471 -0.4591 -0.6623
18103TIP3   OH275723   3.984   3.588   2.917  0.7367  0.2518 -0.2348
18103TIP3    H175724   3.915   3.598   2.851  0.2436 -0.0206  0.2297
18103TIP3    H275725   4.033   3.511   2.890 -0.1656 -0.5400  0.3214
18104TIP3   OH275726   5.327   1.991  14.814 -0.5913 -0.2007  0.4890
18104TIP3    H175727   5.334   1.940  14.733 -1.0049  0.7261 -0.1440
18104TIP3    H275728   5.251   1.955  14.860  0.4150 -1.5980  1.1029
18105TIP3   OH275729   1.547   1.250   0.329 -0.2592  0.0284  0.4713
18105TIP3    H175730   1.479   1.199   0.284  0.3501 -0.8852  0.5639
18105TIP3    H275731   1.524   1.244   0.422 -0.4295  0.2799  0.4445
18106TIP3   OH275732   2.684   1.547  14.442 -0.1735  0.7467 -0.2413
18106TIP3    H175733   2.606   1.601  14.433 -0.3233  0.4508 -0.7595
18106TIP3    H275734   2.724   1.575  14.524 -1.2965  0.2835  0.4711
18107TIP3   OH275735   0.291   1.582  13.571  0.4762  0.2005 -0.0557
18107TIP3    H175736   0.335   1.497  13.569 -1.2051 -0.6965 -0.4976
18107TIP3    H275737   0.199   1.561  13.551 -0.1706  1.9901  0.9705
18108TIP3   OH275738   2.788   2.053   0.968 -0.0416  0.2818  0.9123
18108TIP3    H175739   2.808   1.985   1.031  0.2741 -0.1284  0.3693
18108TIP3    H275740   2.840   2.032   0.891  0.4397  1.4086  0.9128
18109TIP3   OH275741   0.473   3.601   1.432 -0.1851  0.4467 -0.7286
18109TIP3    H175742   0.460   3.650   1.513  0.1922  0.8699 -0.9246
18109TIP3    H275743   0.418   3.646   1.368 -1.2985 -0.5101 -0.4660
18110TIP3   OH275744   3.574   6.448   3.462 -0.0001  0.4719  0.1013
18110TIP3    H175745   3.612   6.527   3.425 -0.6218  0.9280  0.4303
18110TIP3    H275746   3.532   6.477   3.543 -0.9441 -0.0346 -0.1912
18111TIP3   OH275747   4.948   3.755   2.007 -0.0848 -0.4317 -0.1740
18111TIP3    H175748   4.979   3.832   2.055 -0.7044  0.5740 -1.3642
18111TIP3    H275749   4.864   3.733   2.048 -0.5830  0.3913 -0.7311
18112TIP3   OH275750   5.774   2.114   1.762 -0.0377  0.3977  0.1333
18112TIP3    H175751   5.684   2.141   1.748 -0.6201 -0.9580  1.1733
18112TIP3    H275752   5.826   2.174   1.707 -1.5159  1.4547 -0.1376
18113TIP3   OH275753   6.143   5.852  16.270 -0.3877  0.0783 -0.1070
18113TIP3    H175754   6.138   5.890  16.358 -1.3553  0.0657 -0.1417
18113TIP3    H275755   6.109   5.922  16.213 -0.0436 -0.0218 -0.4334
18114TIP3   OH275756   6.531   0.619   4.416 -0.1272 -0.0870  0.4643
18114TIP3    H175757   6.623   0.632   4.436  0.3930 -2.0837 -0.4439
18114TIP3    H275758   6.507   0.538   4.461 -1.4926  0.5118  0.8527
18115TIP3   OH275759   0.622   0.020  12.623 -0.0504 -0.2356  0.3615
18115TIP3    H175760   0.690   0.087  12.635  0.2721 -0.5042  0.0513
18115TIP3    H275761   0.572   0.022  12.704  0.7455 -0.5091  0.8670
18116TIP3   OH275762   6.394   6.643  16.148 -0.7271 -0.0456 -0.1239
18116TIP3    H175763   6.350   6.710  16.201 -0.6407 -1.0310  1.2118
18116TIP3    H275764   6.453   6.693  16.091 -1.5331  1.0944  0.0187
18117TIP3   OH275765   0.382   4.840  15.855 -0.4541 -0.4422  0.0636
18117TIP3    H175766   0.375   4.896  15.777  1.1813 -1.3015 -0.7276
18117TIP3    H275767   0.445   4.886  15.911 -1.0626 -0.1991  0.5436
18118TIP3   OH275768   6.489   4.246   3.632 -0.0926 -0.1870  0.4216
18118TIP3    H175769   6.457   4.215   3.547  0.8987  0.1768 -0.0958
18118TIP3    H275770   6.549   4.178   3.662 -1.5378 -1.0074  1.5274
18119TIP3   OH275771   2.317   5.689  14.414 -0.0946 -0.3152  0.5160
18119TIP3    H175772   2.315   5.620  14.347 -1.0174  0.0332  0.1697
18119TIP3    H275773   2.382   5.752  14.382 -1.6257  0.6138 -0.8485
18120TIP3   OH275774   6.511   3.265  15.553  0.1249  0.0737  0.2498
18120TIP3    H175775   6.519   3.251  15.648  0.5920 -1.5672 -0.0138
18120TIP3    H275776   6.424   3.305  15.542 -0.1173 -0.1331  1.3265
18121TIP3   OH275777   6.687   4.819  13.477  0.2484 -0.1131  0.3345
18121TIP3    H175778   6.770   4.780  13.504  0.8727  1.5293  0.8254
18121TIP3    H275779   6.673   4.891  13.539 -1.0095  0.2903 -0.4103
18122TIP3   OH275780   1.726   5.430   6.108  0.0418 -0.7418 -0.3142
18122TIP3    H175781   1.648   5.376   6.117 -0.1094 -0.5076 -0.2152
18122TIP3    H275782   1.721   5.493   6.180  0.9287 -1.4821  0.4116
18123TIP3   OH275783   1.682   5.051   5.195 -0.4600  0.0467  0.3622
18123TIP3    H175784   1.696   5.012   5.281  1.7614  0.0032 -0.0027
18123TIP3    H275785   1.725   5.137   5.201  0.9921 -0.5535 -1.1573
18124TIP3   OH275786   0.953   3.657   3.267  0.2607 -0.5850  0.4050
18124TIP3    H175787   0.982   3.690   3.352  1.8401 -0.1743 -0.2843
18124TIP3    H275788   0.957   3.561   3.275 -0.3386 -0.5594  1.0377
18125TIP3   OH275789   3.068   6.452   3.281  0.5063  0.0793  0.0798
18125TIP3    H175790   3.074   6.500   3.198  1.0582  1.0489  0.6637
18125TIP3    H275791   3.123   6.375   3.268  1.3042  0.6768 -0.1600
18126TIP3   OH275792   4.060   4.375   3.769 -0.1201 -0.8157  0.0751
18126TIP3    H175793   3.975   4.347   3.737 -1.3720  0.2758  2.3346
18126TIP3    H275794   4.121   4.352   3.699 -2.5606  0.4180 -2.5317
18127TIP3   OH275795   6.006   3.790   1.115  0.3305  0.4148 -0.1241
18127TIP3    H175796   5.941   3.732   1.074 -1.0402  2.1298 -0.4576
18127TIP3    H275797   6.017   3.755   1.203 -0.5927 -0.2929 -0.2798
18128TIP3   OH275798   5.466   0.944  17.001  0.1653 -0.1460  0.1471
18128TIP3    H175799   5.408   0.987  16.940 -1.3690  0.3119  1.8869
18128TIP3    H275800   5.508   1.015  17.049  0.8817 -0.5060  0.0670
18129TIP3   OH275801   2.221   5.694   1.715  0.4603  0.1638 -0.0559
18129TIP3    H175802   2.233   5.733   1.629  1.5305 -0.0761 -0.0262
18129TIP3    H275803   2.310   5.676   1.746  0.0549 -0.6181  0.6939
18130TIP3   OH275804   0.836   4.837  14.782  0.0467  0.2727 -0.0587
18130TIP3    H175805   0.902   4.768  14.786  0.0451  0.1627 -1.8200
18130TIP3    H275806   0.880   4.915  14.814  0.5795 -0.1440  0.2179
18131TIP3   OH275807   3.267   2.315   2.661  0.4603 -0.2343  0.1342
18131TIP3    H175808   3.269   2.302   2.566 -0.4027 -0.3236  0.1231
18131TIP3    H275809   3.264   2.410   2.672 -2.5768 -0.2586 -0.0231
18132TIP3   OH275810   5.869   0.327   5.231  0.0623 -0.1403 -0.1611
18132TIP3    H175811   5.788   0.377   5.217  0.8396  0.7439 -1.6093
18132TIP3    H275812   5.882   0.280   5.149  1.8629  0.9561 -0.5182
18133TIP3   OH275813   1.894   5.250  14.925 -0.2432  0.4101 -0.5372
18133TIP3    H175814   1.811   5.207  14.946 -0.3373 -0.5037 -2.6846
18133TIP3    H275815   1.961   5.185  14.948 -0.2246  0.3077 -0.8889
18134TIP3   OH275816   4.297   0.720   6.014 -0.3643 -0.0421  0.2292
18134TIP3    H175817   4.302   0.666   6.093 -0.6680 -1.6546 -0.8354
18134TIP3    H275818   4.388   0.741   5.994 -0.4099  3.0012  2.7244
18135TIP3   OH275819   2.786   0.575  11.453  0.4848 -0.0031  0.3652
18135TIP3    H175820   2.838   0.504  11.415 -0.2023 -0.2294 -0.1586
18135TIP3    H275821   2.696   0.553  11.431  0.2866  1.1545  0.0027
18136TIP3   OH275822   2.773   0.737  14.043 -0.2453  0.3280  0.1714
18136TIP3    H175823   2.715   0.693  14.106 -2.3635 -0.8967 -2.5549
18136TIP3    H275824   2.860   0.703  14.063 -0.7741  0.3588  2.7567
18137TIP3   OH275825   0.880   4.579  11.659 -0.4606  0.4684  0.5553
18137TIP3    H175826   0.967   4.557  11.625 -0.0853 -1.1739  2.4989
18137TIP3    H275827   0.838   4.495  11.674 -1.8176  1.2361  1.1159
18138TIP3   OH275828   1.907   2.888   5.781  0.6700 -0.2408 -0.1459
18138TIP3    H175829   1.889   2.969   5.829 -0.3602 -0.0477 -0.8639
18138TIP3    H275830   2.003   2.879   5.786  0.7182  0.6014  0.6028
18139TIP3   OH275831   3.483   3.656  12.874  0.1051  0.3188 -0.1061
18139TIP3    H175832   3.443   3.742  12.863  0.9486  0.6148 -0.9196
18139TIP3    H275833   3.447   3.603  12.803  2.4871  1.0958 -1.9637
18140TIP3   OH275834   2.274   4.261   3.240 -0.9427 -0.2774  0.2973
18140TIP3    H175835   2.217   4.260   3.317 -2.2678  0.8090 -0.6443
18140TIP3    H275836   2.235   4.327   3.183  1.1542  0.3201 -0.4705
18141TIP3   OH275837   0.908   4.571  15.190  0.5723  0.2833  0.4595
18141TIP3    H175838   0.813   4.565  15.201  0.4155  4.1838  2.2732
18141TIP3    H275839   0.923   4.663  15.168  3.9342 -0.2837  0.1426
18142TIP3   OH275840   1.271   5.323   4.076  0.0901 -0.2825  0.4360
18142TIP3    H175841   1.233   5.410   4.067 -0.5011 -0.4580  1.1851
18142TIP3    H275842   1.335   5.317   4.005 -0.1242  0.6241  0.1645
18143TIP3   OH275843   2.345   4.511   3.713 -0.4395  0.0411  0.3625
18143TIP3    H175844   2.329   4.593   3.667  0.8143 -0.1443 -0.4032
18143TIP3    H275845   2.347   4.536   3.806 -0.8033  0.7464  0.1853
18144TIP3   OH275846   6.246   2.802  16.192  0.0616  0.5382  0.0854
18144TIP3    H175847   6.225   2.887  16.231  1.9068  0.6074  0.9598
18144TIP3    H275848   6.172   2.746  16.214  0.7354  0.7644  3.1061
18145TIP3   OH275849   3.313   5.549  15.521 -0.0362  0.0579 -0.0976
18145TIP3    H175850   3.357   5.548  15.436 -1.4100 -0.2362 -0.8151
18145TIP3    H275851   3.383   5.533  15.584  1.0847  0.8852 -1.1278
18146TIP3   OH275852   6.497   3.292  13.029 -0.2563 -0.0860  0.5846
18146TIP3    H175853   6.487   3.343  13.110 -1.5691 -0.9390  0.9880
18146TIP3    H275854   6.409   3.286  12.994  0.3812  0.6511 -1.1710
18147TIP3   OH275855   1.816   0.410   5.888 -0.6850 -0.7081  0.7697
18147TIP3    H175856   1.851   0.351   5.821 -0.9825  0.3764 -0.3832
18147TIP3    H275857   1.791   0.353   5.960  0.6886 -1.8006  0.4050
18148TIP3   OH275858   2.203   3.865  13.163  0.4172  0.1437 -0.2493
18148TIP3    H175859   2.184   3.889  13.072  1.3606 -0.2143 -0.5445
18148TIP3    H275860   2.268   3.795  13.156 -1.1911 -1.4726  0.6468
18149TIP3   OH275861   6.116   4.995  15.859  0.2276  0.3333 -0.0302
18149TIP3    H175862   6.208   4.967  15.865  0.2014  0.6114  1.7849
18149TIP3    H275863   6.120   5.084  15.824  0.7228  0.7496  1.0690
18150TIP3   OH275864   3.676   2.291  16.023  0.1595 -0.3809  0.3077
18150TIP3    H175865   3.617   2.253  16.088  0.3244  0.1811  0.7844
18150TIP3    H275866   3.623   2.297  15.944  0.1871 -1.7843  0.1715
18151TIP3   OH275867   0.243   1.074   4.068  0.4684  0.2892 -0.2338
18151TIP3    H175868   0.153   1.045   4.080 -0.6025  2.8907 -1.5389
18151TIP3    H275869   0.271   1.105   4.154  0.0234 -0.2105  0.0934
18152TIP3   OH275870   4.453   3.593  15.505 -0.5823  0.0493  0.6958
18152TIP3    H175871   4.428   3.625  15.592  2.7950 -0.2259  1.8721
18152TIP3    H275872   4.486   3.671  15.460  4.0595 -0.8650  2.2020
18153TIP3   OH275873   0.875   5.033   1.725 -0.1624  0.1344 -0.0791
18153TIP3    H175874   0.871   5.128   1.736  0.6403 -0.1455  3.0721
18153TIP3    H275875   0.797   5.001   1.771  0.7095 -0.8621  0.7164
18154TIP3   OH275876   0.409   5.626  12.535  0.2360  0.1393 -0.4968
18154TIP3    H175877   0.465   5.548  12.527  0.4788  0.3069 -0.4610
18154TIP3    H275878   0.361   5.613  12.617  0.1647 -0.0437 -0.5680
18155TIP3   OH275879   3.788   5.652   4.503  0.0442  0.5361  0.0880
18155TIP3    H175880   3.820   5.566   4.474 -1.4293 -0.0457  0.0991
18155TIP3    H275881   3.796   5.649   4.598  0.5670  0.6404  0.0452
18156TIP3   OH275882   4.378   3.999   5.883  0.1540  0.0861  0.2251
18156TIP3    H175883   4.432   3.939   5.831 -0.5483 -0.6151  0.3019
18156TIP3    H275884   4.336   4.056   5.819  0.0085 -0.1781  0.0865
18157TIP3   OH275885   3.002   4.828  15.759  0.0417 -0.0006 -0.1212
18157TIP3    H175886   2.927   4.814  15.701 -0.0410 -0.7643  0.1641
18157TIP3    H275887   2.963   4.860  15.841 -0.0109 -0.8682  0.1902
18158TIP3   OH275888   2.948   5.621   3.415 -0.3383  0.2110  0.0973
18158TIP3    H175889   2.864   5.648   3.454 -0.1255  1.7242 -0.4436
18158TIP3    H275890   2.956   5.529   3.437 -3.2407 -0.5503 -1.7963
18159TIP3   OH275891   2.310   3.756  11.531  0.5688 -0.1573 -0.0405
18159TIP3    H175892   2.218   3.776  11.544  0.5982  1.0457 -1.5871
18159TIP3    H275893   2.337   3.711  11.612 -1.8547 -2.3624 -0.4040
18160TIP3   OH275894   6.735   1.728  13.636 -0.1475  0.7567  0.5926
18160TIP3    H175895   6.741   1.659  13.569  0.5167  0.2611  1.1555
18160TIP3    H275896   6.782   1.802  13.597  1.3490  0.0607  0.9963
18161TIP3   OH275897   1.433   1.027   1.640  0.3633  0.0805  0.3426
18161TIP3    H175898   1.344   0.995   1.624  0.4363  0.3337 -0.5980
18161TIP3    H275899   1.488   0.975   1.581  1.0800 -1.3816  2.2618
18162TIP3   OH275900   3.801   3.359   5.582  0.6147  0.1288 -0.3619
18162TIP3    H175901   3.843   3.324   5.661 -1.7358 -2.0684 -0.0067
18162TIP3    H275902   3.764   3.443   5.609 -1.5797 -1.3472  1.3916
18163TIP3   OH275903   4.808   6.531   0.973  0.7215 -0.5851 -0.4593
18163TIP3    H175904   4.749   6.594   1.013  1.2923 -0.4347  0.1575
18163TIP3    H275905   4.754   6.453   0.959  0.6030 -0.7743  0.9590
18164TIP3   OH275906   3.690   0.884  12.842 -0.4788  0.5063  0.9771
18164TIP3    H175907   3.771   0.932  12.824  0.1160 -0.5422  0.8242
18164TIP3    H275908   3.620   0.944  12.816  0.2941  0.6053 -0.9377
18165TIP3   OH275909   2.625   0.411   1.092 -0.0055  0.6005 -0.1120
18165TIP3    H175910   2.536   0.379   1.077  0.7279 -1.0413 -1.0871
18165TIP3    H275911   2.675   0.332   1.112  0.7990  1.7359  2.6828
18166TIP3   OH275912   5.837   6.580  13.051  0.0924 -0.1485 -0.0945
18166TIP3    H175913   5.810   6.625  12.971  1.8318  0.5309 -0.3362
18166TIP3    H275914   5.768   6.516  13.068 -0.8630  0.4954 -1.4961
18167TIP3   OH275915   2.464   1.536  14.159  0.0677  0.3075  0.2284
18167TIP3    H175916   2.385   1.484  14.168 -1.3003  1.8249 -2.3993
18167TIP3    H275917   2.443   1.619  14.202  0.6384  0.3038  0.5199
18168TIP3   OH275918   6.134   2.433  12.674 -0.4869  0.4323  0.1268
18168TIP3    H175919   6.224   2.463  12.665 -0.8546  1.6627  0.5732
18168TIP3    H275920   6.096   2.489  12.741 -1.0179 -1.3735  1.3654
18169TIP3   OH275921   4.820   0.917   2.517  0.1719  0.0586 -0.0676
18169TIP3    H175922   4.773   0.990   2.478 -0.0400 -0.9828 -1.8648
18169TIP3    H275923   4.912   0.935   2.498  0.1238 -0.1098 -0.4699
18170TIP3   OH275924   3.352   6.010   1.250 -0.1299 -0.3273 -0.0267
18170TIP3    H175925   3.370   5.943   1.184  0.1408  0.1969 -0.4890
18170TIP3    H275926   3.304   6.078   1.202 -0.5805 -0.2796  0.4869
18171TIP3   OH275927   2.626   1.850  15.316  0.1839  0.4360 -0.2991
18171TIP3    H175928   2.586   1.852  15.229 -0.2877  1.3253 -0.0693
18171TIP3    H275929   2.678   1.770  15.317  0.3216  0.5127 -1.4588
18172TIP3   OH275930   4.285   0.489  17.167 -0.2642  0.2932 -0.2310
18172TIP3    H175931   4.239   0.568  17.192 -1.2839 -0.7325  1.1629
18172TIP3    H275932   4.271   0.428  17.239  0.9426 -0.9886 -1.0418
18173TIP3   OH275933   1.421   0.553  16.562 -0.1928  0.3201 -0.3713
18173TIP3    H175934   1.438   0.646  16.571 -0.2510  0.3249 -0.3042
18173TIP3    H275935   1.446   0.516  16.647 -0.5709  0.3376 -0.2519
18174TIP3   OH275936   3.958   4.347   4.369  0.4300 -0.2720 -1.0099
18174TIP3    H175937   4.038   4.400   4.368  0.9584 -0.9705  1.2802
18174TIP3    H275938   3.888   4.409   4.389  1.0690 -0.4256  1.8463
18175TIP3   OH275939   2.870   3.848  16.963 -0.0327  0.5116  0.8247
18175TIP3    H175940   2.827   3.932  16.946  0.0303  0.3546 -0.1306
18175TIP3    H275941   2.847   3.827  17.054 -0.1238  1.5169  1.0393
18176TIP3   OH275942   5.878   1.717  14.843 -0.3280 -0.0473  0.3205
18176TIP3    H175943   5.802   1.767  14.872 -0.8369 -0.0797 -0.9294
18176TIP3    H275944   5.842   1.640  14.799  0.4486 -1.1738  1.6069
18177TIP3   OH275945   0.507   1.416  16.384 -0.2860  0.0336  0.2798
18177TIP3    H175946   0.494   1.340  16.441 -1.0801 -0.1708 -0.1668
18177TIP3    H275947   0.530   1.378  16.299  0.3156  0.3251  0.3098
18178TIP3   OH275948   2.102   1.848  15.916  0.2518 -0.2998  0.0970
18178TIP3    H175949   2.057   1.771  15.883 -0.6747 -0.0696  0.8187
18178TIP3    H275950   2.113   1.832  16.010  1.9098 -0.4660 -0.0982
18179TIP3   OH275951   6.084   2.442   0.106 -0.3747  0.2594  0.3397
18179TIP3    H175952   6.100   2.524   0.058 -1.2362  1.3848  1.9273
18179TIP3    H275953   6.170   2.417   0.140  0.3201 -0.7568 -2.0677
18180TIP3   OH275954   3.517   1.754  11.305  0.0019 -0.0472 -0.3626
18180TIP3    H175955   3.541   1.787  11.218  0.2461 -0.9087 -0.6329
18180TIP3    H275956   3.446   1.693  11.288  0.2011 -0.3855  0.0216
18181TIP3   OH275957   0.088   2.572  15.456 -0.0197  0.2756  0.0197
18181TIP3    H175958   0.178   2.579  15.486 -0.0170  0.6046 -0.0662
18181TIP3    H275959   0.078   2.481  15.430  0.1653  0.1391  0.4280
18182TIP3   OH275960   5.570   4.888   0.828  0.7109 -0.5304 -0.1658
18182TIP3    H175961   5.544   4.980   0.827  0.6529 -0.5446  0.2933
18182TIP3    H275962   5.576   4.865   0.920  1.9494 -0.6379 -0.2610
18183TIP3   OH275963   6.453   3.027  15.423  0.1550 -0.0696 -0.5108
18183TIP3    H175964   6.470   2.963  15.492  1.4830 -0.6502 -1.3721
18183TIP3    H275965   6.484   3.110  15.460  1.2066 -0.4420 -0.5350
18184TIP3   OH275966   0.380   6.206   1.093 -0.2869 -0.0280  0.7746
18184TIP3    H175967   0.387   6.298   1.069  1.1332 -0.0524  1.0616
18184TIP3    H275968   0.301   6.201   1.147 -1.4680  0.6697 -0.8370
18185TIP3   OH275969   5.394   1.102  14.795 -0.4028 -0.1649  0.0716
18185TIP3    H175970   5.407   1.010  14.771  3.3461  0.3229 -0.1401
18185TIP3    H275971   5.409   1.150  14.713 -1.6340  0.6965  0.3367
18186TIP3   OH275972   2.149   4.517   1.311  0.2366 -0.0444 -0.0788
18186TIP3    H175973   2.131   4.428   1.280  0.4990  0.6530 -2.3746
18186TIP3    H275974   2.062   4.556   1.325  0.1088 -0.3444 -0.0369
18187TIP3   OH275975   3.760   6.338  11.973 -0.6482 -0.1287  0.0502
18187TIP3    H175976   3.739   6.324  11.881 -0.3751  0.8699 -0.1758
18187TIP3    H275977   3.849   6.374  11.972 -0.9909  0.7619  0.6322
18188TIP3   OH275978   4.510   1.728  10.816  0.6715 -0.3235  0.1531
18188TIP3    H175979   4.521   1.635  10.834 -0.0109 -0.3023  0.7002
18188TIP3    H275980   4.597   1.766  10.828  0.9105 -0.8573  0.1063
18189TIP3   OH275981   0.558   2.161   2.017  0.0009 -0.0010  0.9143
18189TIP3    H175982   0.562   2.251   2.051 -0.3809  0.5409 -0.4559
18189TIP3    H275983   0.508   2.113   2.084 -1.8707  1.3406  0.5420
18190TIP3   OH275984   3.729   5.551   1.568 -0.5403 -1.0540 -0.4570
18190TIP3    H175985   3.753   5.499   1.644  2.3868 -2.2355 -2.0925
18190TIP3    H275986   3.812   5.572   1.526 -1.9411  1.3479 -2.1997
18191TIP3   OH275987   5.324   0.471  16.916 -0.0130 -0.9576 -0.0736
18191TIP3    H175988   5.300   0.429  16.833  1.5332 -1.9956 -0.0096
18191TIP3    H275989   5.306   0.404  16.982 -0.7642 -0.3044  0.3942
18192TIP3   OH275990   2.977   5.929  15.258 -0.0785 -0.1450 -0.5244
18192TIP3    H175991   2.892   5.892  15.234 -0.3859  0.1060  0.1663
18192TIP3    H275992   3.029   5.921  15.178 -0.8806  0.0827 -1.0822
18193TIP3   OH275993   1.967   4.052   5.234  0.0571 -0.1705  0.1344
18193TIP3    H175994   1.997   4.141   5.216 -1.6354  0.7525  1.6783
18193TIP3    H275995   1.910   4.031   5.160 -2.5189  1.5048  1.5571
18194TIP3   OH275996   4.544   1.217  11.406  0.2557  0.2815  0.0879
18194TIP3    H175997   4.583   1.258  11.329 -0.7251  1.5001  0.2311
18194TIP3    H275998   4.616   1.209  11.468  0.4188  1.9732  0.1336
18195TIP3   OH275999   6.248   2.467   4.495  0.4687 -0.1801 -0.0066
18195TIP3    H176000   6.277   2.558   4.500  2.1672 -0.6796 -0.6072
18195TIP3    H276001   6.175   2.468   4.432  0.9635  0.6500 -0.5721
18196TIP3   OH276002   4.284   5.327  12.475 -0.2018  0.5972  0.2213
18196TIP3    H176003   4.272   5.352  12.567  0.3533 -0.3518  0.5580
18196TIP3    H276004   4.299   5.233  12.478 -1.8032  0.2807 -0.9862
18197TIP3   OH276005   0.026   2.337  16.681 -0.2461 -0.2769  0.4915
18197TIP3    H176006   0.117   2.327  16.709  0.2754  0.5839 -0.7986
18197TIP3    H276007  -0.021   2.366  16.759  1.0470  1.5260  0.6295
18198TIP3   OH276008   0.301   1.141  13.133 -0.3911  0.2157  0.2691
18198TIP3    H176009   0.373   1.079  13.140  1.4261  2.3459  1.2217
18198TIP3    H276010   0.266   1.128  13.045  2.5246  0.5790 -0.9850
18199TIP3   OH276011   0.317   1.671   2.249  0.1821 -0.1850  0.1220
18199TIP3    H176012   0.235   1.714   2.273 -0.8582 -2.5374  0.9799
18199TIP3    H276013   0.290   1.598   2.192  2.0627  1.4010 -2.9528
18200TIP3   OH276014   2.047   5.774  12.359 -0.0866 -0.2236  0.0518
18200TIP3    H176015   2.053   5.805  12.268  0.4207 -1.7197 -0.4474
18200TIP3    H276016   2.120   5.816  12.403  0.3187 -0.3492 -0.4943
18201TIP3   OH276017   0.114   6.527  12.618 -0.2439 -0.0923 -0.7177
18201TIP3    H176018   0.156   6.498  12.537 -0.3587 -0.2052 -0.7389
18201TIP3    H276019   0.024   6.546  12.592 -0.4352 -0.6742 -0.5069
18202TIP3   OH276020   6.583   5.030   0.147 -0.7138 -0.0390  0.2033
18202TIP3    H176021   6.670   5.000   0.175 -0.0815  0.9192 -0.6928
18202TIP3    H276022   6.581   5.122   0.171 -1.7369 -0.2038  0.7860
18203TIP3   OH276023   4.854   5.850   4.621  0.2574 -0.0343  0.5026
18203TIP3    H176024   4.845   5.848   4.716 -1.1459  1.6590  0.4377
18203TIP3    H276025   4.771   5.815   4.589  0.1801  0.6921 -0.1014
18204TIP3   OH276026   2.068   6.350  14.538 -0.0796 -0.5067  0.1593
18204TIP3    H176027   2.120   6.382  14.612  0.4916 -0.1135 -0.4019
18204TIP3    H276028   2.056   6.257  14.556 -0.2663 -0.3401  0.9322
18205TIP3   OH276029   3.730   1.295   4.456 -0.3868 -0.0383  0.0397
18205TIP3    H176030   3.703   1.232   4.522 -2.5508 -0.9125 -1.6180
18205TIP3    H276031   3.774   1.243   4.389 -0.0150  0.5522 -0.1796
18206TIP3   OH276032   5.335   1.805  14.527 -0.2076 -0.1971  0.4197
18206TIP3    H176033   5.241   1.807  14.546 -0.2798  2.1847  0.0531
18206TIP3    H276034   5.347   1.874  14.462  1.9186  0.0922  1.0835
18207TIP3   OH276035   1.183   0.008  15.105 -0.1853  0.3796 -0.1666
18207TIP3    H176036   1.142   0.075  15.049 -1.1183 -0.4276 -0.4529
18207TIP3    H276037   1.192  -0.069  15.049 -0.2910 -0.1508  0.5378
18208TIP3   OH276038   1.530   5.112   1.477 -0.2788 -0.6805  0.6121
18208TIP3    H176039   1.464   5.109   1.407 -1.3254  1.0526  1.4950
18208TIP3    H276040   1.588   5.039   1.457  0.0985  0.4411 -2.7175
18209TIP3   OH276041   6.478   1.449   4.587 -0.4516  0.1522 -0.4507
18209TIP3    H176042   6.488   1.442   4.682 -1.9142  0.2932 -0.2691
18209TIP3    H276043   6.561   1.419   4.552 -0.4815 -1.5379  0.8379
18210TIP3   OH276044   2.922   6.603  15.075  0.0470  0.0302  0.3028
18210TIP3    H176045   2.877   6.519  15.088 -2.0041  0.7603 -1.8781
18210TIP3    H276046   2.939   6.607  14.981  2.2566  1.0359  0.7112
18211TIP3   OH276047   3.883   3.128  13.322 -0.2557  0.0103  0.5423
18211TIP3    H176048   3.964   3.083  13.300 -0.6243 -1.3125  1.7650
18211TIP3    H276049   3.842   3.147  13.237 -0.3595 -2.5243 -0.0190
18212TIP3   OH276050   4.932   6.728   2.259 -0.0541  1.1005  0.0872
18212TIP3    H176051   4.873   6.741   2.333  0.4256 -2.3687  1.2022
18212TIP3    H276052   4.970   6.814   2.243 -0.0847  1.9371  3.9544
18213TIP3   OH276053   5.848   0.943   4.226  0.4502 -0.1315  0.0820
18213TIP3    H176054   5.910   0.973   4.158  0.3986 -2.0881 -0.8491
18213TIP3    H276055   5.897   0.950   4.308  0.3853  2.6612 -0.0710
18214TIP3   OH276056   0.604   2.346   4.223 -0.4253  0.0436 -0.1739
18214TIP3    H176057   0.607   2.438   4.249 -0.9740 -0.2320  0.9226
18214TIP3    H276058   0.692   2.327   4.190 -0.1485  0.8141  0.1123
18215TIP3   OH276059   3.798   6.142   1.155  0.9224  0.7447 -0.1956
18215TIP3    H176060   3.744   6.186   1.090  0.7500 -1.3283 -1.5091
18215TIP3    H276061   3.742   6.133   1.232 -0.0613  0.0328 -0.9946
18216TIP3   OH276062   4.658   3.396  12.113 -0.1447 -0.3540 -0.2968
18216TIP3    H176063   4.647   3.313  12.160  0.3306 -1.6437 -2.3991
18216TIP3    H276064   4.679   3.460  12.181  0.9932 -2.2586  1.1869
18217TIP3   OH276065   0.873   5.229   2.579 -0.3328  0.0727  0.7127
18217TIP3    H176066   0.849   5.174   2.504  0.4025  0.4264  0.2031
18217TIP3    H276067   0.952   5.276   2.549 -1.8297  2.5742  0.5625
18218TIP3   OH276068   3.704   2.197  12.776 -0.0738  0.3466 -0.1808
18218TIP3    H176069   3.767   2.203  12.848  0.5431  0.0430 -0.6886
18218TIP3    H276070   3.640   2.266  12.795 -0.8815 -0.8511  1.5844
18219TIP3   OH276071   4.528   4.878   3.993  0.6078  0.3332  0.1804
18219TIP3    H176072   4.558   4.788   3.982 -0.1589  0.2072 -0.9461
18219TIP3    H276073   4.566   4.906   4.076 -1.0256 -1.7618  1.6612
18220TIP3   OH276074   2.328   6.531   5.416 -0.6025 -0.4476 -0.4035
18220TIP3    H176075   2.290   6.591   5.353  0.8285  2.1355  1.1189
18220TIP3    H276076   2.256   6.472   5.439 -2.0274  0.6486 -1.9623
18221TIP3   OH276077   6.717   4.468   4.121  0.4059 -0.5107  0.4475
18221TIP3    H176078   6.689   4.405   4.055  0.1224  0.5541 -0.4608
18221TIP3    H276079   6.744   4.545   4.071 -0.6011  0.6211  1.5968
18222TIP3   OH276080   3.489   0.552  14.549  0.0272  0.1821  0.2393
18222TIP3    H176081   3.438   0.487  14.597  0.8127  1.9003  3.5202
18222TIP3    H276082   3.574   0.552  14.592  1.4851  0.2744 -2.5666
18223TIP3   OH276083   3.964   3.978  15.535  0.0286  0.1356 -0.4942
18223TIP3    H176084   4.002   3.892  15.519  0.6792  0.6537 -1.8187
18223TIP3    H276085   3.894   3.963  15.598  0.3295 -1.3138 -0.5053
18224TIP3   OH276086   2.405   1.203   1.091 -0.2677 -0.5245 -0.6266
18224TIP3    H176087   2.467   1.258   1.043  1.5314 -2.1543 -0.2192
18224TIP3    H276088   2.454   1.173   1.168 -1.2063 -2.6680 -0.8298
18225TIP3   OH276089   2.740   1.190  13.110 -0.8517  0.0880 -0.2406
18225TIP3    H176090   2.736   1.210  13.016 -0.4092  0.3897 -0.1950
18225TIP3    H276091   2.656   1.148  13.129 -0.8203 -0.2451 -0.8339
18226TIP3   OH276092   3.068   0.929   5.014  0.0143  0.0491  0.1893
18226TIP3    H176093   3.162   0.927   5.031  0.1024  1.0438 -0.1545
18226TIP3    H276094   3.060   0.943   4.920 -0.4862 -2.4233 -0.1882
18227TIP3   OH276095   0.593   6.332   3.900  0.0915 -0.1800 -0.3121
18227TIP3    H176096   0.614   6.246   3.939  0.0768  0.3258  0.8400
18227TIP3    H276097   0.551   6.380   3.971  0.4061  0.9024 -0.8549
18228TIP3   OH276098   4.615   6.403   5.747  0.3003  0.2454 -0.3477
18228TIP3    H176099   4.700   6.372   5.777 -0.3394  0.2781  1.6085
18228TIP3    H276100   4.559   6.396   5.825 -1.7940 -0.9427 -1.9314
18229TIP3   OH276101   4.846   5.176   4.039 -0.1327  0.1382 -0.1411
18229TIP3    H176102   4.894   5.182   4.122 -0.7767  2.1626  0.1102
18229TIP3    H276103   4.756   5.196   4.063 -0.3842  0.3420 -1.2701
18230TIP3   OH276104   4.349   1.469   0.055 -1.1011  0.5302 -0.4208
18230TIP3    H176105   4.387   1.525  -0.012 -2.6585  2.0680 -0.0541
18230TIP3    H276106   4.418   1.460   0.121 -0.9028  2.2119 -0.3792
18231TIP3   OH276107   1.882   0.123   4.175  0.1450 -0.2193 -0.4005
18231TIP3    H176108   1.848   0.053   4.230 -0.1264  1.9069  2.2762
18231TIP3    H276109   1.829   0.120   4.096 -1.6097 -1.3607  0.7836
18232TIP3   OH276110   0.887   5.415  12.208  0.2079 -0.3932 -0.0006
18232TIP3    H176111   0.793   5.424  12.189  0.1301 -0.8849  0.1343
18232TIP3    H276112   0.905   5.481  12.274 -0.3599 -1.2497  1.0249
18233TIP3   OH276113   0.678   1.498  12.867  0.0727  0.7958  0.0029
18233TIP3    H176114   0.671   1.554  12.790  2.2178  1.6901  0.4227
18233TIP3    H276115   0.732   1.424  12.838 -2.3525 -0.8728 -0.4181
18234TIP3   OH276116   1.051   0.759   2.522 -0.3154  0.1384  0.2344
18234TIP3    H176117   1.117   0.705   2.479 -0.5564 -1.1247  1.3968
18234TIP3    H276118   1.095   0.794   2.599  0.4407  3.2556 -1.5192
18235TIP3   OH276119   4.747   1.793   4.156  0.0569 -0.5796 -0.2253
18235TIP3    H176120   4.817   1.797   4.222  0.9625  0.3762 -1.2319
18235TIP3    H276121   4.791   1.765   4.076 -0.5371  0.9289 -1.0962
18236TIP3   OH276122   1.732   1.201   2.039  0.0694  0.3442  0.3687
18236TIP3    H176123   1.794   1.274   2.037  1.2577 -0.6637  0.0193
18236TIP3    H276124   1.727   1.176   2.131  0.0925  0.5060  0.4135
18237TIP3   OH276125   4.740   2.215   2.982 -0.8305 -0.0960  0.3083
18237TIP3    H176126   4.727   2.129   2.940  0.1572  0.1580 -0.5502
18237TIP3    H276127   4.686   2.211   3.061 -3.1217 -0.4262 -1.2152
18238TIP3   OH276128   4.608   4.232   1.462  0.5999  0.2545  0.1570
18238TIP3    H176129   4.513   4.234   1.461  0.5709  0.4204  1.7452
18238TIP3    H276130   4.632   4.152   1.416 -0.4340 -1.7994  3.0339
18239TIP3   OH276131   6.462   0.481   3.110 -1.2664  0.2460  0.2021
18239TIP3    H176132   6.544   0.435   3.094 -0.8227  1.7501 -2.0761
18239TIP3    H276133   6.418   0.430   3.178  0.0268 -2.4812 -0.9483
18240TIP3   OH276134   6.431   6.208  13.092 -0.6224 -0.2565 -0.5297
18240TIP3    H176135   6.486   6.164  13.027 -1.0707  1.8366 -2.3909
18240TIP3    H276136   6.342   6.180  13.073 -0.6211 -0.6097 -0.0181
18241TIP3   OH276137   5.128   4.652   2.661  0.8527 -0.1317 -0.5361
18241TIP3    H176138   5.120   4.685   2.751 -2.2676  0.7483 -1.0684
18241TIP3    H276139   5.159   4.727   2.611  0.8157 -0.0979 -0.5083
18242TIP3   OH276140   4.175   3.893   2.703  0.5386  0.0713  0.3368
18242TIP3    H176141   4.249   3.900   2.643  0.1190  0.5364 -0.1299
18242TIP3    H276142   4.102   3.933   2.655  0.2412  0.5936  1.2272
18243TIP3   OH276143   5.475   1.665   3.348  0.4889  0.1206 -0.4920
18243TIP3    H176144   5.459   1.728   3.277 -0.6779  0.2889 -0.0845
18243TIP3    H276145   5.420   1.590   3.327 -0.5156  0.5160  0.6795
18244TIP3   OH276146   5.759   6.319   2.119 -0.1976 -0.8988 -0.1266
18244TIP3    H176147   5.798   6.395   2.164  0.4133 -2.3001  1.7862
18244TIP3    H276148   5.668   6.319   2.147  0.0207 -1.3803  0.5999
18245TIP3   OH276149   4.284   0.805  11.826  0.1698 -0.2378 -0.0016
18245TIP3    H176150   4.272   0.720  11.867 -1.1562 -0.9532 -1.8096
18245TIP3    H276151   4.213   0.812  11.762  0.6366  1.9443 -0.3537
18246TIP3   OH276152   6.315   1.765  13.287  0.1902  0.4778  0.1223
18246TIP3    H176153   6.277   1.680  13.264  1.5032 -0.1408  0.1961
18246TIP3    H276154   6.409   1.749  13.290  0.4103  1.8220  0.6500
18247TIP3   OH276155   2.295   5.376   1.125  0.0569  1.1446  1.0633
18247TIP3    H176156   2.269   5.286   1.143  2.0977  0.1132 -0.8149
18247TIP3    H276157   2.323   5.410   1.209  2.8480 -1.2730  1.2218
18248TIP3   OH276158   5.403   2.102   5.893  0.2996 -0.3271 -0.6104
18248TIP3    H176159   5.415   2.105   5.798 -1.4493  0.3920 -0.8301
18248TIP3    H276160   5.318   2.060   5.905 -0.0070  0.6321  0.6051
18249TIP3   OH276161   1.051   0.356  15.843  0.5843 -0.3362 -0.2831
18249TIP3    H176162   1.050   0.333  15.750 -0.3037  3.1029 -1.1974
18249TIP3    H276163   0.959   0.350  15.870  0.3914  1.4507 -0.4350
18250TIP3   OH276164   0.381   2.693  10.380  0.0458  0.0029 -0.1502
18250TIP3    H176165   0.286   2.681  10.380 -0.3135  2.4861 -1.4462
18250TIP3    H276166   0.407   2.680  10.289  0.6238  1.4997 -0.2137
18251TIP3   OH276167   6.717   6.417   4.873  0.0225  0.0907 -0.1155
18251TIP3    H176168   6.754   6.329   4.871  1.4300  0.6693 -0.7529
18251TIP3    H276169   6.726   6.448   4.783  3.3163  2.3824  0.9057
18252TIP3   OH276170   1.176   5.307  14.622 -0.5561 -0.1436  0.0616
18252TIP3    H176171   1.113   5.235  14.619 -0.4995 -0.2055  0.3093
18252TIP3    H276172   1.203   5.311  14.714 -2.1101  1.5387  0.4791
18253TIP3   OH276173   3.178   0.649   2.411 -0.3081  0.3363  0.3980
18253TIP3    H176174   3.190   0.721   2.473 -2.4280 -0.4771  1.8266
18253TIP3    H276175   3.266   0.623   2.386  0.5687  1.1916  2.5063
18254TIP3   OH276176   5.432   2.397  10.648  0.9162 -0.0552  0.1551
18254TIP3    H176177   5.383   2.344  10.711  1.1511 -0.1237  0.2825
18254TIP3    H276178   5.367   2.455  10.608  0.7343 -0.1450  0.3228
18255TIP3   OH276179   0.680   1.051  10.849  0.1723 -0.5467  0.0164
18255TIP3    H176180   0.727   0.968  10.862 -2.2213 -1.7935  1.1197
18255TIP3    H276181   0.630   1.063  10.929  0.6659  2.1415 -0.0366
18256TIP3   OH276182   5.524   4.388   1.887 -0.5261  0.6890  0.4186
18256TIP3    H176183   5.530   4.464   1.830 -0.3198  0.4128  0.0713
18256TIP3    H276184   5.606   4.390   1.937 -0.5222  0.6956  0.4117
18257TIP3   OH276185   3.698   5.399  10.410  0.1249 -0.1885  0.4456
18257TIP3    H176186   3.712   5.490  10.384  0.6936  0.0527  1.5851
18257TIP3    H276187   3.683   5.353  10.327 -2.7234  1.3596  0.0221
18258TIP3   OH276188   4.011   1.149   2.304  0.2738  0.1996 -0.1124
18258TIP3    H176189   4.011   1.107   2.390  2.3167 -2.2318 -1.2123
18258TIP3    H276190   3.933   1.204   2.303 -1.6291 -2.3541  2.0502
18259TIP3   OH276191   1.935   0.668   3.957 -0.0514  0.5812 -0.0963
18259TIP3    H176192   1.894   0.718   3.887 -3.7486  0.8363  2.1243
18259TIP3    H276193   1.902   0.579   3.946 -0.2545  0.5159  1.0168
18260TIP3   OH276194   5.388   4.224   3.434  0.2139  0.2827  0.2750
18260TIP3    H176195   5.445   4.147   3.433 -0.4835 -0.2437 -1.5521
18260TIP3    H276196   5.309   4.195   3.479  0.3134  0.1922  0.3907
18261TIP3   OH276197   1.894   0.531   0.631  0.0928  0.1907  0.0366
18261TIP3    H176198   1.904   0.509   0.723  1.3980 -2.7414 -0.7582
18261TIP3    H276199   1.947   0.609   0.618  0.6180  0.0860  1.5647
18262TIP3   OH276200   3.517   3.992  12.926  0.4721 -0.5116 -0.2338
18262TIP3    H176201   3.448   3.973  12.990  1.0828 -0.4200  0.4521
18262TIP3    H276202   3.469   4.007  12.844 -0.2176 -2.0699 -0.1325
18263TIP3   OH276203   5.848   5.297   2.557 -0.6254 -0.3131  0.0132
18263TIP3    H176204   5.830   5.205   2.578 -2.1068 -0.4442 -1.6545
18263TIP3    H276205   5.762   5.334   2.537  0.0906  1.1474 -0.4194
18264TIP3   OH276206   5.761   4.739  16.376 -0.1579  0.4831  0.2067
18264TIP3    H176207   5.714   4.693  16.306  1.7826 -0.6933 -0.3539
18264TIP3    H276208   5.717   4.711  16.456 -0.1978 -0.8806 -0.2691
18265TIP3   OH276209   0.408   6.293  11.461 -0.3502 -0.7070 -0.2262
18265TIP3    H176210   0.388   6.232  11.390 -0.4116 -1.0993  0.1224
18265TIP3    H276211   0.503   6.289  11.470 -0.0865  1.1531 -1.8781
18266TIP3   OH276212   0.731   2.268   2.827 -0.0368  0.1411 -0.2276
18266TIP3    H176213   0.786   2.316   2.764  0.1768 -1.1721 -1.0605
18266TIP3    H276214   0.777   2.277   2.910  2.1180 -1.9659 -1.1431
18267TIP3   OH276215   5.444   1.265   2.490  0.0380  0.5050 -0.3702
18267TIP3    H176216   5.504   1.288   2.561  0.3660  2.4889 -1.2480
18267TIP3    H276217   5.500   1.257   2.413 -0.3882 -1.1001 -0.5371
18268TIP3   OH276218   1.423   3.170  11.591  0.1373 -0.2689  0.2518
18268TIP3    H176219   1.345   3.161  11.645 -0.7713 -3.6888 -1.5023
18268TIP3    H276220   1.461   3.254  11.617 -3.1175  0.6073  2.4004
18269TIP3   OH276221   2.768   1.312  13.747 -0.0895  0.0268  0.0889
18269TIP3    H176222   2.831   1.327  13.817 -0.3133 -2.0515  0.7477
18269TIP3    H276223   2.689   1.283  13.791  0.0541 -2.2077 -1.0737
18270TIP3   OH276224   0.695   5.028   0.836 -0.2591 -0.3968 -0.2692
18270TIP3    H176225   0.626   4.979   0.790 -1.3396 -0.3345  1.2596
18270TIP3    H276226   0.725   5.093   0.772  0.3310 -2.2107 -1.9107
18271TIP3   OH276227   0.222   5.116   2.205 -0.0914 -0.1104 -0.2014
18271TIP3    H176228   0.315   5.140   2.198 -0.0181 -0.7658 -1.6636
18271TIP3    H276229   0.180   5.164   2.135 -0.8890  0.2752  0.5358
18272TIP3   OH276230   3.364   2.747  13.713 -0.3272  0.0060 -0.3281
18272TIP3    H176231   3.353   2.684  13.784 -1.3904  0.2473 -0.2703
18272TIP3    H276232   3.417   2.700  13.648  0.5867 -0.2389  0.5750
18273TIP3   OH276233   2.112   1.110   4.008 -0.5156 -0.3585 -0.1158
18273TIP3    H176234   2.073   1.123   4.095 -0.8420 -1.0262 -0.1616
18273TIP3    H276235   2.126   1.016   4.002  0.9923 -0.1492 -0.1547
18274TIP3   OH276236   4.609   6.134  12.619  0.1123 -0.0352  0.0698
18274TIP3    H176237   4.551   6.118  12.693  0.4866 -1.1614  0.1205
18274TIP3    H276238   4.634   6.226  12.628 -1.0515  0.2426  0.4810
18275TIP3   OH276239   3.566   0.071   3.896 -0.2778 -0.2863  0.2822
18275TIP3    H176240   3.587  -0.022   3.890  4.7321  0.7796 -1.6584
18275TIP3    H276241   3.604   0.098   3.980 -0.3459  0.2618  0.1396
18276TIP3   OH276242   3.612   0.638   3.101  0.5556  0.7521  0.6977
18276TIP3    H176243   3.599   0.570   3.168  2.6177  0.1003  0.4799
18276TIP3    H276244   3.669   0.702   3.143  2.4013  0.0028 -0.6430
18277TIP3   OH276245   5.861   1.204   5.235  0.4036  0.4461  0.4598
18277TIP3    H176246   5.835   1.248   5.316 -2.8854 -1.2172  0.3656
18277TIP3    H276247   5.892   1.118   5.264  0.0489  0.1746  0.0344
18278TIP3   OH276248   4.391   1.469  13.206 -0.1971 -0.0164 -0.5371
18278TIP3    H176249   4.426   1.492  13.292 -1.2220  1.1436 -0.4312
18278TIP3    H276250   4.444   1.520  13.144 -1.1009  1.0440 -0.4353
18279TIP3   OH276251   6.201   4.714  15.691  0.3976 -0.2325 -0.1144
18279TIP3    H176252   6.239   4.673  15.768  1.3136  0.4525 -0.1924
18279TIP3    H276253   6.107   4.715  15.708  0.4836 -1.1542  0.4652
18280TIP3   OH276254   5.130   0.369   0.085  0.6471 -0.1538 -0.2659
18280TIP3    H176255   5.140   0.306   0.157  0.8252  0.7328  0.4901
18280TIP3    H276256   5.160   0.452   0.121 -1.8653  0.8836 -0.5097
18281TIP3   OH276257   6.138   4.724  16.530 -0.5174  0.1959  0.1632
18281TIP3    H176258   6.071   4.684  16.584  0.4718  1.1005  2.1086
18281TIP3    H276259   6.149   4.812  16.567 -0.1809  1.0232 -1.8215
18282TIP3   OH276260   4.114   2.918   4.187  0.1245  0.5041 -0.7160
18282TIP3    H176261   4.092   2.841   4.240 -2.0908  0.9418 -0.9391
18282TIP3    H276262   4.144   2.882   4.104 -0.7587 -0.1296 -0.7698
18283TIP3   OH276263   0.802   1.431   0.563  0.2273  0.1911 -0.1368
18283TIP3    H176264   0.775   1.492   0.632 -0.3308  0.1615 -0.3284
18283TIP3    H276265   0.752   1.351   0.582  0.5326 -0.0200 -0.2195
18284TIP3   OH276266   2.480   0.504   3.874 -0.1712  1.0371 -0.3859
18284TIP3    H176267   2.396   0.526   3.913  0.2902  1.0537  0.5932
18284TIP3    H276268   2.540   0.573   3.902  0.5882  0.0900  0.3557
18285TIP3   OH276269   5.007   6.429   1.161 -0.3234  0.0623  0.2499
18285TIP3    H176270   4.926   6.462   1.122  0.0806  1.8121  0.8075
18285TIP3    H276271   5.072   6.433   1.091  0.2721  2.6977  0.8711
18286TIP3   OH276272   2.925   3.341   0.664  0.2376  1.0564  0.1846
18286TIP3    H176273   2.944   3.435   0.669  0.6286  0.9113  1.8100
18286TIP3    H276274   3.000   3.299   0.706 -0.0324  0.0176 -0.3405
18287TIP3   OH276275   6.751   6.403  14.064  0.0150 -0.2083 -0.0504
18287TIP3    H176276   6.777   6.396  13.972  1.2420 -0.0834  0.2816
18287TIP3    H276277   6.656   6.416  14.061  0.2074  1.0308 -1.3406
18288TIP3   OH276278   2.083   6.505  11.642 -0.2277  0.4620 -0.4414
18288TIP3    H176279   2.179   6.506  11.645 -0.2567  1.6924  2.5996
18288TIP3    H276280   2.059   6.595  11.617 -0.5780  0.5788  0.2852
18289TIP3   OH276281   5.745   4.241  13.231 -0.0279 -0.3567  0.6331
18289TIP3    H176282   5.816   4.234  13.167 -1.3764 -1.1332 -0.7979
18289TIP3    H276283   5.783   4.291  13.303  1.7529 -0.1320 -0.4352
18290TIP3   OH276284   5.422   0.457  16.466 -0.0876 -0.2036  0.0208
18290TIP3    H176285   5.390   0.410  16.390  0.7196 -0.9281  0.1234
18290TIP3    H276286   5.445   0.544  16.432  1.0682 -0.7907 -0.7437
18291TIP3   OH276287   6.207   5.994   1.135  0.1062 -0.1909 -0.2535
18291TIP3    H176288   6.181   6.077   1.175 -0.0396 -0.9289  1.2299
18291TIP3    H276289   6.202   6.010   1.041 -1.8784  0.8723  0.0075
18292TIP3   OH276290   0.339   4.670  16.318 -0.3559 -0.2152 -0.4350
18292TIP3    H176291   0.357   4.751  16.367 -0.7118  0.1516 -0.9053
18292TIP3    H276292   0.266   4.693  16.260  0.0882 -0.6350 -1.1628
18293TIP3   OH276293   6.085   5.671   6.494  0.4205  0.1362 -0.1456
18293TIP3    H176294   6.134   5.619   6.430  0.9588  0.8488 -0.3122
18293TIP3    H276295   6.093   5.761   6.464 -1.4114  0.2232 -0.4553
18294TIP3   OH276296   6.404   5.198   3.612 -0.4502 -0.6910  0.7191
18294TIP3    H176297   6.372   5.153   3.690  1.2865 -1.9655  0.7104
18294TIP3    H276298   6.447   5.277   3.645 -1.9018  0.0519  0.8602
18295TIP3   OH276299   1.274   4.387  16.632  0.1031  0.3663 -0.0259
18295TIP3    H176300   1.326   4.381  16.712  1.6364 -0.2338 -1.0437
18295TIP3    H276301   1.317   4.327  16.571 -2.2181 -0.6850 -0.6716
18296TIP3   OH276302   4.076   2.193  17.125 -0.0832 -0.3153 -0.0286
18296TIP3    H176303   4.166   2.218  17.105 -0.7622  1.7447 -0.6387
18296TIP3    H276304   4.046   2.144  17.049 -0.1930  0.9387 -0.8006
18297TIP3   OH276305   2.092   5.883  14.447 -0.0745  0.2363  0.0982
18297TIP3    H176306   2.142   5.923  14.376  0.1191 -0.2372 -0.0380
18297TIP3    H276307   2.147   5.810  14.477 -0.5587 -0.1244  0.1195
18298TIP3   OH276308   0.015   3.203   0.078 -0.4464 -0.3064  0.1651
18298TIP3    H176309  -0.060   3.145   0.063 -1.4113  0.4362  2.0446
18298TIP3    H276310  -0.020   3.275   0.129  1.7284 -0.3969  1.8559
18299TIP3   OH276311   6.307   6.332   4.716 -0.0200  0.0095 -0.0852
18299TIP3    H176312   6.308   6.421   4.682 -1.0024 -0.0584 -0.3020
18299TIP3    H276313   6.372   6.332   4.786 -2.4188  1.8036  2.2430
18300TIP3   OH276314   6.769   2.454  16.940 -0.4401  0.0350 -0.3906
18300TIP3    H176315   6.813   2.420  17.017 -0.6114  0.7243  0.0168
18300TIP3    H276316   6.815   2.536  16.919 -1.3819  0.6627 -0.0794
18301TIP3   OH276317   4.234   5.022  15.108  0.3439  0.0504  0.0317
18301TIP3    H176318   4.259   5.087  15.042  0.3510 -1.0736 -1.0811
18301TIP3    H276319   4.147   5.049  15.138  1.0103  1.4669  0.7251
18302TIP3   OH276320   4.616   1.950   1.685  0.3985  0.1256  0.6657
18302TIP3    H176321   4.661   1.915   1.608 -0.7880  0.1634 -0.0544
18302TIP3    H276322   4.609   2.044   1.669 -0.9946 -0.0459  0.2156
18303TIP3   OH276323   0.337   1.855   0.899  0.3214 -0.0432  0.3317
18303TIP3    H176324   0.291   1.914   0.958 -0.4311 -0.1372 -0.1672
18303TIP3    H276325   0.295   1.866   0.814 -0.1456 -1.6226  0.3287
18304TIP3   OH276326   5.117   4.982  11.423 -0.1056  0.7507 -0.3884
18304TIP3    H176327   5.057   4.927  11.371 -0.9861 -0.1825  1.5733
18304TIP3    H276328   5.153   4.922  11.488  0.9478  1.9351  0.1252
18305TIP3   OH276329   5.365   1.849   0.382 -0.5117  0.4708  0.1427
18305TIP3    H176330   5.366   1.919   0.317 -0.3641  0.9554  0.6577
18305TIP3    H276331   5.320   1.888   0.457 -1.0231 -0.2093  0.1857
18306TIP3   OH276332   6.192   4.592  11.703  0.2318  0.7563 -0.2471
18306TIP3    H176333   6.237   4.532  11.763 -0.2115 -1.7750 -2.3905
18306TIP3    H276334   6.240   4.585  11.621 -2.7868 -0.4292 -1.9771
18307TIP3   OH276335   4.413   6.495   3.020 -0.5377  0.3680 -0.0724
18307TIP3    H176336   4.381   6.440   2.948  1.7239 -1.1568  0.0039
18307TIP3    H276337   4.443   6.575   2.977  0.0176 -0.1897 -0.7482
18308TIP3   OH276338   4.509   1.177   1.024  0.2129 -0.7955  0.1476
18308TIP3    H176339   4.548   1.247   1.076  0.7112 -1.7019  1.0290
18308TIP3    H276340   4.584   1.129   0.989 -0.1208 -0.8112 -0.5489
18309TIP3   OH276341   1.651   4.706   4.457  0.7065 -0.1050 -0.0978
18309TIP3    H176342   1.618   4.616   4.460 -0.4262  0.3327  0.8235
18309TIP3    H276343   1.741   4.699   4.487  0.2279 -0.7635  1.2352
18310TIP3   OH276344   0.927   5.953  14.826 -0.1057 -0.5272 -0.4889
18310TIP3    H176345   0.870   5.907  14.764  0.2791  1.5771 -2.4975
18310TIP3    H276346   0.989   5.999  14.770  1.0792  0.4005  1.5528
18311TIP3   OH276347   1.907   5.342   4.723  0.3764 -0.3722 -0.8200
18311TIP3    H176348   1.917   5.273   4.788 -0.1212  0.3646  0.0516
18311TIP3    H276349   1.985   5.335   4.668  1.5194 -0.0740  0.7403
18312TIP3   OH276350   0.503   3.822  11.758 -0.4238  0.0357  0.2711
18312TIP3    H176351   0.462   3.863  11.835 -0.1690 -0.8909  0.9120
18312TIP3    H276352   0.521   3.732  11.786 -0.5297 -0.3732 -0.9585
18313TIP3   OH276353   3.306   0.231   5.973  0.0044  0.5000  0.1425
18313TIP3    H176354   3.218   0.202   5.948  0.5298  0.5840 -1.8846
18313TIP3    H276355   3.321   0.190   6.058 -3.3713  3.3557  2.2579
18314TIP3   OH276356   1.100   0.567   3.538 -0.4226  0.3566  0.4895
18314TIP3    H176357   1.177   0.513   3.515 -0.5507  0.5371 -0.4008
18314TIP3    H276358   1.080   0.543   3.628  0.1382 -0.3577  0.4328
18315TIP3   OH276359   0.596   4.198  14.282 -0.2865 -0.0016 -0.2953
18315TIP3    H176360   0.583   4.283  14.240 -0.9015 -0.0407 -0.1821
18315TIP3    H276361   0.647   4.218  14.361  3.0279 -0.2252 -2.3068
18316TIP3   OH276362   4.817   3.920  16.717  1.1508  0.5410 -0.2037
18316TIP3    H176363   4.825   3.826  16.703  3.1323  0.8022 -0.9416
18316TIP3    H276364   4.738   3.944  16.667  0.6468 -0.7024 -0.0330
18317TIP3   OH276365   6.121   4.237  13.879 -0.0804  0.0493  0.5432
18317TIP3    H176366   6.213   4.232  13.853  0.3091  0.1550  1.8588
18317TIP3    H276367   6.098   4.148  13.906 -0.5688 -0.1272 -0.4486
18318TIP3   OH276368   5.012   3.413  12.419  0.5396  0.5674  0.2273
18318TIP3    H176369   5.046   3.373  12.339  0.9001 -0.6839  0.9888
18318TIP3    H276370   4.991   3.338  12.476  1.1073  1.4704  1.6292
18319TIP3   OH276371   4.889   3.118   2.629  0.1003  0.4428 -0.0260
18319TIP3    H176372   4.964   3.107   2.570  0.5068 -0.8858  0.7273
18319TIP3    H276373   4.815   3.080   2.580  0.1090  0.8390 -0.3521
18320TIP3   OH276374   2.196   3.151  16.227 -0.2177  0.3282  0.9345
18320TIP3    H176375   2.169   3.234  16.189 -0.0689  0.5552  1.3285
18320TIP3    H276376   2.189   3.088  16.154  1.5075  1.0300  0.1447
18321TIP3   OH276377   0.077   1.635   5.558 -0.1714  0.3128 -0.3983
18321TIP3    H176378  -0.017   1.644   5.544 -0.4292 -0.5994  0.6126
18321TIP3    H276379   0.106   1.576   5.489 -0.3552  0.5353 -0.6652
18322TIP3   OH276380   4.070   3.010  13.737  0.2243  0.6807  0.7775
18322TIP3    H176381   4.105   3.079  13.794 -0.8965 -1.3307  4.0882
18322TIP3    H276382   3.978   3.003  13.762 -0.1213 -0.7468 -0.8248
18323TIP3   OH276383   5.967   5.099   3.552  0.0456  0.0883  0.1324
18323TIP3    H176384   5.889   5.045   3.536  1.1222 -0.9531 -1.8727
18323TIP3    H276385   6.041   5.039   3.540  1.3056  2.0389 -2.5941
18324TIP3   OH276386   1.236   3.902  15.932  0.3155 -0.2311 -0.2532
18324TIP3    H176387   1.235   3.925  16.025  2.0875 -0.3082 -0.1963
18324TIP3    H276388   1.211   3.983  15.887  0.6969  0.1531  0.2233
18325TIP3   OH276389   6.002   5.436  14.249  0.2535  0.2095 -0.1249
18325TIP3    H176390   5.931   5.496  14.270  0.2920 -0.2877  1.5851
18325TIP3    H276391   6.055   5.433  14.329  2.2175  0.5886 -1.3713
18326TIP3   OH276392   2.281   2.219  17.159 -0.4467  0.0803 -0.0627
18326TIP3    H176393   2.228   2.296  17.178 -0.0832  0.7977 -1.8491
18326TIP3    H276394   2.370   2.252  17.150 -0.2046 -0.6268 -0.2968
18327TIP3   OH276395   1.564   1.303  14.054 -0.6370 -0.4746  0.0098
18327TIP3    H176396   1.511   1.371  14.013 -1.0768 -0.1899  1.0270
18327TIP3    H276397   1.500   1.244  14.094 -0.2296 -1.0202 -0.1272
18328TIP3   OH276398   5.694   3.325  12.652 -0.0028 -0.8724  0.0742
18328TIP3    H176399   5.701   3.384  12.577 -0.4787 -1.5432 -0.4967
18328TIP3    H276400   5.650   3.377  12.720  0.8636 -0.1077  0.0661
18329TIP3   OH276401   2.402   3.907  13.972  0.1190  0.1220  0.5065
18329TIP3    H176402   2.440   3.820  13.956 -0.3033  0.0105  0.1192
18329TIP3    H276403   2.346   3.894  14.048  1.7004  0.5320  1.7727
18330TIP3   OH276404   6.180   4.639   3.373 -0.0167 -0.4943  0.1910
18330TIP3    H176405   6.137   4.705   3.426  2.3701  1.5993 -0.3739
18330TIP3    H276406   6.232   4.689   3.309 -0.2431 -2.9074 -1.9918
18331TIP3   OH276407   5.790   6.782  12.578 -0.0489  0.4718  0.4844
18331TIP3    H176408   5.810   6.775  12.672  1.2894 -1.7329  0.0848
18331TIP3    H276409   5.857   6.842  12.544  1.8621 -1.6908  0.3167
18332TIP3   OH276410   3.534   0.159  13.305 -0.1420  0.8313  0.2937
18332TIP3    H176411   3.444   0.146  13.275  0.0218  0.4295 -0.0397
18332TIP3    H276412   3.551   0.085  13.363  0.0847  0.7182  0.0850
18333TIP3   OH276413   0.888   6.697  15.168 -0.2992  0.3929 -0.2591
18333TIP3    H176414   0.864   6.736  15.252 -1.4824  0.4594 -0.6177
18333TIP3    H276415   0.816   6.636  15.149  0.2318 -0.0126 -0.9651
18334TIP3   OH276416   3.314   3.069  16.895  0.5915 -0.0225  0.0747
18334TIP3    H176417   3.384   3.029  16.844  2.8332  0.6798  2.4688
18334TIP3    H276418   3.356   3.143  16.940 -2.4135  2.3674 -0.8105
18335TIP3   OH276419   2.098   1.901   1.929  0.9045  0.2068  0.3241
18335TIP3    H176420   2.037   1.836   1.893 -0.4397  1.5713  0.0775
18335TIP3    H276421   2.153   1.851   1.990 -0.6164 -1.0349  0.7150
18336TIP3   OH276422   3.424   2.013  12.723 -0.0052  0.0264  0.1439
18336TIP3    H176423   3.386   2.097  12.750 -2.5599 -0.0495 -2.9774
18336TIP3    H276424   3.437   1.965  12.805 -1.3399  2.2795  1.7248
18337TIP3   OH276425   0.639   4.346   4.873 -0.2413 -0.4517  0.5507
18337TIP3    H176426   0.611   4.437   4.860  0.4769 -0.6363 -2.6707
18337TIP3    H276427   0.558   4.296   4.880 -0.6456  0.1123 -0.0791
18338TIP3   OH276428   1.231   2.584  13.392  0.0221  0.8376 -0.0308
18338TIP3    H176429   1.235   2.663  13.338  1.6994 -1.2141 -3.0428
18338TIP3    H276430   1.138   2.560  13.391  0.0950  0.5241 -2.5336
18339TIP3   OH276431   2.781   4.345   3.823  0.1214 -0.0100  0.3118
18339TIP3    H176432   2.703   4.387   3.785 -1.2290 -2.3042  0.4480
18339TIP3    H276433   2.852   4.370   3.764 -1.2022 -0.0540 -1.3442
18340TIP3   OH276434   4.502   5.750   0.790  0.1090  0.0214  0.2316
18340TIP3    H176435   4.430   5.692   0.814  0.4919 -0.0597  1.1745
18340TIP3    H276436   4.571   5.730   0.853  1.2908 -0.5437 -1.2078
18341TIP3   OH276437   3.913   5.859   4.345  0.2459 -0.3089 -0.2086
18341TIP3    H176438   3.876   5.793   4.404 -2.0348  0.9966 -0.1107
18341TIP3    H276439   3.990   5.817   4.307  0.4156 -2.0171  1.9255
18342TIP3   OH276440   6.111   5.984  13.710 -0.4719 -0.3011 -0.3183
18342TIP3    H176441   6.086   5.927  13.782 -0.1666 -0.7370 -0.5495
18342TIP3    H276442   6.165   6.052  13.749 -2.9076  1.3143  0.3807
18343TIP3   OH276443   3.208   0.493  11.683  0.0301 -0.0620 -0.0968
18343TIP3    H176444   3.182   0.522  11.595 -0.8091 -1.6250 -0.3876
18343TIP3    H276445   3.148   0.421  11.703  0.6672 -0.1666  1.4754
18344TIP3   OH276446   2.591   5.527   1.963  0.3390  0.8909  0.6411
18344TIP3    H176447   2.553   5.585   1.898  0.3919 -0.2544 -0.4182
18344TIP3    H276448   2.522   5.465   1.984  0.6965  0.5493  0.8143
18345TIP3   OH276449   5.554   2.430   4.296 -0.3407 -0.1886  0.2526
18345TIP3    H176450   5.639   2.432   4.251 -1.2542 -0.6186 -1.5435
18345TIP3    H276451   5.569   2.476   4.378  1.8389 -0.9516  0.3149
18346TIP3   OH276452   6.354   4.192   2.327  0.1724 -0.5383 -0.0694
18346TIP3    H176453   6.347   4.157   2.238  0.1174 -1.6360  0.3686
18346TIP3    H276454   6.302   4.273   2.324  0.6712 -0.2450 -1.1947
18347TIP3   OH276455   5.401   2.854  14.321  0.2655  0.3468  0.4066
18347TIP3    H176456   5.352   2.926  14.361 -1.1590  1.2435 -2.7841
18347TIP3    H276457   5.339   2.782  14.316  0.4688  0.2026 -0.0444
18348TIP3   OH276458   4.509   5.037  15.392 -0.4309 -0.6689  0.1351
18348TIP3    H176459   4.439   5.097  15.418 -2.3913 -3.2797  1.1210
18348TIP3    H276460   4.464   4.956  15.370  1.8186 -0.7425 -4.8394
18349TIP3   OH276461   0.320   5.027  14.199 -0.3135  0.1891  0.7403
18349TIP3    H176462   0.235   5.036  14.241 -0.0471 -0.0134  1.3275
18349TIP3    H276463   0.333   4.933  14.189 -1.2006  0.2532 -1.5203
18350TIP3   OH276464   0.704   2.073  14.220 -0.6920 -0.0880 -0.3370
18350TIP3    H176465   0.796   2.081  14.195 -1.1874  0.1529 -2.1204
18350TIP3    H276466   0.701   1.992  14.271  0.4621 -0.2419 -0.4914
18351TIP3   OH276467   1.467   2.266  11.387  0.2704  0.2576 -0.5160
18351TIP3    H176468   1.443   2.175  11.368  0.5364  0.1090 -0.1373
18351TIP3    H276469   1.514   2.262  11.470 -2.8424  1.1714  1.4027
18352TIP3   OH276470   5.692   4.044   6.015  0.1631  0.5073 -0.5040
18352TIP3    H176471   5.689   4.104   5.940  0.2364 -0.2066 -1.0841
18352TIP3    H276472   5.776   4.062   6.056 -1.1526  3.0091  1.1805
18353TIP3   OH276473   6.346   1.905   5.580  0.1506  0.2931  0.1886
18353TIP3    H176474   6.265   1.889   5.628 -0.2263 -1.5890 -1.0119
18353TIP3    H276475   6.402   1.951   5.642 -0.8991 -0.6754  1.8930
18354TIP3   OH276476   6.467   6.613   6.071  0.5327  0.2885  0.2003
18354TIP3    H176477   6.373   6.630   6.062  1.0875  2.6407 -1.7130
18354TIP3    H276478   6.490   6.650   6.157 -0.0173  1.0785  0.0133
18355TIP3   OH276479   3.967   2.529  13.996 -0.2417  0.2502 -0.2302
18355TIP3    H176480   4.054   2.505  13.965 -0.0984 -0.2774  0.5655
18355TIP3    H276481   3.936   2.595  13.934  0.6254  0.2589 -0.6500
18356TIP3   OH276482   3.244   2.720   2.466 -0.0811  0.4633  0.6825
18356TIP3    H176483   3.171   2.720   2.404  0.1035 -1.2979  0.4392
18356TIP3    H276484   3.212   2.670   2.542  1.0394 -0.8436  0.3282
18357TIP3   OH276485   5.539   3.021  12.297  0.5079 -0.4350 -0.1317
18357TIP3    H176486   5.486   3.085  12.250 -0.6898 -0.0708  1.6836
18357TIP3    H276487   5.627   3.057  12.295 -0.1673  1.3217  0.9270
18358TIP3   OH276488   3.441   6.668   1.031  0.5346  0.0978 -0.1031
18358TIP3    H176489   3.425   6.758   1.003 -0.0902  0.0062 -0.0583
18358TIP3    H276490   3.534   6.654   1.017  0.2842  0.1347 -1.8736
18359TIP3   OH276491   4.069   6.088   1.047 -0.1403  0.2610 -0.0857
18359TIP3    H176492   3.979   6.080   1.078 -0.2013 -0.0419 -0.3426
18359TIP3    H276493   4.121   6.100   1.127 -0.2140 -1.2843  0.2054
18360TIP3   OH276494   0.630   1.787  15.132  0.3317  0.2646 -0.2779
18360TIP3    H176495   0.575   1.730  15.185 -0.2415  1.2537  0.2006
18360TIP3    H276496   0.585   1.872  15.133  1.4231  0.8560 -0.5808
18361TIP3   OH276497   5.896   3.177  10.472 -0.8177 -0.0820  0.2279
18361TIP3    H176498   5.916   3.093  10.514 -2.0509  0.1112  1.2435
18361TIP3    H276499   5.802   3.172  10.452 -0.6083  0.5255 -0.9381
18362TIP3   OH276500   0.666   1.132   6.014 -0.3251  0.1586 -0.4404
18362TIP3    H176501   0.726   1.101   5.946  1.7757  1.0398  0.9561
18362TIP3    H276502   0.635   1.052   6.057  1.0588 -0.2691 -0.2032
18363TIP3   OH276503   2.130   3.323   4.619 -0.1404 -0.1194  0.1971
18363TIP3    H176504   2.073   3.381   4.669 -0.7757  0.7127 -1.4385
18363TIP3    H276505   2.158   3.377   4.545 -0.4136 -1.7894 -1.1388
18364TIP3   OH276506   0.268   0.760   6.041 -0.1444  0.7649  0.3252
18364TIP3    H176507   0.277   0.848   6.079  1.2277  1.3426 -1.2743
18364TIP3    H276508   0.175   0.739   6.052 -0.2924  1.9921  1.6323
18365TIP3   OH276509   4.732   3.210   0.870 -0.4481  0.6480 -0.0526
18365TIP3    H176510   4.765   3.298   0.889 -2.0790  1.4971 -1.0909
18365TIP3    H276511   4.709   3.174   0.956 -1.8156  2.0519  0.1883
18366TIP3   OH276512   5.888   5.084   4.787 -0.2450  0.3938 -0.7334
18366TIP3    H176513   5.828   5.087   4.861  1.2656  2.0814  0.4600
18366TIP3    H276514   5.859   5.156   4.730  0.0966  0.6443 -0.5900
18367TIP3   OH276515   1.684   5.077  14.963  0.0552  0.7593 -0.3440
18367TIP3    H176516   1.648   5.117  15.042  0.2134  1.5564 -0.6726
18367TIP3    H276517   1.609   5.035  14.921 -0.0654  0.4993  0.1222
18368TIP3   OH276518   6.725   4.489  15.234 -0.0370  0.0097 -0.0408
18368TIP3    H176519   6.647   4.516  15.185 -0.0710  0.3118  0.1791
18368TIP3    H276520   6.798   4.517  15.179 -0.0706  0.7008  0.2653
18369TIP3   OH276521   4.862   6.167   3.705 -0.2118  0.5614 -0.0658
18369TIP3    H176522   4.800   6.239   3.720 -0.1025  0.1662  2.4809
18369TIP3    H276523   4.948   6.206   3.720 -0.1343 -0.0218  1.0243
18370TIP3   OH276524   0.712   5.716   2.663 -0.3334 -0.3189 -0.2542
18370TIP3    H176525   0.740   5.625   2.659  0.3571 -0.0587 -2.3625
18370TIP3    H276526   0.719   5.740   2.755  0.7187 -2.0138  0.1291
18371TIP3   OH276527   5.518   4.183  14.803 -0.3434 -0.4372  0.1586
18371TIP3    H176528   5.549   4.235  14.729  0.2796 -1.8117 -0.5698
18371TIP3    H276529   5.423   4.192  14.802 -0.4222 -1.2981 -1.4762
18372TIP3   OH276530   3.485   3.286   1.732  0.3522 -0.1006  0.2788
18372TIP3    H176531   3.563   3.291   1.788 -0.2728 -0.1905  1.1825
18372TIP3    H276532   3.512   3.233   1.657  0.9197 -0.8411  0.9912
18373TIP3   OH276533   0.873   5.375  12.552  0.8085  0.4264 -0.4257
18373TIP3    H176534   0.818   5.296  12.552  0.2791  0.7891 -1.1474
18373TIP3    H276535   0.829   5.435  12.612  0.6603  0.5386 -0.6411
18374TIP3   OH276536   5.969   5.613  15.521 -0.1621  0.9351 -0.4717
18374TIP3    H176537   5.989   5.522  15.544 -0.8928  1.3789  2.0213
18374TIP3    H276538   6.018   5.665  15.585 -0.7188  2.2727 -1.1130
18375TIP3   OH276539   3.668   3.869  12.627  0.5710  0.7590  0.0925
18375TIP3    H176540   3.698   3.922  12.554  0.3708  0.9460  0.1436
18375TIP3    H276541   3.572   3.871  12.619  0.5837 -0.2251 -0.3550
18376TIP3   OH276542   0.552   0.391   6.296  0.7860  0.0085 -0.1449
18376TIP3    H176543   0.550   0.472   6.245  0.0577  1.7792  2.6500
18376TIP3    H276544   0.474   0.343   6.268  0.4990  0.8528 -0.8058
18377TIP3   OH276545   2.678   2.542   0.656  0.1732 -0.3719  0.1997
18377TIP3    H176546   2.633   2.521   0.574  0.6450 -2.2181  0.3926
18377TIP3    H276547   2.762   2.579   0.628  0.5715 -1.5223 -0.1718
18378TIP3   OH276548   2.566   6.658   1.897  0.0137 -0.3061  0.2181
18378TIP3    H176549   2.524   6.722   1.954  0.7253 -0.7248  1.2263
18378TIP3    H276550   2.621   6.711   1.838  1.7461 -0.0523  2.0101
18379TIP3   OH276551   3.992   3.354  12.222 -0.0266 -0.2843 -0.4894
18379TIP3    H176552   3.927   3.380  12.288 -0.0489 -0.5978 -0.3877
18379TIP3    H276553   4.075   3.354  12.269 -0.2949 -2.3705  0.0289
18380TIP3   OH276554   5.178   4.049  12.572  0.4000  0.1038  0.0952
18380TIP3    H176555   5.204   4.058  12.664 -2.5843 -2.2182  1.2069
18380TIP3    H276556   5.261   4.035  12.526  1.5580 -3.6245  3.0784
18381TIP3   OH276557   6.394   5.242  13.777 -0.1923  0.1298 -0.2303
18381TIP3    H176558   6.420   5.325  13.817  1.1302 -0.4046  0.0455
18381TIP3    H276559   6.331   5.205  13.839 -0.8541  0.9559 -0.3990
18382TIP3   OH276560   3.191   5.760  13.310  0.5674 -0.0054 -0.3510
18382TIP3    H176561   3.131   5.770  13.236 -0.0372  1.3084  0.3032
18382TIP3    H276562   3.137   5.727  13.382  0.5437  1.4881  0.3366
18383TIP3   OH276563   0.594   0.058  12.940  0.1964  0.0160 -0.0824
18383TIP3    H176564   0.596   0.138  12.887 -1.9929 -0.4541 -0.9254
18383TIP3    H276565   0.553   0.085  13.022  0.2417 -0.0450 -0.0396
18384TIP3   OH276566   0.160   2.301   1.940 -0.4706  0.3204  0.6306
18384TIP3    H176567   0.170   2.219   1.891 -0.1195  0.1796  0.9303
18384TIP3    H276568   0.138   2.273   2.029 -1.2536  0.5798  0.5223
18385TIP3   OH276569   2.869   4.631  13.439  0.0031 -0.3692 -0.1406
18385TIP3    H176570   2.807   4.642  13.366 -0.9238  1.4209  0.8644
18385TIP3    H276571   2.813   4.626  13.517  1.0877  1.0489  0.7646
18386TIP3   OH276572   5.143   5.744  14.151 -0.2598  0.8006 -0.2346
18386TIP3    H176573   5.063   5.713  14.193 -0.3899 -0.6573 -1.5489
18386TIP3    H276574   5.153   5.834  14.183  1.0105 -0.9929  4.9506
18387TIP3   OH276575   1.826   0.554  17.009  0.0820 -0.8869  0.8119
18387TIP3    H176576   1.883   0.489  17.049 -0.2211 -0.9340  1.1752
18387TIP3    H276577   1.876   0.589  16.936  0.3454 -1.3458  0.7732
18388TIP3   OH276578   5.448   6.474   0.445 -0.1361 -0.3747  0.3727
18388TIP3    H176579   5.375   6.516   0.400 -3.0932 -2.7858  2.7011
18388TIP3    H276580   5.471   6.400   0.390 -1.5731 -1.4284  1.1665
18389TIP3   OH276581   5.495   5.053  10.892 -0.4069 -0.2004  0.2463
18389TIP3    H176582   5.408   5.093  10.884 -0.9427 -1.4097  0.0367
18389TIP3    H276583   5.499   5.022  10.983 -0.5189 -0.8881  0.0187
18390TIP3   OH276584   1.623   1.511   1.787 -0.0032 -0.1097  0.2517
18390TIP3    H176585   1.557   1.452   1.750 -2.4759  2.2041  0.7965
18390TIP3    H276586   1.678   1.533   1.712 -0.1618 -1.6458 -0.3441
18391TIP3   OH276587   5.029   3.086   5.867 -0.2663  0.2147 -0.5129
18391TIP3    H176588   5.008   3.058   5.778  0.0121  0.3797 -0.6338
18391TIP3    H276589   5.096   3.025   5.897 -0.6229 -0.0637 -0.2789
18392TIP3   OH276590   4.584   5.461  15.099 -0.5027  0.1975  0.2085
18392TIP3    H176591   4.517   5.506  15.150  0.4891  3.4539 -1.1438
18392TIP3    H276592   4.575   5.369  15.121 -4.1625  0.7865  1.4693
18393TIP3   OH276593   0.951   3.013   1.697 -0.0146 -0.5253 -0.1928
18393TIP3    H176594   0.931   2.929   1.737 -1.4089 -0.7343 -1.2837
18393TIP3    H276595   0.884   3.024   1.629  2.0483  0.0061 -2.1938
18394TIP3   OH276596   2.936   0.585   3.483 -0.2619 -0.6362  0.4921
18394TIP3    H176597   2.911   0.496   3.507 -2.4116 -0.2002  0.0081
18394TIP3    H276598   2.985   0.575   3.401  1.3611 -1.5481  1.5644
18395TIP3   OH276599   5.465   2.250  13.923 -0.1889  0.1666  0.4397
18395TIP3    H176600   5.542   2.207  13.887 -0.7883  0.3841 -1.1262
18395TIP3    H276601   5.462   2.335  13.879 -0.1714  1.0050  2.0071
18396TIP3   OH276602   4.055   4.041  11.906 -0.5442  0.0874  0.5955
18396TIP3    H176603   4.029   4.115  11.851 -2.6374 -0.5108  0.7577
18396TIP3    H276604   4.123   3.996  11.856 -0.9657  0.7352 -0.5645
18397TIP3   OH276605   6.763   5.785   5.136  0.0420  0.6645  0.2190
18397TIP3    H176606   6.767   5.761   5.043 -0.7929 -0.5182  0.4831
18397TIP3    H276607   6.671   5.775   5.160  0.5809 -0.9871  1.6882
18398TIP3   OH276608   4.871   6.634  15.460  0.4734  0.4770  0.4166
18398TIP3    H176609   4.911   6.550  15.480 -1.9028 -0.6637  0.5941
18398TIP3    H276610   4.860   6.633  15.364 -1.2095 -0.2411  0.5899
18399TIP3   OH276611   5.225   3.784   1.465  0.1361  0.4229 -0.3695
18399TIP3    H176612   5.270   3.869   1.473  0.6252 -0.0865  3.0711
18399TIP3    H276613   5.216   3.753   1.555 -1.5396 -2.4370 -1.4540
18400TIP3   OH276614   3.394   4.041   3.922  0.0359  0.2703  0.5490
18400TIP3    H176615   3.322   4.103   3.905 -1.6945 -2.1088 -1.0904
18400TIP3    H276616   3.430   4.023   3.835 -0.9541 -2.7494  0.7304
18401TIP3   OH276617   0.247   6.133   2.671 -0.3847  0.2773 -0.2063
18401TIP3    H176618   0.158   6.157   2.696  0.7597  1.1248  3.3370
18401TIP3    H276619   0.253   6.039   2.690 -0.9074 -0.0595 -1.6854
18402TIP3   OH276620   4.630   4.563   6.109  0.2303 -0.1267  0.0359
18402TIP3    H176621   4.612   4.477   6.070 -0.4120  0.3110 -0.6546
18402TIP3    H276622   4.650   4.544   6.201 -0.1325 -0.9915 -0.0557
18403TIP3   OH276623   6.389   2.958   3.537 -0.0635  0.2020  0.1903
18403TIP3    H176624   6.395   2.959   3.633  1.3785 -0.7377  0.1254
18403TIP3    H276625   6.477   2.982   3.507 -0.7255  1.3107 -0.9113
18404TIP3   OH276626   3.503   2.427  14.138  0.1973 -0.5873 -0.1103
18404TIP3    H176627   3.428   2.443  14.081  0.1813 -2.0992 -0.5491
18404TIP3    H276628   3.497   2.495  14.205 -2.6695 -1.8066  0.9590
18405TIP3   OH276629   3.511   6.527  12.688  0.0938  0.3886 -0.2520
18405TIP3    H176630   3.560   6.569  12.617 -0.8308  1.1552 -0.4294
18405TIP3    H276631   3.421   6.555  12.676 -0.2222 -0.1841  0.7158
18406TIP3   OH276632   4.054   2.348  11.636 -0.4950 -0.6344  0.1260
18406TIP3    H176633   4.050   2.431  11.589  0.6343  0.3636  1.7219
18406TIP3    H276634   4.123   2.299  11.592  0.6614  0.3505  0.8223
18407TIP3   OH276635   5.418   4.691  17.053 -0.0471 -0.1877 -0.4254
18407TIP3    H176636   5.340   4.738  17.083 -0.8915 -0.7253 -1.7579
18407TIP3    H276637   5.486   4.718  17.114 -1.0660  0.9657  0.2377
18408TIP3   OH276638   3.571   3.457  15.483 -0.3763 -0.0389  0.3387
18408TIP3    H176639   3.560   3.404  15.403  0.8086  1.3070 -0.7479
18408TIP3    H276640   3.597   3.393  15.549  0.9638 -0.8561 -0.9358
18409TIP3   OH276641   6.349   3.049  16.731 -0.2687 -0.5281 -0.5339
18409TIP3    H176642   6.443   3.031  16.734 -0.4270 -1.3633 -0.3295
18409TIP3    H276643   6.325   3.064  16.823 -0.2059  0.3752 -0.6657
18410TIP3   OH276644   0.759   4.061  11.762  0.2760  0.5040 -0.1150
18410TIP3    H176645   0.704   4.047  11.685 -0.5570  2.0307  0.1792
18410TIP3    H276646   0.697   4.067  11.835  0.9340  0.7640  0.4253
18411TIP3   OH276647   1.737   6.023  17.096 -0.5370  0.5783 -0.5048
18411TIP3    H176648   1.782   6.012  17.180  0.4789  1.0242 -0.9766
18411TIP3    H276649   1.671   5.954  17.095 -0.0382  0.0746  0.3270
18412TIP3   OH276650   4.748   1.990   0.886 -0.3592 -0.8883 -0.2696
18412TIP3    H176651   4.826   1.999   0.942 -0.1987 -3.0551 -0.1073
18412TIP3    H276652   4.757   2.060   0.822  0.5361  0.3255  1.1375
18413TIP3   OH276653   3.733   2.076   4.946 -0.0840 -0.2901  0.2045
18413TIP3    H176654   3.697   2.158   4.912 -1.8958 -1.2948 -0.3574
18413TIP3    H276655   3.749   2.023   4.868  4.0008  0.6352  0.3168
18414TIP3   OH276656   0.621   1.992  11.627 -0.0600 -0.3094  0.1814
18414TIP3    H176657   0.644   1.913  11.676  0.0655 -0.0345  0.5669
18414TIP3    H276658   0.687   1.996  11.557 -0.4968 -0.9348 -0.2743
18415TIP3   OH276659   3.217   3.744   4.727  0.7377 -0.5561  1.0207
18415TIP3    H176660   3.262   3.733   4.644  1.4777  3.3698  0.8313
18415TIP3    H276661   3.285   3.729   4.793  1.3725  1.2453  0.8002
18416TIP3   OH276662   2.495   5.413   2.917  0.3513 -0.4408 -0.3875
18416TIP3    H176663   2.513   5.331   2.872  0.0355 -1.0644  0.6060
18416TIP3    H276664   2.582   5.446   2.941  0.5284  0.0081 -1.6466
18417TIP3   OH276665   0.803   5.686  11.995  0.8640 -0.2676 -0.5593
18417TIP3    H176666   0.709   5.696  12.008  1.3184  2.0711  1.1642
18417TIP3    H276667   0.837   5.668  12.083  2.3490  1.7715 -0.6867
18418TIP3   OH276668   4.673   2.358  14.104 -0.6493  0.2173  0.5388
18418TIP3    H176669   4.599   2.345  14.045  1.3703 -2.1159 -1.5755
18418TIP3    H276670   4.683   2.273  14.148  0.9136  0.4147  0.5906
18419TIP3   OH276671   3.134   1.637  10.724 -0.7535  0.2275  0.4462
18419TIP3    H176672   3.184   1.713  10.693  1.9150 -1.1907  1.0617
18419TIP3    H276673   3.061   1.629  10.663  1.7546  0.3080 -2.6720
18420TIP3   OH276674   1.985   0.930   4.263  0.1905  0.7405 -0.2717
18420TIP3    H176675   1.953   0.840   4.258 -1.0159  1.0624  1.1069
18420TIP3    H276676   2.036   0.933   4.344 -1.1086  1.6819  0.5319
18421TIP3   OH276677   3.560   4.927   0.060  0.1196  0.1830  0.4354
18421TIP3    H176678   3.530   4.840   0.089 -1.3766  0.3461 -0.5387
18421TIP3    H276679   3.588   4.913  -0.031 -0.5022  0.7997  0.1509
18422TIP3   OH276680   6.427   5.269  12.206 -0.5312 -0.4806 -0.5021
18422TIP3    H176681   6.465   5.264  12.295 -1.4432  2.5899  0.1145
18422TIP3    H276682   6.502   5.289  12.150 -0.0843 -1.6245 -0.3332
18423TIP3   OH276683   5.684   5.200  11.218 -0.5630  0.0659 -0.1400
18423TIP3    H176684   5.696   5.149  11.138 -0.0350  1.8648 -1.2481
18423TIP3    H276685   5.618   5.265  11.195 -2.4319 -1.1331  1.7563
18424TIP3   OH276686   1.364   6.024  15.142  0.8277 -0.1409 -0.3272
18424TIP3    H176687   1.348   6.117  15.158 -0.0742 -0.4468  0.6020
18424TIP3    H276688   1.397   5.991  15.226 -2.1807 -1.3852  0.4192
18425TIP3   OH276689   2.495   0.147   3.527  0.2787  0.7454 -0.5328
18425TIP3    H176690   2.501   0.207   3.602 -1.5605  1.9348 -1.2961
18425TIP3    H276691   2.565   0.084   3.542  0.1955  1.1677  1.9957
18426TIP3   OH276692   3.637   0.566  11.812  0.4734  0.4279  0.3168
18426TIP3    H176693   3.566   0.629  11.803  0.5338  0.3339 -1.0594
18426TIP3    H276694   3.699   0.607  11.872 -0.4657  0.7546  1.0691
18427TIP3   OH276695   4.547   2.175  14.553  0.3964 -0.7524 -0.3676
18427TIP3    H176696   4.484   2.108  14.528  0.6694 -1.3225  0.4652
18427TIP3    H276697   4.506   2.222  14.625 -0.3001  0.7576 -1.7175
18428TIP3   OH276698   6.326   0.924   5.717 -0.3442  0.3083  0.3134
18428TIP3    H176699   6.344   0.944   5.625  1.1641 -0.5270  0.4050
18428TIP3    H276700   6.383   0.982   5.766  1.6996 -1.8571  0.6223
18429TIP3   OH276701   5.643   4.386   5.026  0.5777  0.8547  0.1167
18429TIP3    H176702   5.724   4.432   5.047  0.9473  1.3246 -2.2093
18429TIP3    H276703   5.596   4.445   4.968 -0.9692  0.1345  0.6128
18430TIP3   OH276704   2.977   0.341   1.138  0.2622  0.5542  0.3411
18430TIP3    H176705   2.960   0.268   1.197  2.5951  1.5385  2.3043
18430TIP3    H276706   3.041   0.308   1.075 -1.2784 -0.0973 -0.9499
18431TIP3   OH276707   2.423   2.717   4.689 -0.3144  0.0353 -0.0689
18431TIP3    H176708   2.488   2.654   4.721 -0.5171  0.2912  0.8539
18431TIP3    H276709   2.354   2.717   4.755 -1.0245  0.1415 -0.7948
18432TIP3   OH276710   4.730   5.652  15.702 -0.2753  0.1468  0.3042
18432TIP3    H176711   4.702   5.612  15.619 -4.5199  2.2975  0.5862
18432TIP3    H276712   4.791   5.720  15.676 -0.1897 -0.3738 -0.9100
18433TIP3   OH276713   2.532   2.228  16.674 -0.3193 -0.3235  0.0626
18433TIP3    H176714   2.573   2.186  16.598 -0.4451  1.1709 -0.8476
18433TIP3    H276715   2.583   2.307  16.688 -1.3018  0.2310  0.5319
18434TIP3   OH276716   6.197   0.935  15.867  0.5615 -0.0708 -0.1588
18434TIP3    H176717   6.242   0.914  15.948 -0.6791  0.7012  0.7540
18434TIP3    H276718   6.243   1.012  15.833  0.3990  0.2706  0.3869
18435TIP3   OH276719   3.818   2.578  16.102 -0.3296  0.1150  0.1137
18435TIP3    H176720   3.779   2.560  16.016 -0.7744  0.7047  0.1921
18435TIP3    H276721   3.909   2.549  16.093 -0.6695 -0.8950 -0.1962
18436TIP3   OH276722   6.340   6.604  13.940 -0.3846 -0.0960 -0.0535
18436TIP3    H176723   6.298   6.614  14.026  0.5128 -1.5461  0.5679
18436TIP3    H276724   6.399   6.530  13.951  2.2058  1.7831 -0.9843
18437TIP3   OH276725   1.712   1.002   3.932  0.2038  0.2936  0.2739
18437TIP3    H176726   1.731   1.093   3.906  0.2577  0.8563  2.2396
18437TIP3    H276727   1.618   0.991   3.914  0.1623  0.7872  0.1863
18438TIP3   OH276728   3.774   1.320  12.345  1.1752 -1.0841  0.2134
18438TIP3    H176729   3.699   1.377  12.328  2.1044  0.8822  2.3843
18438TIP3    H276730   3.851   1.376  12.331  2.1028 -1.6209  2.8066
18439TIP3   OH276731   1.998   5.676  17.097 -0.0913  0.3142  0.0233
18439TIP3    H176732   1.974   5.733  17.024  1.4153  1.7471  0.6181
18439TIP3    H276733   2.083   5.639  17.072 -0.3857 -0.5481  0.2816
18440TIP3   OH276734   4.260   4.145  16.630  0.6359  0.9142  0.0271
18440TIP3    H176735   4.329   4.211  16.623  0.7684  1.0524  2.2862
18440TIP3    H276736   4.188   4.181  16.578  0.4343  3.2383  1.8424
18441TIP3   OH276737   1.824   2.525  14.692  0.3456 -0.1051  0.5529
18441TIP3    H176738   1.790   2.611  14.667 -0.9410 -0.4481  1.0685
18441TIP3    H276739   1.798   2.514  14.783  2.0112 -0.3180  1.0171
18442TIP3   OH276740   1.721   1.241  12.332  0.3906 -0.1903 -0.1388
18442TIP3    H176741   1.686   1.326  12.307  1.2826  1.0299  2.5216
18442TIP3    H276742   1.695   1.231  12.424  0.8726 -2.4984 -0.2220
18443TIP3   OH276743   0.798   3.343  10.391 -0.0456  0.2034 -0.5483
18443TIP3    H176744   0.871   3.404  10.393  0.2079 -0.0775 -1.2467
18443TIP3    H276745   0.726   3.390  10.434  0.4803  0.5483 -0.0399
18444TIP3   OH276746   3.389   4.742   3.573 -0.2297 -0.3910  0.1098
18444TIP3    H176747   3.406   4.680   3.501  2.6566 -1.4361  1.6057
18444TIP3    H276748   3.324   4.802   3.538  0.4021 -1.4505 -3.0512
18445TIP3   OH276749   1.983   2.443  14.948  0.4406  0.6811  0.4432
18445TIP3    H176750   1.991   2.347  14.949 -0.9738  0.5405 -0.6032
18445TIP3    H276751   2.069   2.474  14.921 -0.2452 -0.4873 -3.3344
18446TIP3   OH276752   0.204   2.622  11.400  0.0788 -0.5144 -0.2887
18446TIP3    H176753   0.236   2.600  11.313  1.7786  2.3644 -0.4727
18446TIP3    H276754   0.124   2.672  11.385 -1.8123 -3.3588 -0.0071
18447TIP3   OH276755   3.045   0.446   2.833 -0.0594  0.6409 -0.3166
18447TIP3    H176756   2.988   0.424   2.760 -0.7600 -2.4479  1.0887
18447TIP3    H276757   3.068   0.362   2.872  3.4985  1.9742  0.6482
18448TIP3   OH276758   5.406   0.566  13.743 -0.0244  0.0959  0.3251
18448TIP3    H176759   5.351   0.567  13.822  0.4358 -1.4261  0.6901
18448TIP3    H276760   5.400   0.476  13.711  0.8391  0.3696 -0.6397
18449TIP3   OH276761   2.918   0.561  11.748 -0.0269  0.8149 -0.4748
18449TIP3    H176762   2.899   0.559  11.655  1.0431 -1.2489 -0.6755
18449TIP3    H276763   2.954   0.475  11.767 -1.5423  0.6801  2.1267
18450TIP3   OH276764   5.588   6.767   4.576  0.1170  0.1990  0.3480
18450TIP3    H176765   5.606   6.860   4.586  1.4766 -0.1484  1.3418
18450TIP3    H276766   5.497   6.763   4.547  0.5666  1.8911 -1.3892
18451TIP3   OH276767   4.682   4.096   4.557 -1.0346 -0.0751 -0.1275
18451TIP3    H176768   4.694   4.154   4.633 -1.0209 -0.5752  0.2528
18451TIP3    H276769   4.632   4.149   4.495 -1.8864  0.0041  0.6104
18452TIP3   OH276770   0.130   4.582   2.063  0.6883 -0.2269  0.2652
18452TIP3    H176771   0.212   4.631   2.068  0.1217  0.7197  0.4799
18452TIP3    H276772   0.079   4.613   2.138 -0.3180  0.0454 -0.5204
18453TIP3   OH276773   1.082   4.621  12.037  0.0966  0.3144 -0.2459
18453TIP3    H176774   1.076   4.711  12.070  0.7754  0.0126  0.7026
18453TIP3    H276775   0.992   4.597  12.017 -0.3921  0.3382  1.8282
18454TIP3   OH276776   0.750   1.417  14.727 -0.8446  0.4771  0.2959
18454TIP3    H176777   0.669   1.430  14.778 -0.1484 -1.2256  1.8766
18454TIP3    H276778   0.820   1.432  14.790  0.0565  0.0650 -0.6106
18455TIP3   OH276779   0.417   4.470  12.022 -0.3858 -0.4777  0.2243
18455TIP3    H176780   0.431   4.447  11.930 -0.7776 -1.3007  0.3615
18455TIP3    H276781   0.362   4.399  12.056 -1.4319  0.5454  0.7324
18456TIP3   OH276782   2.026   5.156  11.555  0.0896 -0.1115 -0.1026
18456TIP3    H176783   1.971   5.104  11.614  2.1040 -1.8442  0.2948
18456TIP3    H276784   2.076   5.213  11.613 -1.8272  2.0839 -0.5151
18457TIP3   OH276785   2.314   5.248   3.557 -0.1899 -0.3071 -0.1573
18457TIP3    H176786   2.394   5.226   3.509 -0.3061 -0.4319 -0.2966
18457TIP3    H276787   2.344   5.271   3.645  0.0618  0.2550 -0.3836
18458TIP3   OH276788   3.969   1.726   3.523 -0.2275  0.7690  0.2399
18458TIP3    H176789   3.972   1.642   3.477  0.6333 -0.5808  2.6758
18458TIP3    H276790   3.876   1.745   3.533 -0.4209  0.4555 -0.9118
18459TIP3   OH276791   1.128   0.718   5.037  0.2401 -0.2044  0.3104
18459TIP3    H176792   1.107   0.774   4.962  1.5454 -0.2915 -0.1274
18459TIP3    H276793   1.050   0.662   5.046  0.8177 -1.5478 -2.2573
18460TIP3   OH276794   3.997   6.035   2.755  0.0493  0.1251 -0.6145
18460TIP3    H176795   4.051   5.994   2.823  2.4794  2.0136 -1.3323
18460TIP3    H276796   4.039   6.009   2.673 -0.1473  1.5928 -1.1884
18461TIP3   OH276797   1.769   6.228   4.986 -0.1332  0.4121 -0.6242
18461TIP3    H176798   1.793   6.162   5.051 -2.6912 -1.9534 -1.9635
18461TIP3    H276799   1.728   6.298   5.038 -0.2525 -0.4810  0.5086
18462TIP3   OH276800   5.583   1.344  11.546 -0.0063  0.5498  0.2137
18462TIP3    H176801   5.625   1.430  11.540 -1.4129  1.4087  2.0713
18462TIP3    H276802   5.490   1.363  11.531 -0.1768 -0.8258 -0.4869
18463TIP3   OH276803   6.209   4.533  12.185 -0.4020  0.2548 -0.1748
18463TIP3    H176804   6.171   4.575  12.108 -2.2845  0.7939  1.0287
18463TIP3    H276805   6.174   4.443  12.183 -1.8885  0.7878  0.9988
18464TIP3   OH276806   0.502   1.227   1.232 -0.0015 -0.2712  0.5696
18464TIP3    H176807   0.424   1.172   1.226  0.0732 -0.2021 -1.1853
18464TIP3    H276808   0.518   1.256   1.142  2.7961 -1.3350  0.6818
18465TIP3   OH276809   0.354   5.110  13.654  0.2784  0.4139  0.2899
18465TIP3    H176810   0.379   5.173  13.586 -0.7355 -0.9992 -1.4651
18465TIP3    H276811   0.435   5.089  13.699  0.7702  2.2992  0.3421
18466TIP3   OH276812   5.287   5.357   6.330  0.4386  0.2463  0.4405
18466TIP3    H176813   5.243   5.419   6.271 -1.2234 -1.1164  0.2134
18466TIP3    H276814   5.377   5.391   6.337  0.0241  1.7354 -1.0125
18467TIP3   OH276815   4.009   2.437  16.744 -0.2049 -0.4870 -0.0582
18467TIP3    H176816   3.914   2.439  16.729 -0.5378 -1.0762  1.8571
18467TIP3    H276817   4.046   2.480  16.666 -1.9371 -1.4875 -1.4797
18468TIP3   OH276818   0.945   4.775   5.379 -0.1041  0.3787  0.5592
18468TIP3    H176819   0.866   4.722   5.383 -0.9947  1.5672 -0.8460
18468TIP3    H276820   0.956   4.809   5.468 -0.2313 -1.1409  1.1576
18469TIP3   OH276821   2.635   1.719  13.788  0.0841  0.3539 -0.3873
18469TIP3    H176822   2.549   1.677  13.789 -0.1836  0.8511 -1.6808
18469TIP3    H276823   2.685   1.671  13.721  0.9667 -0.2124  0.6530
18470TIP3   OH276824   3.400   4.074   2.192  0.3669 -0.1918 -0.5712
18470TIP3    H176825   3.484   4.085   2.146  0.7146  1.6601  0.4307
18470TIP3    H276826   3.411   4.125   2.273 -2.9669  3.1681 -2.0895
18471TIP3   OH276827   4.236   1.179   3.598 -0.5852  0.0403  0.7047
18471TIP3    H176828   4.231   1.131   3.681 -0.4699 -1.5372 -0.1768
18471TIP3    H276829   4.162   1.145   3.547 -0.4195  0.7018  0.0188
18472TIP3   OH276830   0.143   2.465  16.175 -0.0182  0.5528  0.1678
18472TIP3    H176831   0.152   2.508  16.260  0.5787 -1.7383  1.3008
18472TIP3    H276832   0.208   2.394  16.177 -2.1885 -1.5405 -0.8761
18473TIP3   OH276833   5.235   4.934  12.132  0.3992 -0.1071 -0.3836
18473TIP3    H176834   5.300   4.986  12.086  0.4241  1.7274  1.6674
18473TIP3    H276835   5.151   4.972  12.106  0.3583  0.2030  0.1955
18474TIP3   OH276836   1.775   3.984   0.262  0.4451  0.1085  0.5151
18474TIP3    H176837   1.729   3.900   0.258  0.7440 -0.0950  1.3817
18474TIP3    H276838   1.864   3.962   0.290  0.8877  0.5815 -0.4635
18475TIP3   OH276839   6.629   1.573   3.814 -0.1762 -0.3991 -0.3592
18475TIP3    H176840   6.627   1.565   3.909 -0.1051 -0.6269 -0.3771
18475TIP3    H276841   6.715   1.612   3.794  0.4825 -1.8658 -0.4441
18476TIP3   OH276842   5.089   6.630   3.074  0.3776 -0.4113  0.1969
18476TIP3    H176843   5.157   6.594   3.017  0.2785  0.4910 -0.5034
18476TIP3    H276844   5.090   6.724   3.056  0.3022 -0.1176  1.6475
18477TIP3   OH276845   2.083   0.299   0.554  0.8472 -0.2393  0.2075
18477TIP3    H176846   2.059   0.219   0.509 -0.8040 -0.9927  2.3070
18477TIP3    H276847   2.132   0.270   0.631 -0.0467  0.7253  1.1585
18478TIP3   OH276848   2.484   3.784   1.639 -0.7554 -0.4059 -0.0386
18478TIP3    H176849   2.430   3.827   1.705 -0.2501  0.8472 -0.4254
18478TIP3    H276850   2.444   3.809   1.555 -0.6878 -1.0097 -0.2527
18479TIP3   OH276851   3.485   6.333   1.710  0.5149  0.4364  0.1046
18479TIP3    H176852   3.457   6.254   1.756  0.7929 -0.9019 -1.9425
18479TIP3    H276853   3.470   6.313   1.617  0.2022  2.9538 -0.4134
18480TIP3   OH276854   6.488   3.370  16.018  0.0364  0.4539 -0.4221
18480TIP3    H176855   6.480   3.311  15.942  0.0821  0.9244 -0.7955
18480TIP3    H276856   6.428   3.333  16.083  2.1674 -1.6652  0.4199
18481TIP3   OH276857   3.096   1.247  14.092 -0.2501  0.2836  0.0249
18481TIP3    H176858   3.031   1.279  14.030  0.0190 -1.6363 -1.2826
18481TIP3    H276859   3.045   1.204  14.160 -0.4045 -0.2989 -0.4571
18482TIP3   OH276860   3.514   6.662  11.908  0.5892  0.5962 -0.3261
18482TIP3    H176861   3.484   6.690  11.822  0.0845  1.8995  0.2577
18482TIP3    H276862   3.608   6.677  11.907  0.4992  1.1550 -0.4519
18483TIP3   OH276863   5.395   5.106  17.137 -0.1453 -0.0964 -0.3565
18483TIP3    H176864   5.403   5.201  17.147  1.0008 -0.2447  0.2397
18483TIP3    H276865   5.381   5.093  17.043  0.3005  0.6240 -0.5309
18484TIP3   OH276866   5.013   4.782   1.260  0.5071  0.5271  0.5314
18484TIP3    H176867   4.973   4.698   1.282 -0.7188  1.0504  0.4030
18484TIP3    H276868   5.011   4.785   1.164 -2.3030  1.9816  0.5806
18485TIP3   OH276869   5.704   3.634   0.533  0.1392 -0.2043  0.2027
18485TIP3    H176870   5.709   3.695   0.607 -2.3486  2.1247 -1.4951
18485TIP3    H276871   5.683   3.688   0.458  1.5535 -2.7064 -2.0745
18486TIP3   OH276872   5.476   5.841  17.185  0.0248  0.1644 -0.1095
18486TIP3    H176873   5.483   5.919  17.240  0.6685  0.2419 -0.3002
18486TIP3    H276874   5.382   5.825  17.179 -0.0394 -0.1504  1.4361
18487TIP3   OH276875   3.920   1.552  17.087  0.0388 -0.0738 -0.3043
18487TIP3    H176876   3.864   1.624  17.058  0.8386  1.4791  1.8418
18487TIP3    H276877   3.862   1.495  17.137 -0.1982  0.1178 -0.3594
18488TIP3   OH276878   4.490   6.089   4.374  0.0002  0.2896  0.7010
18488TIP3    H176879   4.566   6.129   4.333 -0.6280  0.7002 -0.0736
18488TIP3    H276880   4.484   6.129   4.460 -0.4024  1.5839  0.0749
18489TIP3   OH276881   3.740   2.354  15.374  0.3726  0.2179  0.2496
18489TIP3    H176882   3.820   2.301  15.371  1.6695  2.0506  0.9195
18489TIP3    H276883   3.719   2.369  15.282  0.5924 -0.5877  0.0652
18490TIP3   OH276884   6.274   2.408  11.735  0.3876 -0.5086  0.5016
18490TIP3    H176885   6.345   2.460  11.696  0.7314 -1.7381 -0.5136
18490TIP3    H276886   6.206   2.406  11.669  0.6900 -2.0071  0.2273
18491TIP3   OH276887   2.987   2.663   2.949  0.0147 -0.1817  0.5941
18491TIP3    H176888   2.917   2.688   3.010 -1.5291 -1.8934 -0.4289
18491TIP3    H276889   3.006   2.571   2.971  1.0701 -0.1003  0.0362
18492TIP3   OH276890   0.873   3.082  15.031  0.1925 -0.1740 -0.6089
18492TIP3    H176891   0.919   3.166  15.043 -0.5143  0.1611 -0.2032
18492TIP3    H276892   0.815   3.097  14.956  0.5076 -0.4896 -0.9132
18493TIP3   OH276893   6.380   3.335  14.436 -0.0408 -0.4641  0.3164
18493TIP3    H176894   6.457   3.298  14.480  1.2198  1.6107 -0.0542
18493TIP3    H276895   6.308   3.278  14.462  1.3381 -1.5103  2.0035
18494TIP3   OH276896   5.179   6.361  13.815 -0.2685  0.5161 -0.4015
18494TIP3    H176897   5.199   6.268  13.805  1.9192  1.1149 -1.8500
18494TIP3    H276898   5.168   6.373  13.910  0.5650 -0.9966 -0.0958
18495TIP3   OH276899   1.723   5.838   2.880  0.1964 -0.1259 -0.1325
18495TIP3    H176900   1.727   5.832   2.785 -2.0944 -0.5659 -0.2137
18495TIP3    H276901   1.636   5.806   2.904 -0.1284  2.0722  1.9318
18496TIP3   OH276902   6.264   1.208  15.753 -0.0668  0.2623  0.6353
18496TIP3    H176903   6.192   1.195  15.691 -0.1573  2.8547  0.1156
18496TIP3    H276904   6.316   1.279  15.714  2.0680 -0.7039  1.6377
18497TIP3   OH276905   4.141   2.065   1.124 -0.3283 -0.2908  0.4220
18497TIP3    H176906   4.139   2.025   1.037 -0.1149 -0.1627  0.3577
18497TIP3    H276907   4.101   2.000   1.182  0.4164 -0.7716  0.3921
18498TIP3   OH276908   6.047   3.798   0.078  0.0264 -0.0410 -0.0866
18498TIP3    H176909   6.034   3.844   0.161 -0.9868 -0.6932  0.1240
18498TIP3    H276910   5.962   3.758   0.059  0.3025 -0.0379 -1.3545
18499TIP3   OH276911   1.194   4.661   0.130  0.0541 -0.1773  0.3297
18499TIP3    H176912   1.213   4.599   0.060  0.1586  0.1565  0.0626
18499TIP3    H276913   1.201   4.609   0.211  0.2867 -0.4748  0.1182
18500TIP3   OH276914   3.252   5.163  14.547  0.2172  0.2104 -0.9189
18500TIP3    H176915   3.335   5.117  14.540  0.0106 -0.1124 -1.2162
18500TIP3    H276916   3.211   5.126  14.625  0.0847 -0.0594 -1.1152
18501TIP3   OH276917   5.084   0.571  11.597 -0.0239  0.3721  0.7308
18501TIP3    H176918   5.118   0.612  11.518 -0.1767  0.5184  0.7423
18501TIP3    H276919   5.122   0.483  11.596 -0.1156  0.3364  0.4400
18502TIP3   OH276920   2.184   0.905   3.720 -0.1740 -0.2008 -0.3669
18502TIP3    H176921   2.241   0.939   3.651 -2.4243 -1.6966 -3.0717
18502TIP3    H276922   2.098   0.943   3.701 -0.7885 -0.4846  1.7421
18503TIP3   OH276923   5.486   6.518   2.214 -0.1336  0.1428  0.9219
18503TIP3    H176924   5.532   6.561   2.142 -0.1758  3.4523  2.7237
18503TIP3    H276925   5.556   6.489   2.272 -0.1436 -1.0714  0.3304
18504TIP3   OH276926   1.147   3.788   3.072 -0.1714 -0.1844  0.2959
18504TIP3    H176927   1.224   3.815   3.121 -0.2259  0.8379 -0.1796
18504TIP3    H276928   1.088   3.750   3.139  0.8995 -1.3659  0.5912
18505TIP3   OH276929   2.359   1.256  10.863 -0.7705  0.0922  0.4622
18505TIP3    H176930   2.443   1.252  10.818 -0.8017 -1.3298  0.4899
18505TIP3    H276931   2.313   1.329  10.823 -0.8195 -1.1562 -1.8525
18506TIP3   OH276932   4.125   3.971   5.959 -0.1677  0.6611  0.1399
18506TIP3    H176933   4.068   4.047   5.969 -1.2726 -0.0340 -0.7556
18506TIP3    H276934   4.213   4.007   5.951 -0.2255  1.6864  3.3584
18507TIP3   OH276935   5.103   1.539  14.804 -0.0654 -0.2860 -0.3662
18507TIP3    H176936   5.132   1.630  14.797  1.9517 -0.8597  0.2581
18507TIP3    H276937   5.069   1.518  14.717 -0.5471  1.0625 -0.5195
18508TIP3   OH276938   6.116   3.040   2.123  0.3523  0.4193 -0.2344
18508TIP3    H176939   6.145   3.122   2.081 -1.5218  0.9712 -0.4829
18508TIP3    H276940   6.022   3.038   2.109  0.2553 -1.3542  0.5708
18509TIP3   OH276941   2.340   2.415   4.669 -0.3322 -0.1311 -0.3310
18509TIP3    H176942   2.388   2.496   4.648 -0.8663 -0.1782 -1.8560
18509TIP3    H276943   2.248   2.440   4.661 -0.5873  0.0082  2.7825
18510TIP3   OH276944   0.575   3.095   5.726 -0.1255  0.2153  0.0827
18510TIP3    H176945   0.566   3.102   5.821  0.5755 -0.9433  0.2378
18510TIP3    H276946   0.554   3.004   5.707 -0.3203  0.4600 -0.8855
18511TIP3   OH276947   4.715   4.383   0.736 -0.1626  0.2836 -0.2346
18511TIP3    H176948   4.649   4.328   0.778 -0.2742  1.3412  1.0152
18511TIP3    H276949   4.723   4.459   0.793  3.4110 -0.6124  0.5915
18512TIP3   OH276950   4.014   3.975  12.588 -0.4398  0.4266  0.4344
18512TIP3    H176951   4.036   4.054  12.540 -1.8342 -0.0179 -0.9837
18512TIP3    H276952   4.038   3.903  12.529  1.0565 -0.2263  1.8050
18513TIP3   OH276953   3.533   2.856  16.629 -0.3641  0.2683 -0.2454
18513TIP3    H176954   3.508   2.810  16.709 -0.7996 -0.5843 -0.8728
18513TIP3    H276955   3.498   2.945  16.641 -0.4092  0.1516  0.5158
18514TIP3   OH276956   1.908   5.786   3.643  0.1780  0.2995  0.1906
18514TIP3    H176957   1.845   5.714   3.641  1.8363 -1.2066  0.7817
18514TIP3    H276958   1.872   5.851   3.583 -1.5187 -0.8767 -0.0941
18515TIP3   OH276959   5.197   1.516   3.965  0.0772 -0.0504 -0.3574
18515TIP3    H176960   5.108   1.526   3.997  0.5107 -2.4941  1.7286
18515TIP3    H276961   5.252   1.518   4.043  1.5956 -1.2535 -1.3489
18516TIP3   OH276962   0.882   4.937  13.661  0.0026 -0.2153 -0.4125
18516TIP3    H176963   0.971   4.969  13.676 -0.4995  1.3002 -0.5026
18516TIP3    H276964   0.852   4.987  13.585 -1.7405  1.0521  1.0557
18517TIP3   OH276965   4.688   4.850   5.092 -0.2727  0.3582 -0.0972
18517TIP3    H176966   4.726   4.856   5.005  1.5517  0.0049  0.6425
18517TIP3    H276967   4.657   4.938   5.112 -1.5635  0.2244 -1.4711
18518TIP3   OH276968   0.896   6.110  11.829  0.7504  0.1343  0.2947
18518TIP3    H176969   0.980   6.086  11.867  0.7615  0.5993  0.5612
18518TIP3    H276970   0.916   6.179  11.766  0.6751 -0.3255 -0.2509
18519TIP3   OH276971   1.574   5.485  15.832  0.1016 -0.4558 -0.2942
18519TIP3    H176972   1.576   5.525  15.919 -0.9475  1.7505 -1.2469
18519TIP3    H276973   1.586   5.392  15.849  0.9574  0.0382  2.1282
18520TIP3   OH276974   5.926   6.627  14.971  0.0568  0.2669 -0.6833
18520TIP3    H176975   5.916   6.536  14.940  2.2280 -0.4277  0.5762
18520TIP3    H276976   5.994   6.664  14.914  1.5647  0.0629  0.9707
18521TIP3   OH276977   2.829   4.004   1.485 -0.5024  0.3470  0.3707
18521TIP3    H176978   2.802   3.917   1.457 -1.8637  0.6192  0.8229
18521TIP3    H276979   2.916   3.991   1.523 -1.1573 -0.9988  1.4427
18522TIP3   OH276980   2.331   4.858  14.275 -0.0282 -0.2098 -0.0064
18522TIP3    H176981   2.237   4.860  14.261 -0.1197 -1.0017  0.4485
18522TIP3    H276982   2.345   4.907  14.356 -0.5383 -3.7293  2.3270
18523TIP3   OH276983   2.290   3.744  11.193  0.1372 -0.3179 -0.1517
18523TIP3    H176984   2.226   3.795  11.242 -1.1447 -2.4540  0.4990
18523TIP3    H276985   2.309   3.796  11.116 -0.3762  1.5622  0.9704
18524TIP3   OH276986   6.612   5.028  13.939  0.2566  0.1519  0.1317
18524TIP3    H176987   6.519   5.007  13.943  0.0471  0.9932 -0.0498
18524TIP3    H276988   6.649   4.963  13.880 -0.1613 -0.3670  0.4335
18525TIP3   OH276989   0.277   5.872   3.631  0.0837 -0.3788  0.3009
18525TIP3    H176990   0.248   5.797   3.684  0.5548 -0.1620  0.8746
18525TIP3    H276991   0.360   5.843   3.594  0.9125  0.3245  1.5611
18526TIP3   OH276992   5.154   6.324  15.659  0.1867  0.0662 -0.4245
18526TIP3    H176993   5.208   6.299  15.733  1.2004  0.8855 -0.8833
18526TIP3    H276994   5.213   6.318  15.583 -0.0760  2.0074 -0.7876
18527TIP3   OH276995   2.115   4.363   3.453  0.3053 -0.0927  0.3822
18527TIP3    H176996   2.024   4.354   3.482 -0.3978  2.0869 -1.0181
18527TIP3    H276997   2.140   4.452   3.479  2.0798 -0.6993  0.8331
18528TIP3   OH276998   2.713   3.974  13.689 -0.9034 -0.2240  0.2060
18528TIP3    H176999   2.768   3.912  13.641  1.1473  1.4647  0.2971
18528TIP3    H277000   2.629   3.971  13.644  0.4906  0.1282 -2.5257
18529TIP3   OH277001   5.651   1.162   6.007 -0.2842 -0.5412 -0.8664
18529TIP3    H177002   5.721   1.198   6.061  0.1094 -1.5527 -0.6914
18529TIP3    H277003   5.576   1.156   6.067 -0.3912  0.0938 -0.9300
18530TIP3   OH277004   5.028   2.853   2.434  0.0738  0.4412 -0.0641
18530TIP3    H177005   5.118   2.884   2.435  0.7388 -1.4413  0.9500
18530TIP3    H277006   5.018   2.808   2.351  0.2517  0.1530  0.0696
18531TIP3   OH277007   6.595   2.533   5.915 -0.2623  0.3721 -0.0086
18531TIP3    H177008   6.676   2.497   5.880  0.5864  1.0075  1.2803
18531TIP3    H277009   6.537   2.457   5.926  0.1987 -0.0941 -0.8116
18532TIP3   OH277010   1.443   6.695   2.708  0.0091 -0.1267 -0.3415
18532TIP3    H177011   1.363   6.738   2.679 -0.2161 -0.7861 -0.6904
18532TIP3    H277012   1.463   6.736   2.792  0.0130  0.9493 -0.8610
18533TIP3   OH277013   1.481   0.556  11.297 -0.8788 -0.2057 -0.1381
18533TIP3    H177014   1.524   0.471  11.307  0.5158  0.5660  0.5142
18533TIP3    H277015   1.533   0.615  11.351 -1.3199  1.2470 -1.2944
18534TIP3   OH277016   0.405   1.232  15.953 -0.0380 -0.2137 -0.1338
18534TIP3    H177017   0.498   1.247  15.937 -0.4736  2.3461 -0.5837
18534TIP3    H277018   0.402   1.180  16.034  1.7473  0.7723  0.5931
18535TIP3   OH277019   2.485   0.250   3.778  0.2141 -0.0935  0.2210
18535TIP3    H177020   2.480   0.330   3.830  1.4631  1.0967 -1.4478
18535TIP3    H277021   2.546   0.194   3.827  0.8789  0.7604  0.3970
18536TIP3   OH277022   1.558   0.957  13.378 -0.4698  0.3379  0.0178
18536TIP3    H177023   1.598   0.874  13.355 -1.5032  0.0421 -0.7543
18536TIP3    H277024   1.505   0.981  13.301 -0.6419  1.4114  0.4531
18537TIP3   OH277025   4.243   2.479   4.702 -0.7182 -0.7580 -0.4424
18537TIP3    H177026   4.338   2.480   4.711 -0.7412 -2.1206  0.0977
18537TIP3    H277027   4.227   2.503   4.610  0.1269 -0.2961 -0.4713
18538TIP3   OH277028   2.126   2.474   1.634  0.3211  0.1995  0.1710
18538TIP3    H177029   2.105   2.436   1.720  1.1886 -1.3676 -0.2804
18538TIP3    H277030   2.154   2.563   1.654  1.3864 -0.4357  1.6313
18539TIP3   OH277031   6.012   3.403   3.570  0.1865 -0.1613 -0.2503
18539TIP3    H177032   5.958   3.368   3.499 -1.2052  1.0344  0.1771
18539TIP3    H277033   6.032   3.328   3.625 -2.4931 -0.3886  0.4979
18540TIP3   OH277034   0.549   3.341   0.056 -0.4405  0.1485  0.3353
18540TIP3    H177035   0.483   3.409   0.063  0.3358  1.2139 -2.2463
18540TIP3    H277036   0.503   3.265   0.019 -0.8155 -0.0191  1.1431
18541TIP3   OH277037   2.623   0.371   2.138  0.1503 -0.5210  0.0746
18541TIP3    H177038   2.688   0.441   2.131 -1.4232  0.9138 -0.7483
18541TIP3    H277039   2.582   0.368   2.051 -1.1879 -1.0734  0.7058
18542TIP3   OH277040   3.753   0.081  15.235  1.0672  0.3941 -0.0581
18542TIP3    H177041   3.818   0.021  15.273  0.1782 -0.1702  0.5853
18542TIP3    H277042   3.731   0.141  15.306  0.5943  0.3433 -0.1626
18543TIP3   OH277043   2.112   1.467  12.737  0.0973  0.1990  0.0768
18543TIP3    H177044   2.077   1.555  12.726  0.7089  0.2611 -1.5934
18543TIP3    H277045   2.062   1.413  12.675 -1.0769 -0.8787  1.9052
18544TIP3   OH277046   4.265   1.358  16.992 -0.4498  0.4025  0.4863
18544TIP3    H177047   4.302   1.269  16.988  0.7584  0.9193  0.0494
18544TIP3    H277048   4.262   1.378  17.086  0.4685  0.3982  0.5132
18545TIP3   OH277049   3.680   6.092   3.357  0.4840 -0.0263 -0.9233
18545TIP3    H177050   3.585   6.092   3.344  0.5192  0.9321 -1.2490
18545TIP3    H277051   3.700   6.004   3.390 -0.5366 -0.1682 -0.6610
18546TIP3   OH277052   6.559   4.313  11.758 -0.1324 -0.4401  0.2124
18546TIP3    H177053   6.498   4.334  11.829 -0.6602 -2.0973  0.2822
18546TIP3    H277054   6.568   4.218  11.763  2.0327 -0.2731 -0.1575
18547TIP3   OH277055   2.944   4.859   4.522 -0.4440 -0.2799 -0.0786
18547TIP3    H177056   2.881   4.928   4.501 -0.1396 -0.3347 -1.2385
18547TIP3    H277057   3.008   4.901   4.579 -2.6408 -0.7608  2.8358
18548TIP3   OH277058   2.177   6.430  11.163  0.1738 -0.3432 -0.1282
18548TIP3    H177059   2.249   6.375  11.134  0.3711  0.7887 -1.8658
18548TIP3    H277060   2.127   6.374  11.223  3.2876 -0.6582  2.3104
18549TIP3   OH277061   3.584   0.322   5.535 -0.1735  0.1497  0.2755
18549TIP3    H177062   3.508   0.293   5.586  0.8487 -1.5161  0.8649
18549TIP3    H277063   3.586   0.417   5.547 -2.7278  0.3418 -0.5404
18550TIP3   OH277064   2.484   1.551   2.806  0.0049 -0.3651  0.0464
18550TIP3    H177065   2.429   1.560   2.884  0.3145  1.2955  0.0941
18550TIP3    H277066   2.569   1.524   2.841  0.0569  0.0713  0.2724
18551TIP3   OH277067   3.515   3.368  16.035 -0.5509  0.2216  0.1654
18551TIP3    H177068   3.443   3.310  16.060  0.3111  0.0906  2.4718
18551TIP3    H277069   3.594   3.318  16.055  0.1981  1.8235  1.3347
18552TIP3   OH277070   0.834   4.692   4.120  0.1265 -0.2895  0.4442
18552TIP3    H177071   0.882   4.744   4.184  0.7557 -0.2862 -0.0306
18552TIP3    H277072   0.901   4.643   4.073 -0.1743  0.8916 -1.2733
18553TIP3   OH277073   3.798   5.479   0.797  0.2782  0.1843 -0.0177
18553TIP3    H177074   3.806   5.435   0.712 -0.6092 -0.5160  0.2518
18553TIP3    H277075   3.736   5.551   0.781  0.9962  0.7662 -0.2289
18554TIP3   OH277076   3.735   5.517   5.133  0.7487  0.1153 -1.0754
18554TIP3    H177077   3.671   5.579   5.167  0.0879 -0.3371 -1.4951
18554TIP3    H277078   3.684   5.441   5.107  1.6900 -1.1996  0.7436
18555TIP3   OH277079   5.986   3.085  15.351 -0.0691 -0.5341  0.5044
18555TIP3    H177080   5.918   3.115  15.291  0.4722  0.1334  0.2098
18555TIP3    H277081   5.975   2.990  15.355 -0.9098 -0.4496  0.3356
18556TIP3   OH277082   3.122   6.667   6.007  0.4824 -0.6137  0.1711
18556TIP3    H177083   3.180   6.645   6.080  0.7066 -2.5795 -0.5595
18556TIP3    H277084   3.122   6.763   6.004  0.0944 -0.4795  3.0246
18557TIP3   OH277085   2.773   4.555  13.709  0.6468 -0.8142  0.4479
18557TIP3    H177086   2.685   4.589  13.692 -0.0437 -1.6470  2.2825
18557TIP3    H277087   2.759   4.467  13.742  2.2003 -1.0995  0.3612
18558TIP3   OH277088   1.654   3.208   2.338  0.0657  0.5588 -1.1503
18558TIP3    H177089   1.636   3.170   2.424  0.0563  3.0974  0.0204
18558TIP3    H277090   1.572   3.198   2.290  0.1652 -1.1631 -1.0126
18559TIP3   OH277091   6.504   4.585  15.901 -0.2113  0.3767  0.4235
18559TIP3    H177092   6.553   4.509  15.934 -1.1920 -0.1276  0.7521
18559TIP3    H277093   6.476   4.631  15.980 -1.0367  0.1613  0.2569
18560TIP3   OH277094   1.660   0.407  11.915 -0.4399  0.6382 -0.4147
18560TIP3    H177095   1.653   0.432  12.008  0.1534 -0.2991 -0.1085
18560TIP3    H277096   1.741   0.450  11.886 -1.2731  1.9641 -0.8534
18561TIP3   OH277097   1.280   1.342   4.537 -0.2170  0.6500  0.6452
18561TIP3    H177098   1.230   1.330   4.618 -0.7244 -0.5235  0.1757
18561TIP3    H277099   1.372   1.335   4.564 -0.4041 -0.4822  1.0090
18562TIP3   OH277100   5.280   4.101  12.824  0.1435 -0.3011  0.4990
18562TIP3    H177101   5.279   4.129  12.915 -0.0284  0.6153  0.2233
18562TIP3    H277102   5.367   4.125  12.793 -0.6492  1.7154 -0.2695
18563TIP3   OH277103   5.422   3.690   0.250  0.2291 -0.2014  0.5282
18563TIP3    H177104   5.486   3.755   0.280  1.6069 -1.1800 -0.1879
18563TIP3    H277105   5.439   3.681   0.157  1.9959 -3.5992  1.0821
18564TIP3   OH277106   6.669   3.399  16.428  0.1533  0.1417 -0.2946
18564TIP3    H177107   6.752   3.368  16.464  0.5097  2.5106  1.0103
18564TIP3    H277108   6.605   3.382  16.497 -0.4207 -1.3221 -1.1497
18565TIP3   OH277109   0.202   2.843   2.421 -0.3850 -0.3884  0.8597
18565TIP3    H177110   0.113   2.820   2.447 -1.1700  2.0155  0.3807
18565TIP3    H277111   0.202   2.836   2.325 -0.5346  1.1387  0.7321
18566TIP3   OH277112   2.001   0.616   3.418 -0.0333  0.2629 -0.3654
18566TIP3    H177113   2.064   0.600   3.347  0.7573  0.4879  0.2850
18566TIP3    H277114   2.055   0.626   3.496 -0.9552 -0.9530  0.4478
18567TIP3   OH277115   6.003   0.062   1.935 -0.2555  0.0666  0.7030
18567TIP3    H177116   5.943   0.134   1.917  0.0155  0.2098  0.3645
18567TIP3    H277117   5.955  -0.017   1.911 -0.3960  0.1657  0.6608
18568TIP3   OH277118   2.865   5.285   1.674 -0.4471  0.0571  0.0412
18568TIP3    H177119   2.825   5.207   1.636  0.6974 -0.4480 -0.1493
18568TIP3    H277120   2.824   5.294   1.760 -0.1951 -1.0846  0.2919
18569TIP3   OH277121   3.688   1.245  17.181  0.5172 -0.0933 -0.2290
18569TIP3    H177122   3.681   1.338  17.158  0.9131  0.3863  1.5762
18569TIP3    H277123   3.706   1.244  17.275  0.2030 -2.0096 -0.1679
18570TIP3   OH277124   4.199   3.986   2.350  0.0810 -0.2304  0.1014
18570TIP3    H177125   4.142   4.046   2.302  0.1849 -0.9161 -0.8989
18570TIP3    H277126   4.139   3.930   2.399  0.0450  2.0983  2.7836
18571TIP3   OH277127   1.986   2.914   1.708  0.6004  0.6715 -0.0861
18571TIP3    H177128   1.958   2.983   1.648  2.4144  0.7455 -0.8863
18571TIP3    H277129   1.937   2.837   1.681 -0.4915  1.3254 -0.0085
18572TIP3   OH277130   4.328   0.076  12.544 -0.1500 -0.0359  0.3366
18572TIP3    H177131   4.312   0.081  12.449  1.7128  0.8826  0.0453
18572TIP3    H277132   4.243   0.051  12.581 -1.1566  0.5332 -1.4935
18573TIP3   OH277133   4.043   4.976  15.540  0.3708 -0.1023 -0.6226
18573TIP3    H177134   3.963   4.952  15.587  0.3708  0.4153 -0.3465
18573TIP3    H277135   4.102   4.903  15.554  0.8188  0.5890  1.2479
18574TIP3   OH277136   2.736   2.998   3.362  0.3159 -0.0448 -0.2731
18574TIP3    H177137   2.784   3.011   3.444  0.1715 -0.2388 -0.1565
18574TIP3    H277138   2.644   2.991   3.389  0.4614 -2.3357 -0.2012
18575TIP3   OH277139   3.497   2.883  14.565 -0.2712  0.5229 -0.1479
18575TIP3    H177140   3.493   2.875  14.660  0.6029  2.4687  0.0823
18575TIP3    H277141   3.586   2.856  14.543 -1.1385 -1.9693 -0.6537
18576TIP3   OH277142   2.165   1.422   4.518 -0.3514 -0.1221  0.1226
18576TIP3    H177143   2.167   1.452   4.427  1.6400  2.0189  0.8307
18576TIP3    H277144   2.164   1.502   4.570 -0.4875 -1.3184  2.0222
18577TIP3   OH277145   6.458   0.996   2.582 -0.2164 -0.0217  0.3411
18577TIP3    H177146   6.530   1.058   2.591 -1.1423  1.0602  0.2693
18577TIP3    H277147   6.429   1.005   2.491 -0.5722 -0.3150  0.4238
18578TIP3   OH277148   2.776   5.699   2.308 -0.0083  0.7503 -0.1640
18578TIP3    H177149   2.791   5.689   2.402  1.7648 -1.1655 -0.6219
18578TIP3    H277150   2.814   5.784   2.286 -1.8195  1.9243  1.0999
18579TIP3   OH277151   2.341   1.915   5.345 -0.2843  0.4100 -0.3480
18579TIP3    H177152   2.420   1.897   5.294  0.2478 -1.2532  1.0443
18579TIP3    H277153   2.344   2.010   5.360 -0.2143  0.8780 -2.9692
18580TIP3   OH277154   4.998   3.040   4.572 -0.3759  0.2937  0.3524
18580TIP3    H177155   4.990   3.051   4.477  0.0889  0.5959  0.3447
18580TIP3    H277156   5.034   2.951   4.583 -2.2419 -0.4819  0.3299
18581TIP3   OH277157   0.998   0.291  10.870 -0.5145 -0.0268  0.0560
18581TIP3    H177158   0.903   0.289  10.855 -0.6722 -1.1125  1.1858
18581TIP3    H277159   1.032   0.339  10.794 -1.9784  0.5580 -0.2609
18582TIP3   OH277160   4.664   2.959  17.153  0.1695 -0.1082  0.1145
18582TIP3    H177161   4.608   3.032  17.179  0.3413  0.0111  0.1453
18582TIP3    H277162   4.664   2.901  17.229 -0.8466 -0.6748 -0.2928
18583TIP3   OH277163   2.126   4.882   0.593  0.1432 -0.2567 -0.6090
18583TIP3    H177164   2.099   4.970   0.619  0.0691 -0.5806  0.4029
18583TIP3    H277165   2.109   4.827   0.669  0.3750 -1.1195 -1.1636
18584TIP3   OH277166   6.312   6.122   4.547 -0.0903 -0.6157  0.2258
18584TIP3    H177167   6.319   6.202   4.600 -1.5311 -0.8332  0.7404
18584TIP3    H277168   6.259   6.148   4.472 -0.5227 -1.0816  0.3726
18585TIP3   OH277169   6.019   0.428  14.027 -0.1551  0.0209 -0.4089
18585TIP3    H177170   5.934   0.399  13.993  0.3392 -1.1704 -0.6575
18585TIP3    H277171   6.050   0.492  13.963  0.1384 -1.1883 -1.5039
18586TIP3   OH277172   0.730   2.479  16.821  0.6554  0.2267  0.3804
18586TIP3    H177173   0.791   2.493  16.894  0.9864  1.8982 -0.1908
18586TIP3    H277174   0.661   2.425  16.858 -0.6877  3.4251  2.8002
18587TIP3   OH277175   4.001   1.638   1.990 -0.5853  0.0784 -0.3981
18587TIP3    H177176   3.970   1.557   2.030  2.0868 -0.9367 -0.2720
18587TIP3    H277177   4.001   1.620   1.896 -2.4135  0.8592 -0.5790
18588TIP3   OH277178   6.482   3.914  16.235 -0.6752 -0.1416  0.0722
18588TIP3    H177179   6.440   3.967  16.303 -0.2446 -0.8273  0.8800
18588TIP3    H277180   6.498   3.829  16.277  2.2777  0.3562  0.0624
18589TIP3   OH277181   4.695   2.567   4.546 -0.5592  0.3822  0.2059
18589TIP3    H177182   4.789   2.567   4.562 -0.5896  1.1758  0.3935
18589TIP3    H277183   4.677   2.652   4.507 -0.8946 -0.5383 -1.7026
18590TIP3   OH277184   2.357   3.476  13.384  0.2637 -0.5111 -0.3136
18590TIP3    H177185   2.436   3.485  13.330  0.7935 -0.9237  0.3890
18590TIP3    H277186   2.286   3.509  13.328  0.9611  0.0778 -0.8617
18591TIP3   OH277187   3.929   3.140   0.889  0.0779  0.0404 -0.3459
18591TIP3    H177188   3.874   3.152   0.812  0.0533  0.8225 -0.2120
18591TIP3    H277189   4.013   3.180   0.866 -0.0257  0.5506  0.1297
18592TIP3   OH277190   1.153   5.051   3.941 -0.1040 -0.1012 -0.2923
18592TIP3    H177191   1.079   5.051   3.880 -1.4767 -2.5846  1.2719
18592TIP3    H277192   1.151   5.138   3.981 -2.5112 -0.2712  0.0508
18593TIP3   OH277193   2.501   6.039   3.321 -0.0754 -0.8371 -0.3589
18593TIP3    H177194   2.564   6.099   3.360 -0.6373 -0.9687  0.7950
18593TIP3    H277195   2.426   6.094   3.297 -0.4456 -1.0098  0.3735
18594TIP3   OH277196   1.360   5.598  10.922 -0.6006 -0.0959 -0.4275
18594TIP3    H177197   1.309   5.518  10.929 -1.7608  0.8009  2.2998
18594TIP3    H277198   1.415   5.586  10.845 -0.4426 -3.6736  0.1750
18595TIP3   OH277199   6.537   0.739   4.765 -0.2137 -0.0896 -0.4652
18595TIP3    H177200   6.568   0.650   4.777  1.4761  0.3124 -1.7034
18595TIP3    H277201   6.463   0.747   4.826 -0.3037 -2.2708 -0.2509
18596TIP3   OH277202   5.599   6.290   0.316  0.0411  0.1664  0.4545
18596TIP3    H177203   5.646   6.348   0.256 -0.5177  1.0823  0.8865
18596TIP3    H277204   5.666   6.232   0.351  0.1633 -1.2273 -2.0249
18597TIP3   OH277205   5.958   0.641  14.820  0.1832 -0.0339  0.0053
18597TIP3    H177206   5.991   0.554  14.798 -0.3581 -0.5253  1.0617
18597TIP3    H277207   5.926   0.676  14.737  0.5884 -0.7669 -0.4691
18598TIP3   OH277208   1.298   6.668   4.044 -0.0938  0.2380 -0.1607
18598TIP3    H177209   1.213   6.648   4.082  0.1534  1.0029  0.7929
18598TIP3    H277210   1.279   6.683   3.951 -1.0868  0.9894  0.1506
18599TIP3   OH277211   0.695   6.281  11.425 -0.1153  0.2926  0.3487
18599TIP3    H177212   0.678   6.188  11.409 -3.0326  1.0899 -1.6404
18599TIP3    H277213   0.767   6.303  11.366 -0.0434 -0.4873  0.1333
18600TIP3   OH277214   1.306   5.345   4.611  0.0813 -0.1244  0.5135
18600TIP3    H177215   1.315   5.255   4.580 -0.4918 -0.2493  0.6947
18600TIP3    H277216   1.317   5.399   4.533 -0.2014 -0.3829  0.2935
18601TIP3   OH277217   3.432   0.467  17.031 -0.1877  0.0319 -0.0655
18601TIP3    H177218   3.425   0.515  16.949 -2.9734  0.1386  0.1769
18601TIP3    H277219   3.462   0.532  17.095 -2.5275  1.1452 -0.0424
18602TIP3   OH277220   5.031   0.946  14.845  1.1173 -0.4218 -0.5406
18602TIP3    H177221   5.089   0.944  14.769  1.6940  1.0604 -0.1572
18602TIP3    H277222   4.952   0.991  14.813  1.4866  0.4879 -0.1898
18603TIP3   OH277223   4.853   5.181  16.052  0.0447 -0.7726  0.0117
18603TIP3    H177224   4.799   5.193  15.974  0.7213 -1.8886 -0.6457
18603TIP3    H277225   4.943   5.188  16.020  0.3197 -0.5712  0.8101
18604TIP3   OH277226   4.087   5.024   5.881 -0.3871  0.3708 -0.3865
18604TIP3    H177227   4.037   5.073   5.946 -0.8781  1.7754 -1.7908
18604TIP3    H277228   4.047   4.937   5.880 -1.9186  1.0641 -0.5219
18605TIP3   OH277229   0.925   0.246   0.871 -0.9791 -0.1992  0.1595
18605TIP3    H177230   0.921   0.167   0.925  2.8920 -0.1768  0.5717
18605TIP3    H277231   1.017   0.271   0.870 -1.5443  2.1448 -3.1320
18606TIP3   OH277232   0.883   3.363   3.959  0.2272 -0.5789  0.0922
18606TIP3    H177233   0.842   3.372   4.045 -0.2072  2.9702 -0.3998
18606TIP3    H277234   0.973   3.335   3.978 -0.0762 -0.5376  1.6536
18607TIP3   OH277235   3.133   0.469   3.266 -0.2343  0.3550 -0.2759
18607TIP3    H177236   3.143   0.421   3.348 -0.8816  2.9723  1.4316
18607TIP3    H277237   3.081   0.412   3.210  0.9011 -1.8144  0.8111
18608TIP3   OH277238   6.104   1.872   5.379  0.1617 -0.0955 -0.0863
18608TIP3    H177239   6.150   1.908   5.454 -0.6454 -0.2746  0.5045
18608TIP3    H277240   6.130   1.780   5.376  0.1890 -0.0896 -0.0261
18609TIP3   OH277241   0.976   0.316  16.806 -0.1648  0.6340 -0.2907
18609TIP3    H177242   1.004   0.310  16.714 -0.5967 -1.3249 -0.3242
18609TIP3    H277243   1.017   0.240  16.848 -2.5551 -0.2690  0.4379
18610TIP3   OH277244   0.675   1.915   1.926 -1.0708 -0.0344  0.3633
18610TIP3    H177245   0.650   1.899   2.017 -2.9780  0.0902 -0.1023
18610TIP3    H277246   0.645   2.004   1.909 -1.2138 -0.2517 -0.5446
18611TIP3   OH277247   3.660   5.524  11.759  0.1176 -0.4502 -0.4377
18611TIP3    H177248   3.613   5.533  11.842  0.1662  1.0649 -0.5607
18611TIP3    H277249   3.750   5.503  11.785  0.2138  0.3794 -0.0969
18612TIP3   OH277250   5.310   2.044  13.003 -0.5321  0.3431  0.5224
18612TIP3    H177251   5.278   2.099  13.075  2.0539 -1.4207  3.1783
18612TIP3    H277252   5.339   2.106  12.936 -1.2436  2.1005  1.8057
18613TIP3   OH277253   3.863   3.557   0.926  0.1302 -0.2915 -0.2429
18613TIP3    H177254   3.772   3.584   0.939 -0.0047 -0.8889  0.0725
18613TIP3    H277255   3.909   3.591   1.003 -0.1397 -1.4024  0.4216
18614TIP3   OH277256   6.144   2.158  15.917 -0.1990  0.0394 -0.1764
18614TIP3    H177257   6.139   2.224  15.847  2.6465 -0.1499 -0.6242
18614TIP3    H277258   6.156   2.210  15.996 -0.1578  0.1376 -0.2455
18615TIP3   OH277259   5.947   5.379   3.479  0.8206  0.2228 -0.1739
18615TIP3    H177260   6.033   5.417   3.498  1.2097 -1.6715  2.1729
18615TIP3    H277261   5.950   5.293   3.521 -2.2054  0.1119 -0.1218
18616TIP3   OH277262   0.704   2.889  13.224 -0.0355 -0.3224 -0.3421
18616TIP3    H177263   0.788   2.846  13.208 -0.4786 -0.3418 -2.9538
18616TIP3    H277264   0.656   2.829  13.280  2.1799  0.3482  2.4121
18617TIP3   OH277265   1.352   0.285  13.612 -0.6674 -0.1290  0.4926
18617TIP3    H177266   1.367   0.205  13.562  1.1969  0.8575 -0.6061
18617TIP3    H277267   1.315   0.255  13.695  1.2496 -2.2697  0.6435
18618TIP3   OH277268   2.372   0.333   1.114  0.3096  0.2220 -0.4157
18618TIP3    H177269   2.304   0.392   1.146 -1.0581 -1.5833  0.0652
18618TIP3    H277270   2.387   0.272   1.186  2.8359  0.8970 -0.3134
18619TIP3   OH277271   4.710   0.582   4.213 -0.8588  0.1918 -0.1832
18619TIP3    H177272   4.633   0.609   4.164  0.5425  1.6207 -1.6674
18619TIP3    H277273   4.698   0.488   4.228 -2.7308  0.3554 -0.6368
18620TIP3   OH277274   6.625   1.313  13.403 -0.3273 -0.3306  0.2201
18620TIP3    H177275   6.551   1.313  13.342  1.2182 -0.7323 -1.7400
18620TIP3    H277276   6.586   1.306  13.489 -2.5791 -0.2810 -0.7663
18621TIP3   OH277277   2.130   3.208  16.482  0.2266 -0.1768 -0.2993
18621TIP3    H177278   2.151   3.204  16.389  1.0428  0.3366 -0.1396
18621TIP3    H277279   2.040   3.241  16.485  0.7175  1.2457 -0.8506
18622TIP3   OH277280   0.449   0.474  16.484 -0.0392 -0.2405 -0.8844
18622TIP3    H177281   0.419   0.551  16.532 -0.2414 -0.8002 -0.1001
18622TIP3    H277282   0.402   0.401  16.525  0.3474 -0.8070 -1.4485
18623TIP3   OH277283   0.872   2.499   0.773  0.6282  0.1303  0.3495
18623TIP3    H177284   0.965   2.483   0.792  0.8359  1.4418  0.4670
18623TIP3    H277285   0.830   2.415   0.791  1.7771 -0.4506  0.3963
18624TIP3   OH277286   0.341   0.539  12.573 -0.2398 -0.1552  0.4121
18624TIP3    H177287   0.286   0.470  12.611  0.2094 -0.6005  0.2569
18624TIP3    H277288   0.304   0.554  12.486 -1.1768  0.7600  0.9538
18625TIP3   OH277289   1.992   5.972   0.263  0.1681  0.0262  0.8392
18625TIP3    H177290   1.995   5.877   0.274  0.6669 -0.1975 -1.0711
18625TIP3    H277291   1.909   5.989   0.219 -0.0219  0.5013  1.3750
18626TIP3   OH277292   4.709   5.985  11.665  0.3442 -0.2601 -0.0761
18626TIP3    H177293   4.627   5.971  11.617  1.5520  0.4072 -2.4160
18626TIP3    H277294   4.739   5.896  11.688  0.2887 -0.6639 -1.5315
18627TIP3   OH277295   0.522   0.107  15.307  0.8097 -0.1666  0.4028
18627TIP3    H177296   0.618   0.109  15.309  0.9657 -2.5455 -1.3092
18627TIP3    H277297   0.502   0.066  15.223 -1.7256  0.4276  0.6992
18628TIP3   OH277298   6.606   1.904  11.937  0.5941 -0.0402 -0.1793
18628TIP3    H177299   6.554   1.929  11.860  1.0780 -1.1726 -0.8977
18628TIP3    H277300   6.680   1.855  11.900  1.0485 -0.2422  0.9905
18629TIP3   OH277301   0.575   3.597   3.674  0.0055  0.0789 -0.5871
18629TIP3    H177302   0.607   3.509   3.691  1.1688  0.3004 -1.5908
18629TIP3    H277303   0.641   3.637   3.617 -1.5311  0.9130 -1.8311
18630TIP3   OH277304   2.137   6.785  13.561 -0.3827  0.3538 -0.0571
18630TIP3    H177305   2.122   6.750  13.649  0.5676  0.2247  0.0525
18630TIP3    H277306   2.109   6.714  13.503  2.0918 -0.8552  0.1698
18631TIP3   OH277307   1.233   0.409   3.783  0.4672  0.4669 -0.4627
18631TIP3    H177308   1.301   0.378   3.842  0.9098 -0.3015 -1.3637
18631TIP3    H277309   1.273   0.406   3.696 -1.1589 -1.2912 -1.1801
18632TIP3   OH277310   5.384   3.242  16.528  0.3893 -0.5640  0.1540
18632TIP3    H177311   5.466   3.278  16.560 -0.4696 -1.3183  3.4098
18632TIP3    H277312   5.410   3.175  16.464  2.1517  1.2192 -1.0505
18633TIP3   OH277313   2.760   4.963   6.112 -0.0651 -0.2039 -0.1451
18633TIP3    H177314   2.707   4.956   6.033  1.1320 -1.2854 -0.8719
18633TIP3    H277315   2.851   4.961   6.081  0.4254  1.2529  1.1065
18634TIP3   OH277316   3.363   0.234   5.705  0.2801 -0.3746 -0.3532
18634TIP3    H177317   3.366   0.217   5.799  0.5038 -1.8916 -0.6242
18634TIP3    H277318   3.353   0.148   5.665  0.3346  0.2433 -1.7292
18635TIP3   OH277319   0.803   2.975   0.213 -0.8822  0.0769  0.2667
18635TIP3    H177320   0.886   2.966   0.168 -2.1959  0.0108 -2.2364
18635TIP3    H277321   0.765   3.056   0.179 -1.9428 -0.0057  1.1906
18636TIP3   OH277322   6.389   1.912  15.395 -0.1277  0.2100  0.2510
18636TIP3    H177323   6.388   1.838  15.456  0.7618  0.2968  0.3832
18636TIP3    H277324   6.442   1.882  15.321 -1.7369 -0.1224 -0.7852
18637TIP3   OH277325   0.146   3.533   1.206  0.1806 -0.0241 -0.1902
18637TIP3    H177326   0.161   3.531   1.301  4.2873  1.5909 -0.7116
18637TIP3    H277327   0.131   3.625   1.186 -2.7576 -0.6048 -0.9170
18638TIP3   OH277328   4.567   0.139   6.052 -0.2724 -0.0107  0.3597
18638TIP3    H177329   4.549   0.232   6.063  0.4325 -0.0997  2.3205
18638TIP3    H277330   4.569   0.103   6.141 -1.1330 -2.0200 -0.3846
18639TIP3   OH277331   1.579   6.562   2.033 -0.5433  0.6326 -0.2184
18639TIP3    H177332   1.593   6.556   1.939  3.4328 -0.0919  0.3420
18639TIP3    H277333   1.635   6.494   2.070 -0.4918  2.2216  2.7844
18640TIP3   OH277334   5.854   3.979  12.918  0.0195 -0.0762 -0.4521
18640TIP3    H177335   5.825   4.053  12.973  2.1857 -0.3308  1.0743
18640TIP3    H277336   5.914   4.019  12.855  1.0440 -0.4873  0.2541
18641TIP3   OH277337   0.583   0.503  11.876  0.0587 -0.6438  0.2415
18641TIP3    H177338   0.544   0.436  11.932 -0.2346 -1.1627 -0.5784
18641TIP3    H277339   0.677   0.496  11.891 -0.1287  0.5873  2.1940
18642TIP3   OH277340   0.823   2.594  12.231  0.5764  0.0054 -0.2176
18642TIP3    H177341   0.737   2.557  12.210  0.2692 -0.0740  1.0998
18642TIP3    H277342   0.806   2.650  12.307  1.2839  1.7897 -1.3607
18643TIP3   OH277343   2.210   4.254   1.764  0.0330 -0.3121  0.9998
18643TIP3    H177344   2.197   4.219   1.676 -1.9141 -0.1145  1.1873
18643TIP3    H277345   2.305   4.250   1.778  0.8007  2.7888 -2.4258
18644TIP3   OH277346   3.605   1.648   5.342  0.1602  0.2080  0.4886
18644TIP3    H177347   3.691   1.639   5.303  0.4088 -0.7087  1.2425
18644TIP3    H277348   3.619   1.703   5.419  0.2038 -0.5751  1.0420
18645TIP3   OH277349   4.174   0.525  11.655 -0.9845  0.1582 -0.1506
18645TIP3    H177350   4.132   0.524  11.569 -2.4775  0.0492  0.5674
18645TIP3    H277351   4.266   0.547  11.636 -1.0096 -1.1010 -1.8684
18646TIP3   OH277352   2.440   0.775   3.260  0.1430  0.6729  0.5686
18646TIP3    H177353   2.522   0.758   3.307  0.6948  0.1246 -0.5724
18646TIP3    H277354   2.466   0.828   3.185 -0.9383  2.7895  1.6434
18647TIP3   OH277355   1.908   3.947  14.899 -1.0851 -0.1703  0.1357
18647TIP3    H177356   1.985   3.913  14.854 -1.2336  0.4664 -0.5912
18647TIP3    H277357   1.941   4.018  14.954 -0.8449 -1.1817  1.3267
18648TIP3   OH277358   6.597   3.739  14.653 -0.3591  0.2158 -0.1290
18648TIP3    H177359   6.649   3.806  14.697  2.2837 -2.3868  0.9126
18648TIP3    H277360   6.543   3.701  14.723  0.3566 -0.7395 -0.0895
18649TIP3   OH277361   2.325   4.453   2.595  0.3633 -0.2086 -0.5323
18649TIP3    H177362   2.340   4.372   2.645 -0.3266  0.2464  0.4345
18649TIP3    H277363   2.261   4.428   2.528  2.0769 -1.0777 -1.8947
18650TIP3   OH277364   2.094   1.248   3.319  0.0988  0.2158  0.1864
18650TIP3    H177365   2.068   1.251   3.411 -0.2249  2.7946  0.0401
18650TIP3    H277366   2.020   1.209   3.274 -0.3463  0.3117  0.8296
18651TIP3   OH277367   3.265   4.664   5.474 -0.3892  0.0045  0.7832
18651TIP3    H177368   3.194   4.600   5.476  0.0388 -0.5410 -1.1732
18651TIP3    H277369   3.345   4.611   5.481 -0.0555  0.3357 -0.3970
18652TIP3   OH277370   0.818   6.070  14.514  0.0121  0.0660  0.0104
18652TIP3    H177371   0.803   6.149  14.567 -0.7726  0.1702 -0.3527
18652TIP3    H277372   0.828   6.000  14.578 -2.2182 -0.0249  0.3022
18653TIP3   OH277373   3.952   4.415  10.907  0.5889  0.2341 -0.0532
18653TIP3    H177374   3.860   4.389  10.906  0.7103 -0.1695 -0.7516
18653TIP3    H277375   3.972   4.438  10.816  1.0945  0.6129  0.1484
18654TIP3   OH277376   1.651   1.004   3.092  0.2627  0.2249  0.2144
18654TIP3    H177377   1.683   0.929   3.143  0.0512  0.2912  0.4506
18654TIP3    H277378   1.634   0.968   3.005 -0.6134 -0.2028  0.5455
18655TIP3   OH277379   2.554   2.794   2.647 -0.4270  0.1266  0.3227
18655TIP3    H177380   2.524   2.862   2.708 -1.5392 -1.1289  1.1959
18655TIP3    H277381   2.604   2.842   2.581 -1.0525  1.7792  1.0182
18656TIP3   OH277382   5.219   2.892   0.888 -0.0555 -0.9931  0.0824
18656TIP3    H177383   5.224   2.939   0.805 -3.0771  1.4637  1.1663
18656TIP3    H277384   5.126   2.873   0.899  0.1099 -0.2798  3.3855
18657TIP3   OH277385   2.174   0.512   1.194  0.1206  0.2049  0.2230
18657TIP3    H177386   2.185   0.542   1.284 -2.4146 -1.1686  1.0616
18657TIP3    H277387   2.107   0.571   1.158  1.1475  0.7688 -0.7926
18658TIP3   OH277388   2.365   3.163   3.106 -0.9749  0.0318 -0.0023
18658TIP3    H177389   2.334   3.216   3.180 -0.3527 -2.4199  2.0929
18658TIP3    H277390   2.458   3.150   3.123 -0.8566 -0.6430 -1.1533
18659TIP3   OH277391   2.183   2.064   3.665 -0.6452  0.1640  0.1762
18659TIP3    H177392   2.242   2.096   3.734 -0.7720 -0.2917  0.4959
18659TIP3    H277393   2.239   2.058   3.587 -0.1004 -0.9293  0.6449
18660TIP3   OH277394   3.075   1.803   1.264 -0.7437  0.9781  0.0362
18660TIP3    H177395   3.112   1.891   1.255 -0.4110  0.9768  1.3526
18660TIP3    H277396   3.092   1.779   1.354  2.8403 -2.1142 -1.3750
18661TIP3   OH277397   4.997   0.510   4.847  0.0375 -0.0054  0.4637
18661TIP3    H177398   4.973   0.425   4.884  3.8547 -0.2892  2.5181
18661TIP3    H277399   4.962   0.574   4.908 -1.3793 -0.1299 -0.1987
18662TIP3   OH277400   3.309   2.055  11.612 -0.4844 -0.3329 -0.2232
18662TIP3    H177401   3.271   2.107  11.541 -0.0909  1.8609  1.0966
18662TIP3    H277402   3.276   2.097  11.692  2.2754 -0.2366  0.9239
18663TIP3   OH277403   3.790   6.717  13.435  0.1956 -0.3530 -0.0184
18663TIP3    H177404   3.818   6.667  13.511 -3.1601  2.3459  3.1840
18663TIP3    H277405   3.871   6.753  13.398  1.9520 -2.3791  1.7432
18664TIP3   OH277406   2.345   5.877   6.331 -0.6078 -0.1186 -0.0093
18664TIP3    H177407   2.311   5.924   6.406 -0.3054 -1.7315  1.1535
18664TIP3    H277408   2.429   5.842   6.360  0.2089  0.4786 -1.5669
18665TIP3   OH277409   1.888   1.496   5.076 -0.3997  0.1627 -0.9038
18665TIP3    H177410   1.925   1.579   5.107 -1.4793  0.7973 -1.3066
18665TIP3    H277411   1.794   1.506   5.089 -0.4212 -1.5811  0.4165
18666TIP3   OH277412   5.412   5.943  16.480 -0.4106 -0.2315 -0.7162
18666TIP3    H177413   5.447   6.015  16.428 -1.2893 -0.2662 -1.3731
18666TIP3    H277414   5.487   5.910  16.530  0.6574 -0.7386 -2.5919
18667TIP3   OH277415   2.393   0.216  14.151 -0.2462 -0.9614  0.0625
18667TIP3    H177416   2.318   0.185  14.202 -1.8730  0.4723 -1.4155
18667TIP3    H277417   2.371   0.306  14.128  0.8655 -1.2697 -2.3575
18668TIP3   OH277418   0.410   2.109  11.277 -0.3999  0.1529 -0.0276
18668TIP3    H177419   0.413   2.109  11.181  2.3126 -0.2817  0.0226
18668TIP3    H277420   0.360   2.188  11.299 -2.8097 -0.8357 -1.8154
18669TIP3   OH277421   1.491   1.616   5.703  0.6661  0.0097  0.0404
18669TIP3    H177422   1.584   1.608   5.724  0.8581 -0.2279 -0.8922
18669TIP3    H277423   1.476   1.551   5.635 -0.0155  0.5589 -0.3455
18670TIP3   OH277424   5.010   5.768   3.520 -0.1783  0.1573 -0.1480
18670TIP3    H177425   5.077   5.834   3.502 -1.6262  1.5463 -0.5490
18670TIP3    H277426   4.996   5.724   3.437 -1.2774  1.3082 -0.5843
18671TIP3   OH277427   2.484   0.250  17.234  0.0087  0.1422 -0.2689
18671TIP3    H177428   2.502   0.343  17.249 -0.5161  0.3344 -0.8242
18671TIP3    H277429   2.406   0.249  17.179  1.4285 -0.5700 -2.3116
18672TIP3   OH277430   4.248   4.515  13.389  0.2334  0.3527 -0.1720
18672TIP3    H177431   4.243   4.453  13.316 -0.7385  0.5783 -0.3074
18672TIP3    H277432   4.251   4.461  13.467 -1.4777  0.1209 -0.2409
18673TIP3   OH277433   4.133   4.373  11.259  0.4505  0.3703 -0.0224
18673TIP3    H177434   4.201   4.411  11.314  0.5883  0.0649  0.0224
18673TIP3    H277435   4.149   4.279  11.264  0.0767  0.3051 -0.0833
18674TIP3   OH277436   1.020   2.299  16.457  0.1087 -0.2675 -0.2339
18674TIP3    H177437   0.996   2.262  16.372  0.6602 -0.4427 -0.3159
18674TIP3    H277438   0.954   2.367  16.473  0.2833  0.0942 -1.0256
18675TIP3   OH277439   3.530   4.593  12.197 -0.1309  0.0628 -0.3967
18675TIP3    H177440   3.553   4.667  12.253  0.5093  0.1841 -0.8067
18675TIP3    H277441   3.494   4.633  12.118 -1.4115 -0.1207  0.0898
18676TIP3   OH277442   0.310   2.202  15.223 -0.2539 -0.2736 -0.0411
18676TIP3    H177443   0.379   2.244  15.275  0.2534 -0.0016 -0.9393
18676TIP3    H277444   0.356   2.136  15.171 -0.1534  2.1174 -3.1003
18677TIP3   OH277445   6.630   3.651   2.143  0.6763 -0.4076 -0.4421
18677TIP3    H177446   6.708   3.703   2.128  0.3763  0.0454 -0.4256
18677TIP3    H277447   6.644   3.610   2.228  1.1625 -0.8152 -0.7092
18678TIP3   OH277448   1.859   1.013  13.416  0.4041  0.1585  0.5183
18678TIP3    H177449   1.924   0.948  13.391 -0.7643 -1.1659  0.8661
18678TIP3    H277450   1.834   1.056  13.334 -1.3260 -2.1977 -0.2239
18679TIP3   OH277451   4.662   1.636  16.209 -0.2869  0.2826  0.3537
18679TIP3    H177452   4.757   1.646  16.209 -0.0457 -1.7370 -0.8029
18679TIP3    H277453   4.629   1.720  16.177  1.1859  0.4769 -0.6991
18680TIP3   OH277454   1.516   2.695   2.357  0.3723  0.2042 -0.0056
18680TIP3    H177455   1.569   2.756   2.407 -0.4980 -0.1241  1.3548
18680TIP3    H277456   1.464   2.649   2.423  0.7719 -1.7757 -1.0350
18681TIP3   OH277457   0.775   5.992  16.364 -0.2171  0.3138  0.1687
18681TIP3    H177458   0.816   6.049  16.299  0.5272  0.6369  0.9159
18681TIP3    H277459   0.731   5.924  16.312  4.1797 -2.0928 -0.6073
18682TIP3   OH277460   0.731   6.095  11.189 -0.2151 -0.1843  0.0505
18682TIP3    H177461   0.742   6.164  11.122  0.6196  0.7683  1.1422
18682TIP3    H277462   0.668   6.034  11.151 -1.6617  1.6573 -0.5845
18683TIP3   OH277463   6.403   3.164   3.074  0.4358  0.0190 -0.0490
18683TIP3    H177464   6.380   3.133   3.162  0.9518 -0.7385 -0.1832
18683TIP3    H277465   6.348   3.242   3.062 -0.3661 -0.4413  0.5496
18684TIP3   OH277466   5.128   5.440  14.279  0.1312  0.6246  0.0326
18684TIP3    H177467   5.047   5.484  14.253 -1.5119 -1.2538  1.7284
18684TIP3    H277468   5.147   5.382  14.206 -0.8012  0.1504  0.1461
18685TIP3   OH277469   2.677   2.520  16.566 -0.0570  0.5950  0.3545
18685TIP3    H177470   2.663   2.587  16.500  1.9020  0.6905 -0.0151
18685TIP3    H277471   2.771   2.526  16.587 -0.6657  0.6898  3.2788
18686TIP3   OH277472   2.417   5.643  16.773  0.3341 -0.3355  0.0870
18686TIP3    H177473   2.396   5.621  16.682  1.1444  0.9588 -0.4186
18686TIP3    H277474   2.499   5.595  16.790 -0.1306 -1.0502  0.3312
18687TIP3   OH277475   1.828   6.066  11.239  0.1873 -0.2042 -0.1346
18687TIP3    H177476   1.747   6.027  11.207 -0.8156  1.4227  0.3780
18687TIP3    H277477   1.871   6.100  11.161  0.5312 -1.3165 -0.4411
18688TIP3   OH277478   5.224   5.298  13.560 -0.2962 -0.1757  0.0565
18688TIP3    H177479   5.310   5.277  13.597  0.7060 -0.1855 -2.2336
18688TIP3    H277480   5.178   5.343  13.631  1.1485 -1.2392  1.7089
18689TIP3   OH277481   4.950   0.253  13.956 -0.9181 -0.0197  0.0286
18689TIP3    H177482   4.915   0.339  13.933  0.1045  0.6358  0.8648
18689TIP3    H277483   5.037   0.252  13.918 -0.2364  0.0347  1.5597
18690TIP3   OH277484   0.335   2.487  14.129  0.0137  0.4110 -0.3068
18690TIP3    H177485   0.388   2.536  14.067 -0.8982  0.4188 -1.0809
18690TIP3    H277486   0.383   2.495  14.212  1.2392  0.3911 -0.9919
18691TIP3   OH277487   1.441   1.763   4.714 -0.1842 -0.5041  0.0958
18691TIP3    H177488   1.454   1.789   4.623 -1.5936 -1.1986 -0.3145
18691TIP3    H277489   1.355   1.719   4.715  0.2136 -1.2981  1.5774
18692TIP3   OH277490   0.198   6.571  15.288 -0.4158 -0.0663  0.3490
18692TIP3    H177491   0.281   6.528  15.307 -0.8843 -0.6565  1.0471
18692TIP3    H277492   0.212   6.613  15.203 -0.5665 -3.2157 -1.3169
18693TIP3   OH277493   5.576   0.846  12.677  0.1905 -0.0597  0.3390
18693TIP3    H177494   5.624   0.814  12.600 -0.0812  1.0582 -0.3175
18693TIP3    H277495   5.510   0.906  12.640 -0.3572 -0.0015  1.3979
18694TIP3   OH277496   5.385   5.927  12.166 -0.4905 -0.4444  0.2959
18694TIP3    H177497   5.478   5.933  12.143 -0.3940 -2.6113  0.0593
18694TIP3    H277498   5.383   5.870  12.243 -1.5251  0.6067  1.0650
18695TIP3   OH277499   1.910   4.644   4.484 -0.3664 -0.3819  0.4280
18695TIP3    H177500   1.934   4.684   4.568 -0.7975 -0.0158  0.3793
18695TIP3    H277501   1.992   4.614   4.448 -0.2310 -0.9645  1.2021
18696TIP3   OH277502   1.810   6.239  14.926  0.7083 -0.1048 -0.3275
18696TIP3    H177503   1.729   6.214  14.971  1.5573 -3.1324 -0.3768
18696TIP3    H277504   1.798   6.210  14.836  0.9830  1.5268 -0.9208
18697TIP3   OH277505   3.345   4.443   2.444  0.0648  0.0207  0.1891
18697TIP3    H177506   3.417   4.379   2.451  0.1160 -0.0004 -0.4788
18697TIP3    H277507   3.312   4.431   2.355 -0.9878 -0.1950  0.6111
18698TIP3   OH277508   6.499   0.377   4.558  0.7120  0.1041 -0.1673
18698TIP3    H177509   6.456   0.291   4.564 -1.0373  0.9629  0.0005
18698TIP3    H277510   6.591   0.357   4.542  0.6428 -1.8472  1.6157
18699TIP3   OH277511   5.817   6.369  15.473  0.0479 -0.3838 -1.0151
18699TIP3    H177512   5.862   6.439  15.426  0.1491  0.8180  0.8437
18699TIP3    H277513   5.882   6.298  15.478  1.2711  0.8243  0.4500
18700TIP3   OH277514   4.450   2.959  14.555 -0.1898 -0.7289  0.0686
18700TIP3    H177515   4.363   2.990  14.577 -0.5258 -1.8551  0.3639
18700TIP3    H277516   4.441   2.864  14.550  1.3467 -0.9726  1.6097
18701TIP3   OH277517   4.029   5.585  15.776 -0.3222  0.3867  0.5974
18701TIP3    H177518   3.980   5.666  15.757 -1.4634 -0.6207 -0.8881
18701TIP3    H277519   4.031   5.581  15.871  1.5391  3.2366  0.7431
18702TIP3   OH277520   0.937   5.434  14.176 -0.1770  0.2778 -0.0398
18702TIP3    H177521   0.997   5.454  14.247 -0.8003 -0.0685  0.5910
18702TIP3    H277522   0.919   5.519  14.135  0.7254  0.3824 -0.2288
18703TIP3   OH277523   2.166   2.957  12.691 -0.3436  0.0077  0.4218
18703TIP3    H177524   2.187   2.865  12.702 -0.1131  0.0892  0.6725
18703TIP3    H277525   2.149   2.967  12.598  2.0013  0.2004 -0.0075
18704TIP3   OH277526   0.668   4.065   2.490  0.0417 -0.3189  0.0017
18704TIP3    H177527   0.612   3.989   2.480 -0.4970  0.1092 -0.2483
18704TIP3    H277528   0.615   4.139   2.460  0.6515  0.1203 -0.0220
18705TIP3   OH277529   1.495   6.442   4.429  0.2003 -0.3682 -0.0582
18705TIP3    H177530   1.408   6.405   4.410  1.5657 -3.3928 -0.7057
18705TIP3    H277531   1.526   6.391   4.504  1.6499  0.3342 -0.1756
18706TIP3   OH277532   1.122   4.761   3.336  0.3998  0.1793 -0.5409
18706TIP3    H177533   1.175   4.822   3.284  1.3626 -0.4066 -0.2544
18706TIP3    H277534   1.166   4.677   3.327  0.2316 -0.0537  0.7497
18707TIP3   OH277535   5.866   4.537  11.707 -0.3071 -0.3053 -0.1950
18707TIP3    H177536   5.839   4.477  11.777 -1.9542  0.8921  0.2165
18707TIP3    H277537   5.952   4.504  11.679  0.2677 -0.9689  2.2221
18708TIP3   OH277538   0.584   3.273  10.812  0.1090  0.1776  0.1371
18708TIP3    H177539   0.512   3.317  10.768 -1.6273 -3.5814 -1.0310
18708TIP3    H277540   0.652   3.263  10.745  1.0743  2.1984  0.7747
18709TIP3   OH277541   4.627   4.207  12.300 -0.7721  0.9943 -0.6016
18709TIP3    H177542   4.608   4.114  12.296  0.0504  0.8575 -1.5040
18709TIP3    H277543   4.634   4.226  12.394  0.4521 -0.1559 -0.4408
18710TIP3   OH277544   5.392   6.705  15.942  0.4039 -0.6122  0.2967
18710TIP3    H177545   5.480   6.738  15.926  0.2363 -0.1181  0.3950
18710TIP3    H277546   5.383   6.630  15.882  0.9866 -0.8309  0.4837
18711TIP3   OH277547   0.921   1.766   0.993  0.1551  0.3358  0.2685
18711TIP3    H177548   0.831   1.739   0.973  0.0189  1.8038 -1.1653
18711TIP3    H277549   0.920   1.789   1.086 -0.9391  0.3463  0.2546
18712TIP3   OH277550   3.566   4.256  14.615  0.1098  0.5319 -0.4014
18712TIP3    H177551   3.567   4.160  14.611  1.0222  0.4966  0.4213
18712TIP3    H277552   3.616   4.283  14.538 -1.1700  0.3854 -1.3021
18713TIP3   OH277553   0.835   2.698   2.903  0.2062  0.3177 -0.2017
18713TIP3    H177554   0.768   2.703   2.835  1.0252  4.1263 -0.8338
18713TIP3    H277555   0.790   2.726   2.983  0.0780 -1.0029  0.2073
18714TIP3   OH277556   6.265   1.289   1.295 -0.7982 -0.1703 -0.0676
18714TIP3    H177557   6.248   1.370   1.344 -1.6901 -0.8297  0.7514
18714TIP3    H277558   6.323   1.315   1.224  0.8317  0.7689  1.5518
18715TIP3   OH277559   0.323   1.580   6.336 -0.3582  0.2089 -0.1069
18715TIP3    H177560   0.291   1.553   6.422 -0.8814 -0.7822 -0.6080
18715TIP3    H277561   0.252   1.560   6.276 -0.3527  1.7416 -0.6584
18716TIP3   OH277562   4.014   0.684   0.956  0.4734  0.1107 -0.2641
18716TIP3    H177563   4.052   0.681   0.868 -0.2084  1.2055 -0.5959
18716TIP3    H277564   4.051   0.763   0.996 -1.1772  1.0046 -0.4749
18717TIP3   OH277565   6.047   5.838  13.924 -0.1380  0.1549 -0.2547
18717TIP3    H177566   5.972   5.897  13.931 -0.8619 -0.7369 -0.4093
18717TIP3    H277567   6.043   5.784  14.002  0.6597  0.4559  0.0017
18718TIP3   OH277568   1.733   6.530   2.712 -0.2128  0.1050  0.2431
18718TIP3    H177569   1.653   6.497   2.753 -1.3201  2.3351 -0.0763
18718TIP3    H277570   1.704   6.572   2.631  1.5279 -0.8744 -0.9336
18719TIP3   OH277571   4.747   0.067  14.554  0.5149  0.2894  0.0143
18719TIP3    H177572   4.839   0.049  14.572  0.1731  1.4157  3.1682
18719TIP3    H277573   4.733   0.157  14.582 -1.6585 -0.0517  0.1826
18720TIP3   OH277574   4.230   6.578   1.738  0.1888  0.3859 -0.0711
18720TIP3    H177575   4.228   6.508   1.674 -0.4336  0.5414 -0.2225
18720TIP3    H277576   4.142   6.579   1.777  0.4786  0.4596  0.5976
18721TIP3   OH277577   0.960   3.749  13.709 -0.0642  0.1089  0.5303
18721TIP3    H177578   0.974   3.823  13.649  1.4835  0.1775  0.9560
18721TIP3    H277579   0.986   3.782  13.795  0.2081 -0.7877  0.7991
18722TIP3   OH277580   4.548   4.289  14.132 -0.1637  0.1074 -0.2440
18722TIP3    H177581   4.604   4.236  14.075 -0.1986  0.2493 -0.4108
18722TIP3    H277582   4.552   4.245  14.217 -0.1442 -0.1268 -0.3654
18723TIP3   OH277583   0.430   1.667   1.924 -0.3979  0.1864  0.5559
18723TIP3    H177584   0.399   1.605   1.858  0.7875  0.2565 -0.0939
18723TIP3    H277585   0.359   1.730   1.934 -0.3557  0.5209 -1.1066
18724TIP3   OH277586   2.298   5.415   2.025  0.2580 -0.4146  0.0268
18724TIP3    H177587   2.248   5.455   2.096  0.5478 -0.4613  0.2618
18724TIP3    H277588   2.237   5.353   1.985  0.0264 -0.2358  0.1024
18725TIP3   OH277589   0.531   5.179   5.685 -0.4992  0.0498 -0.6006
18725TIP3    H177590   0.485   5.133   5.615 -0.4451 -3.0424  1.2984
18725TIP3    H277591   0.586   5.112   5.725  3.7849  3.0305 -1.1415
18726TIP3   OH277592   1.011   3.340   5.122  0.0641 -0.0301 -0.4278
18726TIP3    H177593   0.989   3.432   5.107 -2.5795 -0.5062  0.2490
18726TIP3    H277594   0.961   3.316   5.200 -1.4191 -2.7474 -2.1303
18727TIP3   OH277595   5.286   1.827  16.445  0.0878 -0.1953  0.5132
18727TIP3    H177596   5.209   1.875  16.477  0.1800  0.8175 -0.7408
18727TIP3    H277597   5.351   1.896  16.427  1.2525 -1.0243  1.4092
18728TIP3   OH277598   3.484   6.318  16.184 -0.6055  0.2817  0.1019
18728TIP3    H177599   3.561   6.354  16.228 -0.8648 -1.3863  2.0253
18728TIP3    H277600   3.414   6.322  16.250 -1.1912 -1.6140 -0.3516
18729TIP3   OH277601   0.477   4.605  12.856  0.7811  0.1301 -0.1600
18729TIP3    H177602   0.463   4.623  12.763 -0.6580 -0.2169 -0.0194
18729TIP3    H277603   0.445   4.516  12.869  0.0220  0.5312  0.8591
18730TIP3   OH277604   4.756   5.164  15.308 -0.0897  0.2695  0.1604
18730TIP3    H177605   4.663   5.142  15.300 -0.0451  0.2440 -0.3454
18730TIP3    H277606   4.765   5.200  15.396 -0.8055  1.3683 -0.2096
18731TIP3   OH277607   6.588   4.710  10.569 -0.7377  0.0225 -0.2677
18731TIP3    H177608   6.596   4.783  10.631 -0.7214 -0.4771  0.3209
18731TIP3    H277609   6.653   4.646  10.599 -0.6055 -0.1442 -0.9092
18732TIP3   OH277610   4.028   5.530   3.095 -0.4183 -0.1558 -0.0705
18732TIP3    H177611   4.002   5.478   3.018  0.3114  0.7435 -0.9470
18732TIP3    H277612   4.050   5.465   3.162  0.3997 -0.9888 -1.1218
18733TIP3   OH277613   1.356   4.436   2.247 -0.3158 -0.1401 -0.4706
18733TIP3    H177614   1.311   4.504   2.197 -2.0601 -2.1310 -1.7330
18733TIP3    H277615   1.422   4.402   2.187  2.2074  2.0427  1.0053
18734TIP3   OH277616   5.544   3.256   5.993  0.0907  0.7313  0.2845
18734TIP3    H177617   5.503   3.285   6.074 -0.1440 -2.2412  1.2909
18734TIP3    H277618   5.628   3.219   6.021  1.2530  2.1883 -1.1770
18735TIP3   OH277619   0.943   6.400  10.994 -0.5421  0.1332 -0.4514
18735TIP3    H177620   0.851   6.393  10.971 -0.6741  0.7593 -0.1449
18735TIP3    H277621   0.986   6.331  10.945 -1.1408  0.0012 -0.7943
18736TIP3   OH277622   2.057   2.468  15.437  0.1296 -0.1484  0.0381
18736TIP3    H177623   2.123   2.537  15.425 -0.9744  0.6932 -1.3574
18736TIP3    H277624   2.074   2.406  15.367 -1.0529  0.4863 -0.8337
18737TIP3   OH277625   2.506   0.951  12.273  0.3898 -0.2709 -0.5852
18737TIP3    H177626   2.480   0.914  12.188 -1.3338  0.0052 -0.1808
18737TIP3    H277627   2.437   0.924  12.333  1.3240  0.0094  0.6259
18738TIP3   OH277628   1.818   0.695   6.138  0.9126 -0.1260  0.3718
18738TIP3    H177629   1.774   0.745   6.206 -0.2073 -0.4289 -0.1148
18738TIP3    H277630   1.838   0.611   6.180  1.7170  0.2864  0.8224
18739TIP3   OH277631   6.567   4.111  12.526 -0.5030  0.2610  0.2333
18739TIP3    H177632   6.640   4.134  12.583 -0.9153  0.8231  0.5402
18739TIP3    H277633   6.605   4.052  12.461 -0.4772 -2.2536  2.4339
18740TIP3   OH277634   0.215   3.495  15.814  0.1893  0.5607  0.3679
18740TIP3    H177635   0.243   3.583  15.788  0.0141 -0.0983 -2.1559
18740TIP3    H277636   0.119   3.496  15.803  0.1893  0.0616  0.2985
18741TIP3   OH277637   5.209   2.308   1.565 -0.1291 -0.3633  0.6404
18741TIP3    H177638   5.295   2.340   1.538  0.0384  0.1895  1.7632
18741TIP3    H277639   5.176   2.259   1.490  0.1206  1.4656 -0.7166
18742TIP3   OH277640   6.749   3.225   2.777  0.1965 -0.0715 -0.0766
18742TIP3    H177641   6.702   3.225   2.860 -0.6905 -3.1877 -0.4919
18742TIP3    H277642   6.840   3.210   2.801 -0.4814 -4.1910  0.2639
18743TIP3   OH277643   1.179   0.094  16.256  0.1598  0.2065  0.4432
18743TIP3    H177644   1.142   0.182  16.252  0.6917  0.4434  0.6660
18743TIP3    H277645   1.244   0.092  16.185 -0.6534 -0.3876 -0.3000
18744TIP3   OH277646   3.024   4.686   0.512  0.3188 -0.3604 -0.2287
18744TIP3    H177647   3.028   4.721   0.600  0.4253  0.0870 -0.4123
18744TIP3    H277648   2.932   4.660   0.501 -0.1498  1.4145 -0.6935
18745TIP3   OH277649   2.719   4.405  14.183 -0.2147 -0.8673 -0.4488
18745TIP3    H177650   2.753   4.348  14.252 -0.1011 -1.2466 -0.8188
18745TIP3    H277651   2.750   4.366  14.101  1.2745  0.6341 -0.6385
18746TIP3   OH277652   0.440   2.901   5.577  0.8652 -0.3736  0.0209
18746TIP3    H177653   0.383   2.979   5.571 -0.5624 -1.3967 -0.0564
18746TIP3    H277654   0.498   2.908   5.502 -0.7657 -0.5276 -1.2889
18747TIP3   OH277655   3.484   4.005  17.073 -0.3449  0.1720 -0.0677
18747TIP3    H177656   3.501   3.913  17.052  3.7582  0.6979  0.6062
18747TIP3    H277657   3.465   4.045  16.988 -1.3032 -1.1076 -0.4841
18748TIP3   OH277658   4.923   0.794   4.921 -0.6602  0.8279 -0.1747
18748TIP3    H177659   4.901   0.887   4.929 -0.9672  0.6964  0.5269
18748TIP3    H277660   4.877   0.765   4.842  0.0121  1.4376 -0.7997
18749TIP3   OH277661   2.338   0.605  17.059 -0.2271  0.2888 -0.3220
18749TIP3    H177662   2.254   0.600  17.104 -0.5263  0.7186 -0.8227
18749TIP3    H277663   2.394   0.544  17.106 -0.6773  0.3576  0.3149
18750TIP3   OH277664   3.629   0.868   5.684 -0.0642  0.6120  0.2922
18750TIP3    H177665   3.590   0.839   5.602 -1.2385  0.7433  0.7983
18750TIP3    H277666   3.724   0.860   5.670 -0.2317  1.2298 -1.2895
18751TIP3   OH277667   1.972   5.857   4.570 -0.6906  0.2168  0.1474
18751TIP3    H177668   1.886   5.880   4.535  0.0264  2.5020 -0.1740
18751TIP3    H277669   1.973   5.894   4.658  0.0092  0.2505  0.1268
18752TIP3   OH277670   0.778   0.638   5.400 -0.1849 -0.3877  0.2674
18752TIP3    H177671   0.774   0.596   5.486  0.1120 -0.4255  0.2608
18752TIP3    H277672   0.812   0.570   5.341  1.3012  0.1924  0.4575
18753TIP3   OH277673   0.984   0.532  11.289 -0.1416 -0.2503 -0.6811
18753TIP3    H177674   0.904   0.573  11.255 -0.6557 -1.2124 -0.6352
18753TIP3    H277675   1.037   0.513  11.212  0.0669  0.4170 -0.7100
18754TIP3   OH277676   3.044   3.239   5.742  0.0853  0.0780  0.5195
18754TIP3    H177677   3.136   3.242   5.716  0.3515  0.7025  1.4718
18754TIP3    H277678   2.998   3.293   5.678  0.0288 -2.0511 -1.2834
18755TIP3   OH277679   3.081   2.072   2.580 -1.3386  0.7100 -0.4567
18755TIP3    H177680   3.151   2.109   2.526 -1.6707 -1.3955 -2.3571
18755TIP3    H277681   3.126   2.014   2.641 -1.3507  0.0596 -1.0706
18756TIP3   OH277682   6.494   2.826  13.857 -0.5322  0.3816 -0.3206
18756TIP3    H177683   6.539   2.873  13.928  0.5111 -0.9604 -0.0783
18756TIP3    H277684   6.433   2.767  13.901 -0.9528  0.6098 -0.5918
18757TIP3   OH277685   4.977   4.769  13.138  0.5872  0.4711  0.6235
18757TIP3    H177686   4.969   4.802  13.228 -0.8214  1.1954  0.2423
18757TIP3    H277687   5.007   4.845  13.088  1.0525  0.1521  0.4143
18758TIP3   OH277688   0.758   0.100   1.588 -0.2421 -0.2857 -0.1955
18758TIP3    H177689   0.787   0.179   1.633 -0.7956 -0.3886  0.3480
18758TIP3    H277690   0.797   0.028   1.638  2.0955 -0.3287 -1.9695
18759TIP3   OH277691   4.207   3.016   1.121  0.1259  0.7592 -0.2915
18759TIP3    H177692   4.133   3.063   1.159 -0.9624 -0.4952 -0.8415
18759TIP3    H277693   4.220   3.056   1.035 -1.7898 -0.9316 -1.4052
18760TIP3   OH277694   6.061   2.692  10.656  0.2409 -0.3270  0.3591
18760TIP3    H177695   6.083   2.778  10.620  0.0226  0.1424  1.3102
18760TIP3    H277696   6.124   2.632  10.617 -0.8673 -0.0820 -1.8549
18761TIP3   OH277697   6.145   1.818   0.585 -0.3931  0.0210 -0.2268
18761TIP3    H177698   6.114   1.799   0.673  0.4737 -1.5864 -0.2492
18761TIP3    H277699   6.089   1.764   0.528  0.2428 -0.3418 -0.5111
18762TIP3   OH277700   2.476   1.501   1.331  0.5785 -0.2438 -0.2562
18762TIP3    H177701   2.523   1.420   1.311 -1.4185 -1.5514  0.1807
18762TIP3    H277702   2.395   1.472   1.373 -1.9960  1.7490 -3.5821
18763TIP3   OH277703   5.798   4.136   0.310 -0.2510 -0.0106 -0.2212
18763TIP3    H177704   5.755   4.054   0.337 -1.0534 -0.2347 -2.1317
18763TIP3    H277705   5.875   4.107   0.262  1.2637  0.3939  1.8975
18764TIP3   OH277706   2.740   2.912  14.986 -0.0403 -0.1183 -0.0135
18764TIP3    H177707   2.697   2.994  14.962  1.5372  0.1631 -2.0293
18764TIP3    H277708   2.765   2.923  15.078  0.1386  1.6516 -0.2622
18765TIP3   OH277709   6.546   4.922   5.478  0.4826 -0.3641  0.0546
18765TIP3    H177710   6.475   4.932   5.540  0.0785  0.4691 -0.5412
18765TIP3    H277711   6.622   4.963   5.520 -0.2177  1.7767 -0.7412
18766TIP3   OH277712   5.855   5.011   1.908 -0.8149  0.1801 -0.5336
18766TIP3    H177713   5.765   5.028   1.879 -0.3472 -0.4008 -2.3365
18766TIP3    H277714   5.847   5.002   2.003 -2.4977  1.2077 -0.5527
18767TIP3   OH277715   0.430   3.935  13.620  0.1248  0.6964 -0.6536
18767TIP3    H177716   0.465   3.885  13.693 -2.0099 -0.2763 -0.2563
18767TIP3    H277717   0.415   4.022  13.656  1.5550  0.9685 -0.6779
18768TIP3   OH277718   1.247   0.143  10.897 -0.1785 -0.5627 -0.0653
18768TIP3    H177719   1.238   0.077  10.965 -0.2271 -2.1101 -1.5448
18768TIP3    H277720   1.158   0.174  10.881 -0.3255 -1.1519 -0.3694
18769TIP3   OH277721   6.213   3.856   5.147 -0.0504  0.0569  0.3018
18769TIP3    H177722   6.236   3.932   5.094 -1.4922 -1.3619 -2.4589
18769TIP3    H277723   6.117   3.856   5.149 -0.1261 -2.6541 -1.2486
18770TIP3   OH277724   4.345   4.980  11.459  0.0302  0.2635 -0.2622
18770TIP3    H177725   4.424   4.934  11.433 -0.5382 -0.1664 -1.2875
18770TIP3    H277726   4.374   5.069  11.478  0.7619  0.1035 -0.6044
18771TIP3   OH277727   2.633   0.762  15.138  0.4717 -0.5077 -0.6484
18771TIP3    H177728   2.627   0.822  15.213 -0.7592  2.4849 -3.0132
18771TIP3    H277729   2.723   0.731  15.139  0.1731 -1.5240  2.7525
18772TIP3   OH277730   2.897   5.300   4.300  0.3480  0.6620 -0.4032
18772TIP3    H177731   2.936   5.380   4.335  1.0174  0.2184 -0.1071
18772TIP3    H277732   2.819   5.329   4.254 -0.3970  1.2826  1.2352
18773TIP3   OH277733   5.275   4.223   4.267 -0.2242  0.6603 -0.0842
18773TIP3    H177734   5.343   4.262   4.322  0.2032 -1.9044  1.2941
18773TIP3    H277735   5.319   4.153   4.220 -1.3009  0.7952 -1.3038
18774TIP3   OH277736   1.259   2.814  13.196  0.4265  0.1607  0.1784
18774TIP3    H177737   1.303   2.866  13.263 -1.1269  1.9895 -0.1612
18774TIP3    H277738   1.262   2.869  13.118 -0.6480 -0.5498 -0.3734
18775TIP3   OH277739   3.997   5.115  15.847 -0.2052 -0.2208 -0.5155
18775TIP3    H177740   3.971   5.029  15.815 -2.3753 -0.5961  2.1653
18775TIP3    H277741   4.070   5.098  15.906  0.3462 -0.0664 -1.1522
18776TIP3   OH277742   4.486   4.924   6.123 -0.2298  0.4565 -0.4842
18776TIP3    H177743   4.424   4.918   6.050 -3.1000  0.4375  1.8660
18776TIP3    H277744   4.447   4.987   6.183  2.8397  1.6400  0.3655
18777TIP3   OH277745   0.438   1.431   2.933  0.3219  0.1936 -0.0409
18777TIP3    H177746   0.499   1.361   2.956 -0.2667 -0.1751  0.4122
18777TIP3    H277747   0.418   1.473   3.016  0.2066  0.5231 -0.2349
18778TIP3   OH277748   1.946   2.592   5.649  0.2751 -0.3318 -0.3761
18778TIP3    H177749   1.973   2.502   5.632  1.8674  0.1969 -0.7256
18778TIP3    H277750   1.851   2.592   5.634  0.0288 -2.2458  0.9580
18779TIP3   OH277751   1.276   5.995  15.606 -0.2675  0.0536  0.2532
18779TIP3    H177752   1.221   6.046  15.546 -1.3223 -0.4829  0.7535
18779TIP3    H277753   1.285   6.050  15.684 -0.2048  0.0878  0.2219
18780TIP3   OH277754   6.149   0.161  15.499 -0.4626  0.3225 -0.3882
18780TIP3    H177755   6.207   0.191  15.429 -1.6015  0.7697 -1.1548
18780TIP3    H277756   6.061   0.180  15.467 -0.9729  1.4396  1.5835
18781TIP3   OH277757   0.209   0.566   1.574  0.1940  0.0541  0.5006
18781TIP3    H177758   0.241   0.608   1.494 -0.6745 -0.8797 -0.3527
18781TIP3    H277759   0.232   0.628   1.644  4.4074 -0.8276  0.0408
18782TIP3   OH277760   2.561   5.804   5.451 -0.6709 -0.1258  0.2300
18782TIP3    H177761   2.531   5.887   5.486 -0.3022  0.8714 -1.7634
18782TIP3    H277762   2.646   5.789   5.494 -0.6014  0.6700  0.3676
18783TIP3   OH277763   4.960   3.776   3.077 -0.1994 -0.0318 -0.0343
18783TIP3    H177764   4.977   3.699   3.023 -0.4684  1.0451 -1.7053
18783TIP3    H277765   4.866   3.773   3.093 -0.4318  0.6283 -1.2023
18784TIP3   OH277766   2.920   2.663   0.562 -0.2123 -0.6268  0.4447
18784TIP3    H177767   2.921   2.708   0.478  0.4878  0.0344  0.7957
18784TIP3    H277768   2.937   2.733   0.626  2.6619 -1.6567  0.8623
18785TIP3   OH277769   3.298   5.167   4.024  0.8991 -0.0000  0.5620
18785TIP3    H177770   3.234   5.192   4.091 -0.5722 -0.1191 -0.7535
18785TIP3    H277771   3.329   5.251   3.989  0.7053  0.0469  0.5024
18786TIP3   OH277772   0.383   2.493   0.823 -0.2142 -0.5319 -0.2016
18786TIP3    H177773   0.314   2.520   0.884 -0.1730 -1.8852  0.4659
18786TIP3    H277774   0.341   2.497   0.736 -0.1624  1.7513 -0.1483
18787TIP3   OH277775   4.384   6.623   6.863  0.1199  0.0338 -0.4880
18787TIP3    H177776   4.423   6.710   6.860 -1.5451  0.7529 -1.7206
18787TIP3    H277777   4.307   6.633   6.920 -0.7807 -0.3191 -1.6257
18788TIP3   OH277778   2.016   0.232   5.709  0.5097 -0.4629  0.1434
18788TIP3    H177779   2.065   0.179   5.646  2.3129  1.5148 -0.1877
18788TIP3    H277780   1.957   0.284   5.655  0.3741 -0.4725  0.2839
18789TIP3   OH277781   4.100   2.368   1.747 -0.2307 -0.3101  0.5304
18789TIP3    H177782   4.124   2.371   1.839 -0.3064  0.4278  0.5283
18789TIP3    H277783   4.038   2.296   1.740 -1.4261  0.6376  1.3348
18790TIP3   OH277784   5.578   4.955   0.342  0.1490  0.1825  0.3236
18790TIP3    H177785   5.490   4.924   0.360  0.7336 -2.0501 -0.5166
18790TIP3    H277786   5.605   4.997   0.424 -1.6570  0.8425  0.6019
18791TIP3   OH277787   2.829   6.417  14.869 -0.6541 -0.3634  0.0466
18791TIP3    H177788   2.871   6.416  14.784 -1.8976  2.6527 -0.6575
18791TIP3    H277789   2.735   6.413  14.850 -0.9145 -0.5060  1.2974
18792TIP3   OH277790   3.518   1.696  16.962  0.1860 -0.1025  0.5063
18792TIP3    H177791   3.600   1.739  16.985  1.0948 -2.4749  1.8813
18792TIP3    H277792   3.518   1.695  16.866  0.8785  1.5265  0.4777
18793TIP3   OH277793   6.370   2.397  16.612 -0.0597  0.2070 -0.0189
18793TIP3    H177794   6.320   2.422  16.690  0.2684 -0.8590  0.5402
18793TIP3    H277795   6.304   2.365  16.551 -0.2668  0.5954  0.0021
18794TIP3   OH277796   2.030   0.363  16.139  0.5346  0.8484  0.4978
18794TIP3    H177797   1.950   0.389  16.093  0.4173  0.0089  0.2094
18794TIP3    H277798   2.005   0.359  16.231 -0.2388 -1.1681  0.2170
18795TIP3   OH277799   5.103   1.447   2.957 -0.0520 -0.0140 -0.4751
18795TIP3    H177800   5.164   1.418   2.889  2.1574  0.2172  1.3547
18795TIP3    H277801   5.074   1.366   2.999  2.5285  0.0730  1.5921
18796TIP3   OH277802   4.348   2.093   4.867  0.3524  0.3983 -0.7929
18796TIP3    H177803   4.401   2.019   4.836  1.2060  0.8254 -0.3914
18796TIP3    H277804   4.390   2.118   4.950 -0.0407  1.2169 -0.8435
18797TIP3   OH277805   6.471   0.608  13.314 -0.7906  0.4311 -0.4344
18797TIP3    H177806   6.501   0.696  13.337  1.8289 -0.6440  0.4371
18797TIP3    H277807   6.516   0.551  13.376 -0.4997 -1.7495 -2.5983
18798TIP3   OH277808   1.133   6.620  14.668 -0.0458 -0.4345 -0.0748
18798TIP3    H177809   1.125   6.573  14.585  0.9892 -0.4175 -0.1816
18798TIP3    H277810   1.225   6.615  14.690  0.3067  2.4755 -0.6370
18799TIP3   OH277811   4.949   4.737   2.419 -0.0488  0.3287 -0.3250
18799TIP3    H177812   4.991   4.717   2.502  0.5871  2.1010 -0.1899
18799TIP3    H277813   5.006   4.804   2.379  0.2931 -1.3054 -2.7086
18800TIP3   OH277814   3.424   1.124   3.156 -0.0038  0.2155 -0.0874
18800TIP3    H177815   3.396   1.102   3.068  1.7623  1.4140 -0.9863
18800TIP3    H277816   3.424   1.041   3.204 -0.1901 -0.5682 -1.4369
18801TIP3   OH277817   4.005   0.082  16.842 -0.4741 -0.1845 -0.6781
18801TIP3    H177818   4.006  -0.006  16.880 -0.1063  0.0862 -0.0683
18801TIP3    H277819   4.005   0.067  16.747  1.5368 -0.8281 -0.5944
18802TIP3   OH277820   4.552   2.675   4.855  0.0831 -0.1257 -0.2097
18802TIP3    H177821   4.576   2.583   4.856 -0.0914 -0.2344 -2.5729
18802TIP3    H277822   4.635   2.722   4.865 -0.0365 -0.5214  2.8671
18803TIP3   OH277823   4.855   2.713  13.037  0.4682  0.1404  0.1591
18803TIP3    H177824   4.923   2.678  13.094 -0.1873 -0.3475  0.6374
18803TIP3    H277825   4.845   2.648  12.968 -0.5837 -0.5170  0.9208
18804TIP3   OH277826   0.711   4.772  17.043  0.0185  0.2833 -0.0195
18804TIP3    H177827   0.655   4.831  17.095 -3.3614 -0.4532 -2.6327
18804TIP3    H277828   0.739   4.826  16.969  0.6813 -0.1031 -0.0502
18805TIP3   OH277829   1.761   5.640   0.420  0.1334  0.3127 -0.4970
18805TIP3    H177830   1.701   5.714   0.419 -0.0466  0.2462  2.0045
18805TIP3    H277831   1.710   5.568   0.382 -1.2659  0.3609  1.2069
18806TIP3   OH277832   5.131   5.825   4.644  0.5839  0.2256 -0.2786
18806TIP3    H177833   5.117   5.852   4.735  0.4843 -0.4294 -0.0929
18806TIP3    H277834   5.043   5.829   4.605  0.2578 -1.4232  0.2042
18807TIP3   OH277835   5.611   6.402   3.308 -0.0457  0.4097  0.2295
18807TIP3    H177836   5.687   6.383   3.363  0.9323  1.9941 -0.5505
18807TIP3    H277837   5.546   6.440   3.368  1.5397  3.4756  0.0929
18808TIP3   OH277838   5.921   4.790  15.194  0.4605  0.1566  0.1943
18808TIP3    H177839   5.955   4.756  15.277  1.6819  0.4690 -0.1660
18808TIP3    H277840   5.916   4.713  15.137 -1.8213 -0.3295  1.0034
18809TIP3   OH277841   1.692   1.738   2.569 -0.0345 -0.2162 -0.4423
18809TIP3    H177842   1.597   1.739   2.579 -0.2308 -0.5728 -2.2359
18809TIP3    H277843   1.710   1.797   2.496  1.1244 -0.1771 -0.1395
18810TIP3   OH277844   0.001   5.904  15.483  0.3461 -0.4674  0.6962
18810TIP3    H177845   0.083   5.927  15.441  0.0612 -1.3894 -0.3889
18810TIP3    H277846   0.011   5.934  15.573  1.1887  1.0015  0.1228
18811TIP3   OH277847   6.655   3.792  15.865  0.3121 -0.3164  0.5271
18811TIP3    H177848   6.715   3.821  15.796  1.1833  1.0463  1.8436
18811TIP3    H277849   6.686   3.704  15.888  1.2780  0.0324  0.5895
18812TIP3   OH277850   0.197   0.285  13.511  0.2882  0.8797  0.0629
18812TIP3    H177851   0.194   0.221  13.582 -0.0540  0.5052 -0.2965
18812TIP3    H277852   0.213   0.234  13.432  1.1000  1.3409 -0.0783
18813TIP3   OH277853   4.571   1.597  13.028  0.4549  0.0580  0.0008
18813TIP3    H177854   4.639   1.534  13.003 -0.2168 -0.7588  0.2220
18813TIP3    H277855   4.605   1.639  13.107 -0.0525 -1.5816  1.1117
18814TIP3   OH277856   3.939   0.830   2.496 -0.1832 -0.2376  0.0559
18814TIP3    H177857   3.902   0.761   2.442  0.1124 -1.1568  1.0154
18814TIP3    H277858   4.022   0.852   2.454 -2.0051  2.2862 -2.4844
18815TIP3   OH277859   5.589   1.876   4.183 -0.4508 -0.1988 -0.0294
18815TIP3    H177860   5.579   1.846   4.093 -0.4415  0.6497 -0.3218
18815TIP3    H277861   5.501   1.901   4.209 -0.4116 -0.2133  0.1139
18816TIP3   OH277862   0.215   3.435   0.212 -0.3103  0.5524 -0.0400
18816TIP3    H177863   0.268   3.379   0.269  0.3100  0.5506 -0.6102
18816TIP3    H277864   0.129   3.393   0.210  0.2365 -0.5279 -0.6903
18817TIP3   OH277865   1.139   0.817   0.991 -0.4626 -0.2385  0.0847
18817TIP3    H177866   1.078   0.807   0.918 -0.4746 -2.2812  0.3570
18817TIP3    H277867   1.087   0.803   1.069 -0.3474  1.4852  0.5019
18818TIP3   OH277868   4.198   0.104   3.215  0.5430 -0.1209  0.0195
18818TIP3    H177869   4.205   0.009   3.226 -0.1252 -0.1021  0.6382
18818TIP3    H277870   4.112   0.126   3.251  0.5286  0.6656 -0.4955
18819TIP3   OH277871   5.577   1.130   4.822 -0.5679  0.1256 -0.0342
18819TIP3    H177872   5.666   1.161   4.835 -0.7296  0.1658  1.0497
18819TIP3    H277873   5.524   1.209   4.819 -0.4435  0.1606 -1.8030
18820TIP3   OH277874   3.545   1.221  16.740  0.1797  0.0914  0.1960
18820TIP3    H177875   3.464   1.176  16.714  0.8474 -0.5949 -0.7227
18820TIP3    H277876   3.546   1.300  16.686  0.4942 -0.2824 -0.3598
18821TIP3   OH277877   0.999   5.321   1.510 -0.1937 -0.2475 -0.0322
18821TIP3    H177878   1.033   5.382   1.445 -2.2552  0.5524 -0.4030
18821TIP3    H277879   1.016   5.234   1.473  0.4689  0.1487 -0.6669
18822TIP3   OH277880   0.275   6.232   2.430  0.8092  0.0149  0.1579
18822TIP3    H177881   0.295   6.143   2.401 -2.2103 -0.3066 -1.1871
18822TIP3    H277882   0.280   6.229   2.525  2.3030 -1.1637  0.0554
18823TIP3   OH277883   2.419   2.778  14.384  0.0341  0.2496  0.2301
18823TIP3    H177884   2.355   2.819  14.326  0.6991 -1.9560 -2.1845
18823TIP3    H277885   2.373   2.703  14.421  0.6760 -0.3844 -0.2311
18824TIP3   OH277886   2.850   4.282   4.928  0.5260  0.3376  0.6789
18824TIP3    H177887   2.828   4.340   4.855  2.1669 -0.6173 -0.6094
18824TIP3    H277888   2.772   4.229   4.942 -0.0574  1.0455  0.1214
18825TIP3   OH277889   0.911   4.770   0.205  0.3251 -0.2581  0.5368
18825TIP3    H177890   1.002   4.742   0.202  0.5508  0.1638  2.7211
18825TIP3    H277891   0.915   4.860   0.238 -0.8825 -0.2081  0.5649
18826TIP3   OH277892   0.100   6.208   0.871 -0.7350  0.7427 -0.8910
18826TIP3    H177893   0.084   6.294   0.832 -0.9983  1.1727  0.1680
18826TIP3    H277894   0.016   6.181   0.906 -0.0953  1.1722  1.0133
18827TIP3   OH277895   2.640   1.629   3.867 -0.0758 -0.1111 -0.4003
18827TIP3    H177896   2.574   1.569   3.902 -1.3883  1.2432 -0.5452
18827TIP3    H277897   2.659   1.689   3.939  2.5670 -1.7670  0.3445
18828TIP3   OH277898   5.634   5.627   1.230 -0.5283  0.5416 -0.1469
18828TIP3    H177899   5.723   5.613   1.262 -0.6270 -0.6559 -0.3750
18828TIP3    H277900   5.645   5.680   1.151  0.0184 -0.0622 -0.4792
18829TIP3   OH277901   0.911   5.744  11.640  0.1487  0.2910 -0.1463
18829TIP3    H177902   0.871   5.775  11.722 -0.9990 -0.3135 -0.4611
18829TIP3    H277903   0.942   5.824  11.597  0.9084  0.5938  0.9638
18830TIP3   OH277904   6.073   5.008   5.049  0.1895 -0.0879  0.3210
18830TIP3    H177905   6.038   4.939   4.993  0.3446  0.5789 -0.6221
18830TIP3    H277906   6.167   4.991   5.052 -0.0942 -1.4615  2.2712
18831TIP3   OH277907   1.548   6.156  14.990  0.6204 -0.0524  0.4693
18831TIP3    H177908   1.479   6.222  14.999  0.6410  0.0558 -0.1563
18831TIP3    H277909   1.502   6.073  14.997  0.8507  0.0107  3.2326
18832TIP3   OH277910   0.870   1.288   3.362  0.0216 -0.2695  0.4954
18832TIP3    H177911   0.838   1.270   3.273 -1.0263 -0.3553  0.8796
18832TIP3    H277912   0.862   1.205   3.408 -1.5427  0.2921  1.2889
18833TIP3   OH277913   0.492   5.924   6.551  0.2794  0.7716 -0.4609
18833TIP3    H177914   0.474   6.015   6.530  0.2814  1.0150  0.5686
18833TIP3    H277915   0.503   5.923   6.646 -1.1644 -0.5549 -0.2911
18834TIP3   OH277916   0.641   5.459   0.398  0.1787 -0.2244 -0.4574
18834TIP3    H177917   0.662   5.469   0.305 -1.3992  0.3973 -0.7459
18834TIP3    H277918   0.562   5.405   0.400  0.2121 -0.2540  0.5296
18835TIP3   OH277919   5.142   0.762   0.043  0.1931  0.0317 -0.1017
18835TIP3    H177920   5.168   0.853   0.061 -0.6078  0.2101  0.1489
18835TIP3    H277921   5.198   0.736  -0.031  0.2186  0.8240 -0.3698
18836TIP3   OH277922   1.633   1.715  16.568 -0.4207 -0.4835  0.6905
18836TIP3    H177923   1.683   1.705  16.649 -1.5236  0.3945  1.5143
18836TIP3    H277924   1.641   1.631  16.523  1.6759 -0.4008  0.8459
18837TIP3   OH277925   6.729   5.490   4.047 -0.5082  0.0947 -0.3212
18837TIP3    H177926   6.809   5.527   4.011  0.1349 -0.1637  0.7999
18837TIP3    H277927   6.663   5.557   4.033  0.4922  1.4296  1.0695
18838TIP3   OH277928   3.113   2.416   1.626  0.4385 -0.4654 -0.4226
18838TIP3    H177929   3.140   2.508   1.635 -0.6853 -0.1187 -0.5746
18838TIP3    H277930   3.163   2.384   1.550  0.9998 -0.0459 -0.2321
18839TIP3   OH277931   0.591   0.541  12.712 -0.6964 -0.2751  0.0363
18839TIP3    H177932   0.504   0.549  12.673 -0.5227 -1.9612 -0.7314
18839TIP3    H277933   0.650   0.579  12.647 -0.9498  1.9784  1.0725
18840TIP3   OH277934   5.001   3.126   4.292  0.3423  0.0378  0.7958
18840TIP3    H177935   5.094   3.110   4.280  0.0589 -0.1923 -1.1881
18840TIP3    H277936   4.985   3.208   4.244 -0.3067  0.5652  1.8904
18841TIP3   OH277937   1.221   4.876   6.232 -0.0779  0.1382 -0.4512
18841TIP3    H177938   1.274   4.801   6.204 -1.9264 -0.3169 -2.8324
18841TIP3    H277939   1.275   4.953   6.212  0.4988 -0.4137 -1.0238
18842TIP3   OH277940   2.967   0.899  13.375 -0.0296 -0.6386  0.4681
18842TIP3    H177941   3.010   0.918  13.292  0.1068 -2.2136  0.1644
18842TIP3    H277942   2.886   0.950  13.372  1.1584  1.3072  0.4905
18843TIP3   OH277943   5.022   2.656   0.150 -0.1720 -0.0420  0.3523
18843TIP3    H177944   5.045   2.728   0.091 -2.6678 -0.1468 -0.8059
18843TIP3    H277945   5.105   2.613   0.169  0.7806  0.4003 -2.5957
18844TIP3   OH277946   6.629   0.341   2.949  0.2408  0.6051 -0.2472
18844TIP3    H177947   6.718   0.377   2.954  0.8758 -0.9621  0.2055
18844TIP3    H277948   6.640   0.255   2.908 -1.0712  0.4077 -0.2061
18845TIP3   OH277949   6.298   5.882  16.936  0.3504 -0.0225 -0.2835
18845TIP3    H177950   6.226   5.941  16.913  0.9514  0.4676 -0.9385
18845TIP3    H277951   6.265   5.795  16.916 -0.7625  0.0378  1.2467
18846TIP3   OH277952   0.869   1.988  14.624  0.1945 -0.1104  0.0291
18846TIP3    H177953   0.808   1.970  14.553  0.9923 -2.6398 -0.0478
18846TIP3    H277954   0.815   1.990  14.703 -0.4554  1.1004 -0.4283
18847TIP3   OH277955   3.781   3.841  13.395  0.0443  0.5549  0.5348
18847TIP3    H177956   3.865   3.875  13.365  0.8637 -1.4424  0.4828
18847TIP3    H277957   3.803   3.760  13.442 -1.9715 -1.1047 -1.2561
18848TIP3   OH277958   2.105   0.706  12.787 -0.8693 -0.1542 -0.2731
18848TIP3    H177959   2.200   0.700  12.800 -0.8853  1.3324  0.5807
18848TIP3    H277960   2.092   0.676  12.697  0.2603 -1.5952  0.0182
18849TIP3   OH277961   6.128   6.424  11.592 -0.6281 -0.0707 -0.2210
18849TIP3    H177962   6.057   6.424  11.528 -0.8545 -2.1623 -0.0329
18849TIP3    H277963   6.207   6.409  11.539 -0.5425  0.4384 -0.2395
18850TIP3   OH277964   1.963   3.101  13.258 -0.1454  1.0391  0.1826
18850TIP3    H177965   2.056   3.122  13.256 -0.4732  2.5588 -0.1033
18850TIP3    H277966   1.920   3.180  13.226 -1.4779 -0.0152 -0.7004
18851TIP3   OH277967   3.722   1.153  12.627 -0.2834  0.0227  0.2150
18851TIP3    H177968   3.752   1.231  12.673 -0.4901  0.4814 -0.4260
18851TIP3    H277969   3.801   1.102  12.613  0.1406  1.0283 -1.0907
18852TIP3   OH277970   1.070   3.163  13.055  0.2394  0.3953 -0.3121
18852TIP3    H177971   1.001   3.172  13.122 -1.9217  0.2779 -2.4727
18852TIP3    H277972   1.041   3.089  13.001  1.7428  0.7747 -1.6494
18853TIP3   OH277973   0.309   5.016  15.659 -0.5067  0.3132  0.5664
18853TIP3    H177974   0.347   5.100  15.687 -1.5549  0.9432  0.1311
18853TIP3    H277975   0.355   4.994  15.578  1.4265 -0.7204  1.9264
18854TIP3   OH277976   6.349   0.856  15.520  0.2708 -0.6719 -0.7568
18854TIP3    H177977   6.436   0.863  15.481  0.6428 -1.1771 -0.0306
18854TIP3    H277978   6.364   0.865  15.614 -0.4222 -1.0848 -0.6034
18855TIP3   OH277979   5.601   4.627  16.590  0.0496 -0.1140 -0.4108
18855TIP3    H177980   5.534   4.576  16.544  0.5703  0.0098 -1.3199
18855TIP3    H277981   5.628   4.570  16.663 -0.6816 -0.3687 -0.3334
18856TIP3   OH277982   6.484   6.079   0.452 -0.5229  0.1293 -0.1768
18856TIP3    H177983   6.523   6.137   0.386  2.1722 -1.7649 -0.3176
18856TIP3    H277984   6.474   5.995   0.407  0.6699 -0.9885  1.6091
18857TIP3   OH277985   4.010   0.187   0.825  0.2304 -0.3708  0.9260
18857TIP3    H177986   3.919   0.162   0.809  0.0552  1.5566 -1.3667
18857TIP3    H277987   4.057   0.162   0.746  1.1634  1.0655  0.9973
18858TIP3   OH277988   5.365   6.237  15.499 -0.2051  0.5269 -0.5514
18858TIP3    H177989   5.378   6.226  15.404  0.5554 -0.9532 -0.2939
18858TIP3    H277990   5.453   6.243  15.535 -0.4982  1.2707  0.0609
18859TIP3   OH277991   1.961   0.820   3.149  0.8254  0.1289 -0.0042
18859TIP3    H177992   1.959   0.816   3.053  1.3554 -0.4362  0.0078
18859TIP3    H277993   1.934   0.733   3.177 -0.6931  0.7170  0.3795
18860TIP3   OH277994   4.310   0.323  15.021 -0.1118  0.2584  0.4319
18860TIP3    H177995   4.369   0.315  15.096  0.2563  3.3620  0.5576
18860TIP3    H277996   4.350   0.391  14.967 -1.3482 -0.6262 -1.6588
18861TIP3   OH277997   0.348   1.838  11.060 -0.2775  0.4347  0.3520
18861TIP3    H177998   0.420   1.789  11.020  2.4093  3.9299  0.6984
18861TIP3    H277999   0.345   1.805  11.150 -0.5436 -1.2299 -0.2414
18862TIP3   OH278000   4.397   0.543   4.869  0.1115 -0.2255 -0.2579
18862TIP3    H178001   4.492   0.554   4.860  0.1655 -0.2645  0.2737
18862TIP3    H278002   4.371   0.498   4.789  0.7335 -1.3598  0.1655
18863TIP3   OH278003   6.061   0.593   0.273 -0.1528 -0.0724  0.4174
18863TIP3    H178004   6.020   0.559   0.193  2.0918  0.2155 -0.9167
18863TIP3    H278005   6.033   0.684   0.277 -0.7153 -0.2367  0.2334
18864TIP3   OH278006   3.045   2.803  15.408 -0.4651 -0.3081  0.7690
18864TIP3    H178007   2.959   2.813  15.448 -0.5791 -1.3892  0.8172
18864TIP3    H278008   3.031   2.740  15.337 -0.0887  0.9421 -0.4319
18865TIP3   OH278009   2.392   0.419  12.313  0.1573  0.1880 -0.2731
18865TIP3    H178010   2.390   0.348  12.249 -1.0946  0.0162 -0.0533
18865TIP3    H278011   2.339   0.387  12.386  0.9676  0.6791  0.5427
18866TIP3   OH278012   6.110   1.816   0.044  0.4170  0.1878  0.0291
18866TIP3    H178013   6.170   1.889   0.030 -0.8729  1.3459  0.4128
18866TIP3    H278014   6.093   1.782  -0.044  1.9345 -0.4246 -0.0503
18867TIP3   OH278015   1.229   2.405  16.819  0.1987 -0.1926 -0.1521
18867TIP3    H178016   1.268   2.319  16.834 -0.5805 -0.2774  1.6148
18867TIP3    H278017   1.272   2.438  16.741  2.7976 -0.8502  0.9440
18868TIP3   OH278018   0.004   6.676   3.623 -0.4120 -0.4903  0.7539
18868TIP3    H178019  -0.012   6.673   3.528  0.1231 -2.0715  0.6980
18868TIP3    H278020   0.088   6.631   3.634 -0.8032 -0.9195  2.0451
18869TIP3   OH278021   6.582   2.948   2.959  0.7379  0.1132  0.0766
18869TIP3    H178022   6.651   2.926   3.021 -0.3763 -2.4907  0.4686
18869TIP3    H278023   6.530   3.014   3.004  2.0154  0.9006  0.4245
18870TIP3   OH278024   5.745   3.774   4.306  0.3357  0.2455 -0.0788
18870TIP3    H178025   5.704   3.853   4.272 -0.8252 -0.4078 -0.2301
18870TIP3    H278026   5.731   3.708   4.237  0.0720 -0.4539  0.6294
18871TIP3   OH278027   0.242   5.725   4.812  0.1249  0.7761 -0.9304
18871TIP3    H178028   0.259   5.684   4.897  2.5640  0.4405 -1.5228
18871TIP3    H278029   0.161   5.775   4.825  0.1286  0.2570  1.4086
18872TIP3   OH278030   3.453   1.430   4.459 -0.2180 -0.2517 -0.2212
18872TIP3    H178031   3.538   1.393   4.484 -0.6660 -1.2951 -0.2398
18872TIP3    H278032   3.472   1.484   4.383  0.2457 -1.4154 -0.9469
18873TIP3   OH278033   2.430   0.288  12.879 -0.1596 -0.5131 -0.1656
18873TIP3    H178034   2.508   0.239  12.854  0.0240 -0.7905  0.9106
18873TIP3    H278035   2.447   0.314  12.970 -1.9542 -1.8851  0.5965
18874TIP3   OH278036   3.063   2.945   5.778 -0.2941  0.0022  0.0444
18874TIP3    H178037   3.030   3.035   5.784 -1.0655 -0.2348 -0.5495
18874TIP3    H278038   3.158   2.955   5.767 -0.1540  0.6798  1.7995
18875TIP3   OH278039   4.942   4.235   4.081  0.4729  0.2321 -0.2390
18875TIP3    H178040   4.989   4.152   4.087  0.1066  0.0941  0.9205
18875TIP3    H278041   4.924   4.259   4.172 -1.4212  0.4420 -0.6564
18876TIP3   OH278042   4.919   1.636  12.160 -0.7637 -0.0126 -0.3661
18876TIP3    H178043   4.981   1.709  12.158  1.2023 -1.5534  1.8659
18876TIP3    H278044   4.848   1.667  12.216 -0.4498  0.5643 -0.2850
18877TIP3   OH278045   2.332   6.265   0.061  0.0512  0.1974  0.1293
18877TIP3    H178046   2.379   6.182   0.064 -1.4799 -0.7190 -0.6134
18877TIP3    H278047   2.328   6.294   0.152  0.2896 -0.6964  0.4298
18878TIP3   OH278048   0.456   5.300  14.617  0.3858  1.4134 -0.1801
18878TIP3    H178049   0.413   5.215  14.632  2.0194  0.6218  0.1123
18878TIP3    H278050   0.389   5.365  14.640 -1.2171  0.2240 -1.3390
18879TIP3   OH278051   1.492   2.441  11.877  0.5272 -0.2609  0.3348
18879TIP3    H178052   1.573   2.407  11.914  0.1855  0.0069  1.3680
18879TIP3    H278053   1.426   2.375  11.898  0.6124 -0.8385 -1.1722
18880TIP3   OH278054   4.164   3.800   5.059 -0.0028  0.6495  0.4113
18880TIP3    H178055   4.166   3.884   5.013 -0.9329  0.8395  0.6966
18880TIP3    H278056   4.220   3.742   5.007  0.9922  1.5655  0.4546
18881TIP3   OH278057   4.226   1.462   4.824  0.2378  0.2261 -0.0883
18881TIP3    H178058   4.158   1.474   4.757  1.3845  0.2940 -1.2567
18881TIP3    H278059   4.211   1.533   4.886  0.2523  1.2446 -1.2212
18882TIP3   OH278060   0.090   5.802   5.412 -0.3137  0.4512 -0.1322
18882TIP3    H178061   0.168   5.857   5.408  0.2924 -0.4733 -1.0521
18882TIP3    H278062   0.074   5.776   5.322 -0.2468 -1.3678  0.3621
18883TIP3   OH278063   6.144   6.123  16.999 -0.4948  0.0172  0.0871
18883TIP3    H178064   6.136   6.104  17.093  0.2659  0.3668  0.2258
18883TIP3    H278065   6.205   6.197  16.995 -2.1371  1.3819 -0.5376
18884TIP3   OH278066   0.622   4.603  11.428 -0.3668 -0.1615  0.5733
18884TIP3    H178067   0.675   4.656  11.369  1.5016 -3.1023 -0.5152
18884TIP3    H278068   0.685   4.559  11.485 -1.4037 -4.4335 -1.3476
18885TIP3   OH278069   4.566   4.158  16.395  0.2354  0.0167  0.1946
18885TIP3    H178070   4.653   4.151  16.357  0.1050 -2.3046  0.2707
18885TIP3    H278071   4.527   4.233  16.351  1.3072 -0.5582 -1.8030
18886TIP3   OH278072   4.590   0.591  15.826  0.0960  0.8267 -0.2440
18886TIP3    H178073   4.510   0.540  15.828 -0.7614  2.1641  0.1448
18886TIP3    H278074   4.613   0.596  15.733 -0.5208  0.8281 -0.3973
18887TIP3   OH278075   4.720   5.311  13.413  0.1316  0.1285  0.1080
18887TIP3    H178076   4.779   5.372  13.459  1.0302 -0.7341  0.1048
18887TIP3    H278077   4.704   5.241  13.476 -0.9015  0.3429  0.1037
18888TIP3   OH278078   2.942   3.537   0.318 -0.1915  0.2175 -0.6486
18888TIP3    H178079   2.946   3.570   0.229 -0.2262 -2.3736 -1.6441
18888TIP3    H278080   2.849   3.522   0.335 -0.3868  2.6481  0.5865
18889TIP3   OH278081   4.082   0.043   5.380  0.5313 -0.0441  0.0030
18889TIP3    H178082   4.065   0.025   5.472 -0.0054  0.7306  0.0558
18889TIP3    H278083   3.995   0.041   5.339  0.5797  1.3948 -0.1743
18890TIP3   OH278084   3.937   5.437   4.421 -0.6430 -0.0616  0.0879
18890TIP3    H178085   3.918   5.344   4.432 -1.6603  0.2293  0.8996
18890TIP3    H278086   4.025   5.448   4.458 -0.0375 -0.8987 -1.0673
18891TIP3   OH278087   4.690   5.071   1.903  0.3203 -0.4577 -0.3001
18891TIP3    H178088   4.661   5.015   1.831  0.3987  0.7960 -1.3145
18891TIP3    H278089   4.650   5.032   1.981 -0.3223 -1.4291 -1.1043
18892TIP3   OH278090   4.670   6.033   5.518 -0.4490 -0.6223  0.3078
18892TIP3    H178091   4.744   6.077   5.476  0.4976 -0.3412  2.1899
18892TIP3    H278092   4.679   5.941   5.491 -0.2395 -0.3288 -0.6293
18893TIP3   OH278093   2.616   0.112  12.767  0.2502 -0.5662 -0.0841
18893TIP3    H178094   2.685   0.045  12.757 -0.7764 -1.7398  0.5318
18893TIP3    H278095   2.541   0.075  12.721  0.0732  0.7929 -0.9002
18894TIP3   OH278096   3.370   2.685   0.422 -0.1637  0.1863 -0.3570
18894TIP3    H178097   3.295   2.725   0.378  0.5099  0.5225 -1.2316
18894TIP3    H278098   3.411   2.632   0.354 -0.0508 -0.5995  0.3265
18895TIP3   OH278099   3.758   4.983  13.066  0.4927  0.0684 -0.3418
18895TIP3    H178100   3.680   4.934  13.089  0.7317 -1.1933 -2.1266
18895TIP3    H278101   3.793   5.013  13.150 -0.8765 -0.9095  0.6027
18896TIP3   OH278102   0.416   2.240  13.797 -0.4913 -0.3503  0.1158
18896TIP3    H178103   0.432   2.284  13.880  1.0330 -0.0821 -0.3063
18896TIP3    H278104   0.503   2.226  13.760 -1.1132 -1.2119 -1.0514
18897TIP3   OH278105   0.774   5.127  15.435 -0.0340 -0.1674  0.5172
18897TIP3    H178106   0.761   5.202  15.493  0.3442  1.6801 -1.7341
18897TIP3    H278107   0.716   5.143  15.361  1.5515 -1.0499 -0.9635
18898TIP3   OH278108   2.727   3.136  12.995  0.4354 -0.4355 -0.1264
18898TIP3    H178109   2.655   3.080  13.023  0.5135 -1.0073 -1.0325
18898TIP3    H278110   2.804   3.103  13.042 -0.0683  0.8384  1.6479
18899TIP3   OH278111   2.400   1.940  14.024 -0.2519  1.0659 -0.0261
18899TIP3    H178112   2.456   1.961  14.099  1.4287 -1.5067 -0.4655
18899TIP3    H278113   2.459   1.944  13.948 -0.6261 -1.4816 -0.5172
18900TIP3   OH278114   0.287   6.138  11.940  0.1213  0.2143  0.4327
18900TIP3    H178115   0.329   6.145  12.026 -0.8524 -0.0228  0.9361
18900TIP3    H278116   0.214   6.199  11.944 -1.0789 -1.2003  0.4759
18901TIP3   OH278117   6.732   2.869  11.933 -0.1045 -0.0034 -0.5829
18901TIP3    H178118   6.675   2.915  11.994 -0.7078 -0.7357 -0.5839
18901TIP3    H278119   6.681   2.792  11.906  1.5765 -1.6433  0.7857
18902TIP3   OH278120   4.790   1.938   5.926  0.2183  0.1491  0.0110
18902TIP3    H178121   4.744   2.019   5.947  0.9841  1.0007 -1.4895
18902TIP3    H278122   4.867   1.939   5.984 -0.4402 -0.1479  0.8990
18903TIP3   OH278123   4.461   0.180  16.733  0.5931  0.2389  0.7809
18903TIP3    H178124   4.507   0.263  16.728  0.6001  0.1702 -0.5225
18903TIP3    H278125   4.373   0.198  16.700 -0.3100  0.3549  3.2128
18904TIP3   OH278126   2.826   0.482  16.953 -0.2490  0.3693 -0.7074
18904TIP3    H178127   2.780   0.424  16.892  0.2103 -1.5559  0.7273
18904TIP3    H278128   2.896   0.521  16.901  1.0154 -2.3342 -1.1078
18905TIP3   OH278129   3.130   0.340   4.393 -0.3093  0.7048 -0.8873
18905TIP3    H178130   3.125   0.430   4.361  0.8293  0.6270 -1.3239
18905TIP3    H278131   3.097   0.287   4.320  0.3581  0.6705 -1.1655
18906TIP3   OH278132   0.335   5.131  16.532  0.0610 -0.0793 -0.0083
18906TIP3    H178133   0.394   5.056  16.521  0.1517  0.0611 -0.4929
18906TIP3    H278134   0.247   5.094  16.524  0.0977 -0.1911  0.1069
18907TIP3   OH278135   4.545   5.181  11.420 -0.1504 -0.4111  0.1258
18907TIP3    H178136   4.522   5.195  11.328 -0.4262  0.3322  0.2985
18907TIP3    H278137   4.630   5.138  11.417 -0.0529 -0.1919 -0.4817
18908TIP3   OH278138   4.393   5.122   3.618 -0.6836  0.0471 -0.3522
18908TIP3    H178139   4.465   5.134   3.680  1.7008  0.9056 -3.2132
18908TIP3    H278140   4.351   5.041   3.646  3.0213 -1.9108 -0.2083
18909TIP3   OH278141   3.547   1.002   2.854  0.2986  0.0242 -0.2688
18909TIP3    H178142   3.629   0.957   2.874  0.2176 -0.2963 -0.6535
18909TIP3    H278143   3.516   0.960   2.774  0.1616  0.6871 -0.5583
18910TIP3   OH278144   5.693   5.434   5.177  0.0937 -0.2834 -0.1649
18910TIP3    H178145   5.759   5.373   5.210  1.7855  1.5222 -0.0860
18910TIP3    H278146   5.690   5.503   5.244  1.4203  1.9348 -2.3082
18911TIP3   OH278147   3.085   1.273  14.623 -0.3744  0.2393 -0.7720
18911TIP3    H178148   3.116   1.269  14.533  0.9086 -1.8244 -0.2771
18911TIP3    H278149   3.005   1.220  14.624 -0.7517  0.7928 -0.8063
18912TIP3   OH278150   0.825   0.464  15.647  0.0668 -0.1210  0.0478
18912TIP3    H178151   0.874   0.543  15.626  0.7976 -0.3742  0.7806
18912TIP3    H278152   0.809   0.470  15.741  0.0811 -0.8185  0.0954
18913TIP3   OH278153   0.160   6.682  15.934  0.1835 -0.3158 -0.6260
18913TIP3    H178154   0.204   6.712  16.014 -4.5954  0.4242  1.9262
18913TIP3    H278155   0.161   6.586  15.942 -1.4626 -0.2212  1.0954
18914TIP3   OH278156   4.156   3.567   3.142 -0.1077  0.5072 -0.5922
18914TIP3    H178157   4.104   3.592   3.066 -0.1893  1.3121 -0.2766
18914TIP3    H278158   4.216   3.641   3.155  1.6343 -0.7270 -1.4082
18915TIP3   OH278159   6.128   1.436  15.598  0.4283  0.0112  0.5982
18915TIP3    H178160   6.115   1.524  15.633 -0.0322  0.2117 -0.0721
18915TIP3    H278161   6.068   1.430  15.524 -0.6239 -1.4075  1.5472
18916TIP3   OH278162   0.191   4.250   4.434 -0.0032 -0.0854  0.0739
18916TIP3    H178163   0.178   4.192   4.359 -1.0847  1.5719 -1.0419
18916TIP3    H278164   0.121   4.314   4.427  0.6908  0.8778  1.7627
18917TIP3   OH278165   1.864   3.882   2.279 -0.1605 -0.2329 -0.3694
18917TIP3    H178166   1.773   3.888   2.307  0.3702  1.3334  1.0998
18917TIP3    H278167   1.910   3.948   2.331  1.8533 -1.1161 -0.9636
18918TIP3   OH278168   2.727   6.160   3.463 -0.1571  0.1384 -0.1470
18918TIP3    H178169   2.724   6.158   3.558  2.7708  0.6462  0.0017
18918TIP3    H278170   2.746   6.069   3.437  0.1587  0.2114 -0.1758
18919TIP3   OH278171   1.320   6.231  12.692 -0.1362 -0.2262 -0.1367
18919TIP3    H178172   1.286   6.321  12.698 -1.8754 -0.7071 -2.3637
18919TIP3    H278173   1.364   6.227  12.607  0.9118 -1.1880  0.4322
18920TIP3   OH278174   2.042   1.633   3.173  0.2872 -0.7212 -0.1045
18920TIP3    H178175   1.947   1.633   3.165  0.1345 -3.9541  1.0386
18920TIP3    H278176   2.058   1.632   3.268  1.4888  0.5238 -0.2777
18921TIP3   OH278177   4.080   0.611  12.990  0.3294  0.0210  0.2893
18921TIP3    H178178   4.108   0.675  13.057  1.0564 -0.4681  0.4645
18921TIP3    H278179   4.131   0.533  13.010 -1.6672 -1.1325  1.0142
18922TIP3   OH278180   1.648   6.055  13.162 -0.1882  0.4640  0.5148
18922TIP3    H178181   1.739   6.039  13.138 -0.2921  0.6583 -0.0069
18922TIP3    H278182   1.641   6.151  13.166 -0.3659  0.4489  0.5749
18923TIP3   OH278183   5.063   2.149  12.255  0.1629  0.2165  0.1419
18923TIP3    H178184   4.970   2.164  12.271  0.1186 -0.1620  0.2507
18923TIP3    H278185   5.099   2.236  12.238 -0.2418  0.3434 -0.0731
18924TIP3   OH278186   2.516   5.236  13.997  0.4862  0.0420 -0.7630
18924TIP3    H178187   2.457   5.272  13.931  0.4536  1.2478 -0.0999
18924TIP3    H278188   2.481   5.268  14.080  1.2585 -0.4050 -0.2631
18925TIP3   OH278189   6.460   3.047  11.960 -0.1635  0.7154  0.3794
18925TIP3    H178190   6.506   3.119  11.917  0.4025  0.6950  0.9360
18925TIP3    H278191   6.462   3.070  12.053  1.0482 -0.5678  0.7017
18926TIP3   OH278192   5.087   0.101  16.917  0.1260  0.1259  0.0653
18926TIP3    H178193   4.995   0.101  16.890  0.5990  1.1119 -1.5916
18926TIP3    H278194   5.093   0.172  16.981 -0.2403  0.1144  0.1148
18927TIP3   OH278195   0.599   0.222   6.042  0.0154  0.3455 -0.9395
18927TIP3    H178196   0.576   0.286   6.109  1.2509  0.5472 -0.6812
18927TIP3    H278197   0.693   0.206   6.057 -0.7713 -3.3831  0.5998
18928TIP3   OH278198   5.100   2.000   0.184 -0.5602 -0.5015  0.2436
18928TIP3    H178199   5.028   1.979   0.243 -0.7019 -1.8309 -0.3880
18928TIP3    H278200   5.125   1.916   0.145 -0.0488  0.2555 -1.0950
18929TIP3   OH278201   5.279   6.576  15.721  0.4483  0.0680 -0.1534
18929TIP3    H178202   5.250   6.495  15.764  1.6643 -0.7059 -0.7569
18929TIP3    H278203   5.321   6.546  15.640  1.1613  1.2864 -0.2413
18930TIP3   OH278204   1.155   0.344  16.583  0.1536 -0.5507  0.6064
18930TIP3    H178205   1.132   0.317  16.494  0.3513  1.1370  0.0236
18930TIP3    H278206   1.227   0.286  16.607 -0.5839 -1.7176  0.0701
18931TIP3   OH278207   6.025   4.205  10.361  0.4895  0.4719 -0.3306
18931TIP3    H178208   6.106   4.153  10.362 -0.5169 -1.1484 -1.2743
18931TIP3    H278209   5.985   4.185  10.276 -1.9271 -0.3161  0.9644
18932TIP3   OH278210   3.629   1.912   0.710 -0.3645  0.2974  0.4746
18932TIP3    H178211   3.589   1.829   0.736  0.8612 -0.3724  0.2565
18932TIP3    H278212   3.597   1.927   0.621 -0.1091 -0.2410  0.2903
18933TIP3   OH278213   0.625   5.996   2.997 -0.0650 -0.0039  0.2813
18933TIP3    H178214   0.564   6.045   2.941  1.9969  0.3441 -1.7194
18933TIP3    H278215   0.598   5.905   2.988  0.1843  0.0655 -1.1910
18934TIP3   OH278216   3.562   5.795   2.384  0.3446 -0.5820  0.3289
18934TIP3    H178217   3.624   5.853   2.429 -1.9138  1.3513  1.0710
18934TIP3    H278218   3.550   5.835   2.298  0.6408 -1.3395 -0.0666
18935TIP3   OH278219   4.267   3.239  11.389 -0.0124 -0.1086 -0.8074
18935TIP3    H178220   4.203   3.196  11.332 -1.1649 -1.6405  1.5552
18935TIP3    H278221   4.234   3.224  11.477  2.6016  0.7747  0.3659
18936TIP3   OH278222   4.486   0.953  15.174  0.8235 -0.5968 -0.4399
18936TIP3    H178223   4.414   0.899  15.141  0.0810 -0.4029  0.8284
18936TIP3    H278224   4.565   0.907  15.145  0.2124 -2.5396  0.8462
18937TIP3   OH278225   2.995   1.663   3.877 -0.5736  0.0545  0.3103
18937TIP3    H178226   3.003   1.742   3.930  0.5127 -0.3765  0.8068
18937TIP3    H278227   2.926   1.612   3.919 -1.4668  0.8549 -0.1678
18938TIP3   OH278228   0.407   6.696   5.141  0.3167 -0.0568  0.5686
18938TIP3    H178229   0.467   6.622   5.145  0.8927  0.3494 -0.3963
18938TIP3    H278230   0.321   6.658   5.159  0.9598 -0.4700  3.0720
18939TIP3   OH278231   4.130   3.329  11.023  0.3541  0.5182 -0.6650
18939TIP3    H178232   4.061   3.393  11.007 -0.4852 -0.3022 -0.3176
18939TIP3    H278233   4.106   3.253  10.970 -0.2204 -0.6268  1.2121
18940TIP3   OH278234   1.574   5.387   3.503 -0.5044 -0.2795  0.4328
18940TIP3    H178235   1.619   5.342   3.574 -1.0234 -0.0594  0.9003
18940TIP3    H278236   1.590   5.332   3.426  1.6670  0.4581  0.3116
18941TIP3   OH278237   2.928   4.281   3.094  0.2565  0.1262 -0.3220
18941TIP3    H178238   2.874   4.347   3.137 -0.8273 -0.8980 -0.0828
18941TIP3    H278239   2.920   4.204   3.150  0.4300 -0.6063 -1.2999
18942TIP3   OH278240   0.714   2.064   0.683  0.0958  0.2453 -0.6487
18942TIP3    H178241   0.684   2.028   0.600  1.2706 -0.5649 -0.7351
18942TIP3    H278242   0.685   2.001   0.749  2.7383 -1.2611 -0.8655
18943TIP3   OH278243   6.408   1.005  14.965  0.2343  0.4090  0.3249
18943TIP3    H178244   6.393   0.922  14.920 -0.6798  0.6735  0.1407
18943TIP3    H278245   6.324   1.026  15.006  0.9041  0.4102  1.7648
18944TIP3   OH278246   1.594   2.771   0.869  0.2004  0.3621 -0.1437
18944TIP3    H178247   1.566   2.763   0.778 -2.2573  1.4072  0.4848
18944TIP3    H278248   1.687   2.793   0.864 -0.2828  1.9973 -2.4148
18945TIP3   OH278249   0.938   0.935  16.154 -0.5999  0.2077 -0.1810
18945TIP3    H178250   0.929   0.950  16.248 -0.9194  0.8710 -0.3167
18945TIP3    H278251   1.028   0.903  16.144 -0.1912  1.2309  0.2041
18946TIP3   OH278252   5.405   4.780   2.502  0.2218  0.0758  0.0734
18946TIP3    H178253   5.415   4.789   2.597  1.0737 -1.8927  0.1842
18946TIP3    H278254   5.404   4.871   2.470  0.4705  0.7469  1.8960
18947TIP3   OH278255   5.914   0.965   4.494  0.3815  0.2646  0.5495
18947TIP3    H178256   5.960   1.021   4.556 -2.3857  3.9914 -0.5622
18947TIP3    H278257   5.826   0.956   4.530 -0.2652 -0.3126 -1.0951
18948TIP3   OH278258   4.726   0.932  11.189 -0.4113 -0.0325 -0.1950
18948TIP3    H178259   4.687   0.946  11.103 -2.8763  0.4175  0.9630
18948TIP3    H278260   4.757   1.018  11.217 -1.0583  0.1183  0.0534
18949TIP3   OH278261   1.902   1.234  14.577  0.0767 -0.0423  0.0936
18949TIP3    H178262   1.982   1.281  14.553  0.6266 -1.0758 -0.1202
18949TIP3    H278263   1.840   1.257  14.507  0.4417  0.1023 -0.1873
18950TIP3   OH278264   1.963   2.297   0.201  0.2236  1.0983 -0.3250
18950TIP3    H178265   1.975   2.361   0.272  0.3336 -0.5345  1.1820
18950TIP3    H278266   1.876   2.261   0.217  1.2555 -1.1282  0.5769
18951TIP3   OH278267   1.810   3.979  12.126 -0.1532 -0.2255 -0.0451
18951TIP3    H178268   1.797   4.040  12.054  0.0602 -1.5604 -1.2487
18951TIP3    H278269   1.905   3.976  12.139 -0.1996  0.1019  0.3633
18952TIP3   OH278270   2.068   5.924  11.327  0.0580  0.0366  0.2809
18952TIP3    H178271   1.995   5.973  11.290  0.6538  0.6346 -0.1216
18952TIP3    H278272   2.136   5.990  11.342  0.1984 -0.3621  1.4790
18953TIP3   OH278273   1.327   5.926   1.588  0.3610  0.1330 -0.0612
18953TIP3    H178274   1.376   5.868   1.647  0.3668 -0.4914 -0.6717
18953TIP3    H278275   1.375   5.920   1.505 -0.5925 -0.2745 -0.5864
18954TIP3   OH278276   6.105   5.679  16.865 -0.3203 -0.0899  0.2999
18954TIP3    H178277   6.089   5.618  16.793 -1.6385 -0.4317  0.8636
18954TIP3    H278278   6.124   5.622  16.940 -3.3627  0.0881  1.2695
18955TIP3   OH278279   5.141   4.997  16.734 -0.5678  0.1102 -0.2837
18955TIP3    H178280   5.204   5.009  16.663 -0.8595 -1.9162 -0.9309
18955TIP3    H278281   5.113   5.085  16.757  1.5822  0.9506 -0.8162
18956TIP3   OH278282   1.833   4.459   3.523  0.2889 -0.1942 -0.0236
18956TIP3    H178283   1.819   4.516   3.598 -0.5011 -0.1831 -0.1735
18956TIP3    H278284   1.849   4.519   3.450 -0.2433 -0.1656 -0.1208
18957TIP3   OH278285   0.532   0.980  13.090 -0.2351 -0.2905  0.0549
18957TIP3    H178286   0.615   0.966  13.137  0.9911  0.6886 -1.7391
18957TIP3    H278287   0.527   0.907  13.028 -1.1740 -0.8341  0.7573
18958TIP3   OH278288   3.649   0.932  13.334 -0.0428 -0.5262 -0.2441
18958TIP3    H178289   3.639   0.931  13.429 -0.0697 -0.0041 -0.2388
18958TIP3    H278290   3.703   0.855  13.315  0.7345 -0.1337  0.2879
18959TIP3   OH278291   5.213   4.274   2.263 -0.3364  0.4417 -0.4159
18959TIP3    H178292   5.187   4.234   2.346  0.6349  0.4568 -0.1001
18959TIP3    H278293   5.280   4.337   2.287 -1.1640  1.5620 -1.0418
18960TIP3   OH278294   6.296   4.107  15.496 -0.3016  0.3378  0.6179
18960TIP3    H178295   6.369   4.089  15.556 -0.9948 -0.3072  1.2807
18960TIP3    H278296   6.318   4.192  15.458 -0.0629  0.9773  2.1309
18961TIP3   OH278297   3.639   6.420  14.476 -0.2598  0.6284 -0.5290
18961TIP3    H178298   3.584   6.486  14.518  0.0506  1.4246 -1.3757
18961TIP3    H278299   3.578   6.367  14.425 -0.2660  1.4080 -1.3316
18962TIP3   OH278300   2.818   5.115   0.793 -0.1165  0.3455 -0.6598
18962TIP3    H178301   2.831   5.171   0.870 -0.8130 -0.8171  0.3169
18962TIP3    H278302   2.883   5.046   0.802  0.5570  0.8359 -1.7192
18963TIP3   OH278303   2.469   2.201   5.830 -0.0784 -0.3896 -0.3735
18963TIP3    H178304   2.508   2.116   5.811 -0.7518 -0.4684 -1.4912
18963TIP3    H278305   2.419   2.188   5.910  0.0190 -0.9860 -0.4105
18964TIP3   OH278306   1.405   2.633   3.780 -0.5888 -0.2322 -0.6179
18964TIP3    H178307   1.359   2.716   3.768  1.5344  0.8143 -1.6165
18964TIP3    H278308   1.392   2.587   3.697 -2.2886 -1.2137  0.1488
18965TIP3   OH278309   5.731   3.436  12.905 -0.0578 -0.4399 -0.3849
18965TIP3    H178310   5.752   3.504  12.841  0.4921 -0.3054 -0.0670
18965TIP3    H278311   5.646   3.463  12.941 -0.7538 -0.9404 -1.6183
18966TIP3   OH278312   4.082   1.143  14.013 -0.4807  0.6548 -0.1179
18966TIP3    H178313   4.087   1.144  13.918 -2.3735  1.4814 -0.2277
18966TIP3    H278314   4.003   1.194  14.034 -0.7358 -0.4733  1.8318
18967TIP3   OH278315   6.462   0.408  15.634 -0.6038 -0.2610 -0.5213
18967TIP3    H178316   6.472   0.466  15.559 -1.6027  0.2543 -0.2520
18967TIP3    H278317   6.429   0.464  15.704 -0.5601 -0.9335  0.0462
18968TIP3   OH278318   1.697   0.651  12.451 -0.5092 -0.2222  0.3840
18968TIP3    H178319   1.734   0.606  12.527 -1.7379 -1.3895  0.3089
18968TIP3    H278320   1.605   0.664  12.474 -0.5380  0.7733 -0.2910
18969TIP3   OH278321   6.291   1.430   4.116  0.3502 -1.0593 -0.0822
18969TIP3    H178322   6.363   1.412   4.177 -0.6763 -0.4060  1.3563
18969TIP3    H278323   6.245   1.346   4.107  0.3083 -1.0763  0.3033
18970TIP3   OH278324   2.546   6.201  13.773 -0.3243  0.4104 -0.4405
18970TIP3    H178325   2.451   6.200  13.786 -0.1318 -0.8123  1.0484
18970TIP3    H278326   2.563   6.126  13.716 -0.2270  0.4903 -0.5157
18971TIP3   OH278327   2.926   1.551  13.441 -0.6785  0.0241 -0.0770
18971TIP3    H178328   2.919   1.493  13.366  1.0577  1.3638 -1.3022
18971TIP3    H278329   2.917   1.639  13.405  1.5602  0.7596  1.0430
18972TIP3   OH278330   5.497   4.207  14.440 -0.3111 -0.6178  0.0927
18972TIP3    H178331   5.534   4.243  14.520 -1.3010 -1.7453  1.0592
18972TIP3    H278332   5.508   4.113  14.448 -1.0229 -0.7837 -0.7869
18973TIP3   OH278333   4.161   6.632  16.675 -0.0110 -0.0260 -0.1154
18973TIP3    H178334   4.244   6.655  16.718  0.2958 -0.7624 -0.2981
18973TIP3    H278335   4.179   6.547  16.634 -0.3565  0.5805 -1.5390
18974TIP3   OH278336   3.287   5.502  13.546  0.2706 -0.2686 -0.3742
18974TIP3    H178337   3.226   5.515  13.618  1.1486 -2.6586  0.8563
18974TIP3    H278338   3.374   5.507  13.586  0.8144  0.3819 -1.6149
18975TIP3   OH278339   0.042   4.932   0.199 -0.5628 -0.2097 -0.2345
18975TIP3    H178340   0.039   4.903   0.290 -0.0560  0.8295  0.1174
18975TIP3    H278341   0.066   5.024   0.204 -0.6073 -0.1296 -1.4194
18976TIP3   OH278342   1.675   0.767  16.308 -0.6561  0.1850  0.0411
18976TIP3    H178343   1.757   0.800  16.270  0.0170  0.8579  1.9917
18976TIP3    H278344   1.704   0.715  16.383 -2.0429  0.7056  0.9445
18977TIP3   OH278345   6.578   0.420  10.796 -0.1481  0.2858  0.3539
18977TIP3    H178346   6.647   0.356  10.785 -1.9238 -1.7486  0.6875
18977TIP3    H278347   6.550   0.410  10.887 -0.2698  1.7168  0.4920
18978TIP3   OH278348   3.006   0.943   1.818 -0.0567 -0.6440 -0.3714
18978TIP3    H178349   3.087   0.950   1.870  0.5107  0.0426 -1.3338
18978TIP3    H278350   2.961   1.026   1.833 -0.3300 -0.8127 -0.2617
18979TIP3   OH278351   6.224   2.832  12.458 -0.0605  0.4093  0.1574
18979TIP3    H178352   6.260   2.750  12.425  1.4609  0.1297  2.3548
18979TIP3    H278353   6.132   2.814  12.473 -0.1421 -0.3058 -1.1794
18980TIP3   OH278354   1.977   3.402   5.907 -0.2364  0.9247  0.7020
18980TIP3    H178355   2.062   3.387   5.866 -0.8587 -0.3693 -0.1375
18980TIP3    H278356   1.986   3.486   5.951  1.8609  0.2723  1.5914
18981TIP3   OH278357   4.636   3.689  13.027  0.3164  0.3275 -0.0556
18981TIP3    H178358   4.726   3.660  13.015  0.2471  0.0328  0.1250
18981TIP3    H278359   4.618   3.745  12.951  0.7143  0.5488  0.0105
18982TIP3   OH278360   1.268   3.275  13.196  0.1898 -0.0438  0.4829
18982TIP3    H178361   1.222   3.348  13.237 -0.6747 -0.6613  0.6204
18982TIP3    H278362   1.199   3.226  13.149  0.8192 -0.5579  0.0842
18983TIP3   OH278363   4.193   6.528  13.590  0.3355  0.1038  0.2391
18983TIP3    H178364   4.171   6.439  13.617 -2.0472  0.3328 -0.8712
18983TIP3    H278365   4.195   6.578  13.672  0.2570 -0.6572  0.7106
18984TIP3   OH278366   4.768   0.628  16.925 -0.1432 -0.3764 -0.4848
18984TIP3    H178367   4.743   0.717  16.951 -1.4089 -0.6642 -0.7131
18984TIP3    H278368   4.698   0.572  16.958  0.1852 -1.1861 -1.1473
18985TIP3   OH278369   4.894   1.219   2.275  0.0520  0.3788 -0.7085
18985TIP3    H178370   4.909   1.262   2.191 -0.2939  0.0512 -0.9353
18985TIP3    H278371   4.938   1.276   2.338  0.7455  0.3620 -1.1658
18986TIP3   OH278372   1.479   0.934   4.294 -1.0118 -0.3286 -0.5644
18986TIP3    H178373   1.571   0.938   4.269 -0.3014  0.3864  1.9782
18986TIP3    H278374   1.465   0.843   4.320  0.1659  0.4363  3.0499
18987TIP3   OH278375   0.981   1.756   5.733  0.3596 -0.3758  0.3655
18987TIP3    H178376   0.967   1.748   5.827 -0.0296  0.8330  0.4289
18987TIP3    H278377   0.922   1.827   5.707 -0.6285 -1.7197 -1.0513
18988TIP3   OH278378   6.413   3.612  12.994  0.1578 -0.0217  0.0160
18988TIP3    H178379   6.457   3.571  13.069  1.7875  1.7879  0.0994
18988TIP3    H278380   6.367   3.687  13.031 -1.3833 -0.7524 -0.3906
18989TIP3   OH278381   6.570   2.335  12.323 -0.1855 -0.5823 -0.3263
18989TIP3    H178382   6.620   2.335  12.404  0.2769  2.1777 -0.5671
18989TIP3    H278383   6.606   2.262  12.273  1.0063 -0.9640  1.0596
18990TIP3   OH278384   6.366   2.504  13.919 -0.3095  0.1803 -0.3927
18990TIP3    H178385   6.416   2.518  13.999  0.1609  2.8334 -1.0954
18990TIP3    H278386   6.275   2.505  13.948 -0.1132  0.3831  0.2301
18991TIP3   OH278387   5.433   2.576  11.839 -0.0117 -0.2123  0.2346
18991TIP3    H178388   5.423   2.480  11.837 -1.2255 -0.1248  1.4430
18991TIP3    H278389   5.527   2.590  11.852  0.3128 -1.2204 -0.8939
18992TIP3   OH278390   4.248   1.039  14.842 -0.7881  0.2379  0.1210
18992TIP3    H178391   4.332   1.084  14.830 -1.1164  0.5075 -1.1975
18992TIP3    H278392   4.259   0.991  14.924  0.8762 -0.2046 -0.3207
18993TIP3   OH278393   1.421   0.166   5.484  0.0323  0.3254  0.3060
18993TIP3    H178394   1.451   0.204   5.567 -1.1831  3.3940 -0.5940
18993TIP3    H278395   1.335   0.130   5.504  0.4545 -0.4578  0.7546
18994TIP3   OH278396   5.969   2.211  12.801 -0.4119  0.2474  0.6364
18994TIP3    H178397   6.007   2.291  12.766 -0.5310 -0.9813 -2.5209
18994TIP3    H278398   6.044   2.161  12.833 -0.0947  0.7151  0.6257
18995TIP3   OH278399   0.666   4.036  14.044  0.2441 -0.1766  0.2190
18995TIP3    H178400   0.600   4.040  13.975 -0.2352 -0.6713  0.6474
18995TIP3    H278401   0.616   4.035  14.125  0.8276  1.8671  0.6397
18996TIP3   OH278402   3.902   6.517  14.490  0.1731 -0.0280 -0.1429
18996TIP3    H178403   3.811   6.494  14.474 -0.0522  0.9631 -0.2806
18996TIP3    H278404   3.912   6.514  14.585 -0.4678  1.6267 -0.0188
18997TIP3   OH278405   2.463   4.700  14.761  0.0659  0.3387 -0.7878
18997TIP3    H178406   2.371   4.714  14.738 -0.6960 -0.4500  1.6774
18997TIP3    H278407   2.479   4.608  14.741  0.3318  0.4824 -1.2388
18998TIP3   OH278408   3.541   5.545  14.224  0.5190  0.1219  0.2946
18998TIP3    H178409   3.446   5.550  14.231  0.4742  0.2217 -0.3208
18998TIP3    H278410   3.569   5.504  14.305 -0.1361 -0.8369  0.0452
18999TIP3   OH278411   1.714   2.771  13.986  0.1226 -0.5585  0.1369
18999TIP3    H178412   1.724   2.697  14.046  3.1848 -0.0977  0.2493
18999TIP3    H278413   1.683   2.732  13.905  0.4669 -1.8018  0.5869
19000TIP3   OH278414   4.824   6.405   6.151  0.1057 -0.2324  0.1773
19000TIP3    H178415   4.796   6.314   6.144 -1.3664  0.1242  1.0814
19000TIP3    H278416   4.837   6.419   6.245 -2.1845  1.1667  0.3301
19001TIP3   OH278417   6.523   5.752  17.105 -1.0992  0.0319 -0.1027
19001TIP3    H178418   6.511   5.809  17.181  0.2267  0.4315 -0.1809
19001TIP3    H278419   6.569   5.807  17.041  0.7396 -1.2841  0.0495
19002TIP3   OH278420   1.343   1.237  15.567 -0.2037  0.4080  0.3876
19002TIP3    H178421   1.353   1.149  15.603  1.0706  0.2684 -0.2667
19002TIP3    H278422   1.319   1.291  15.642  0.5524 -0.2277  1.0989
19003TIP3   OH278423   3.420   2.349   0.051  0.4650  0.4570 -0.1222
19003TIP3    H178424   3.387   2.275   0.102  0.4867  1.2583  1.0664
19003TIP3    H278425   3.514   2.348   0.066  0.4700  0.7026 -0.1465
19004TIP3   OH278426   2.841   2.889  11.833 -0.0999  0.1491  0.5813
19004TIP3    H178427   2.827   2.813  11.890  2.3007 -0.9472 -0.2508
19004TIP3    H278428   2.777   2.878  11.762 -1.6520  0.4067  1.8977
19005TIP3   OH278429   3.932   1.785   2.931  0.1143  0.2964 -0.0449
19005TIP3    H178430   4.000   1.850   2.948 -0.7404  1.4322 -0.9526
19005TIP3    H278431   3.869   1.796   3.003  0.1975  0.1589  0.0501
19006TIP3   OH278432   4.149   1.406   2.979 -0.2864 -0.5583  0.4857
19006TIP3    H178433   4.080   1.342   2.998 -1.4185  0.4426 -0.2173
19006TIP3    H278434   4.117   1.488   3.017  0.7248 -0.1902  0.5490
19007TIP3   OH278435   3.724   5.252  13.635  0.0637 -0.3844  0.2668
19007TIP3    H178436   3.739   5.336  13.592  0.0642 -0.7586 -0.4788
19007TIP3    H278437   3.812   5.220  13.657  0.1850 -0.9815 -1.0072
19008TIP3   OH278438   0.829   1.419   4.365 -0.9108 -0.1081 -0.4932
19008TIP3    H178439   0.863   1.385   4.282  1.1165 -2.5732  1.2630
19008TIP3    H278440   0.895   1.395   4.430 -2.4735  1.7143  1.8769
19009TIP3   OH278441   0.359   4.032   1.022 -0.4668 -0.3283  0.2216
19009TIP3    H178442   0.437   4.086   1.009 -1.1637  0.2127 -1.9779
19009TIP3    H278443   0.388   3.943   1.004  0.0000 -0.3150  0.9161
19010TIP3   OH278444   4.288   4.086   3.404  0.8032 -0.1314 -0.3538
19010TIP3    H178445   4.227   4.041   3.346 -0.5361 -0.2847  1.1441
19010TIP3    H278446   4.361   4.025   3.414 -0.3016 -1.3311  0.4637
19011TIP3   OH278447   1.529   5.762   2.177 -0.5473  0.2596 -0.7453
19011TIP3    H178448   1.595   5.827   2.154 -0.7449  0.0873 -1.8496
19011TIP3    H278449   1.572   5.677   2.162 -0.7719  0.1449 -0.7460
19012TIP3   OH278450   3.113   5.319  11.088 -0.0529  0.0687  0.1007
19012TIP3    H178451   3.047   5.377  11.049 -1.8557 -0.4471  2.2767
19012TIP3    H278452   3.098   5.234  11.046  1.4014  0.6927 -1.7641
19013TIP3   OH278453   0.622   0.056   4.574  0.9242 -0.0134 -0.0136
19013TIP3    H178454   0.681  -0.019   4.568  2.1284  1.0588 -1.9827
19013TIP3    H278455   0.655   0.107   4.648  1.1684 -0.4868  0.2083
19014TIP3   OH278456   0.646   1.598  15.526  0.3259  0.3194 -0.5682
19014TIP3    H178457   0.659   1.685  15.562  1.5009 -0.1017  0.0486
19014TIP3    H278458   0.730   1.554  15.536  0.6128  0.0712 -3.5281
19015TIP3   OH278459   4.975   2.695   4.587 -0.0815  0.2079  1.0489
19015TIP3    H178460   5.024   2.614   4.581  0.3957  0.5425  0.3977
19015TIP3    H278461   5.014   2.753   4.522 -0.4888  0.9248  1.4228
19016TIP3   OH278462   1.703   6.399  17.189 -0.3412 -0.6855  0.1163
19016TIP3    H178463   1.736   6.472  17.137  0.8890 -1.8394 -0.7452
19016TIP3    H278464   1.669   6.440  17.268  0.2025  0.8362 -0.4162
19017TIP3   OH278465   3.964   1.418   0.451 -0.2970  0.1646  0.0599
19017TIP3    H178466   3.937   1.327   0.437 -0.1541 -0.0293  1.0678
19017TIP3    H278467   4.035   1.430   0.388  0.6492 -0.8673  0.9019
19018TIP3   OH278468   4.925   5.898   0.326  0.2455  0.5856 -0.2650
19018TIP3    H178469   5.001   5.949   0.354  1.0261 -0.8331  0.2189
19018TIP3    H278470   4.962   5.822   0.282 -0.9138  0.0287 -0.2872
19019TIP3   OH278471   3.324   1.889  17.035  0.4289 -0.2223 -0.7211
19019TIP3    H178472   3.375   1.826  16.985 -0.5717 -0.3668 -1.5755
19019TIP3    H278473   3.390   1.947  17.074  1.2815 -0.9381 -1.0697
19020TIP3   OH278474   1.732   3.533   2.393  0.2892 -0.2380  0.1400
19020TIP3    H178475   1.688   3.479   2.459  0.1323  1.6420  1.6423
19020TIP3    H278476   1.662   3.570   2.340  0.4166 -1.7621 -1.1090
19021TIP3   OH278477   3.404   5.455   5.719  0.0075  0.2334 -0.0751
19021TIP3    H178478   3.469   5.464   5.650  0.8182  1.0024  0.7751
19021TIP3    H278479   3.424   5.371   5.760  0.5605  0.5352  0.2769
19022TIP3   OH278480   6.060   4.343  16.667  0.0829 -0.3407  0.0256
19022TIP3    H178481   5.997   4.415  16.660  0.6722  0.1120 -0.6981
19022TIP3    H278482   6.083   4.322  16.577 -0.5566 -1.8650  0.2016
19023TIP3   OH278483   0.833   3.030   6.347  0.0018  0.3993 -0.1669
19023TIP3    H178484   0.744   3.055   6.322 -0.4665 -1.4891 -0.4546
19023TIP3    H278485   0.835   2.935   6.336  1.4182  0.1575  1.8483
19024TIP3   OH278486   1.734   3.620  14.535 -0.0133  0.6380 -0.3412
19024TIP3    H178487   1.826   3.646  14.537  0.0777  0.3089 -0.2926
19024TIP3    H278488   1.719   3.579  14.620  0.0041 -0.0378 -0.6608
19025TIP3   OH278489   5.094   6.743  15.072 -0.3389  0.0281  0.0658
19025TIP3    H178490   5.149   6.716  15.146 -0.7226 -2.0211 -0.3593
19025TIP3    H278491   5.156   6.754  14.999 -0.3780 -1.4918 -0.2091
19026TIP3   OH278492   6.691   4.545   5.359 -0.3344 -0.3844  0.0702
19026TIP3    H178493   6.695   4.451   5.375 -0.1959 -0.0888  1.8748
19026TIP3    H278494   6.602   4.570   5.385 -0.4600 -0.0643 -0.6633
19027TIP3   OH278495   3.003   2.791  14.721 -0.1054  0.0158  0.6760
19027TIP3    H178496   2.912   2.766  14.738  0.1144  0.2829  2.3194
19027TIP3    H278497   3.053   2.712  14.742  0.0292 -0.1659 -0.3383
19028TIP3   OH278498   1.364   6.187   0.425 -0.2516 -0.1410  0.0330
19028TIP3    H178499   1.286   6.231   0.459 -0.8284 -1.6057  0.6576
19028TIP3    H278500   1.329   6.123   0.363  0.3655 -1.4354  0.9944
19029TIP3   OH278501   1.835   4.941  13.578 -0.0067 -0.4045  0.4326
19029TIP3    H178502   1.742   4.954  13.561  0.6178  0.1066 -3.1029
19029TIP3    H278503   1.872   4.918  13.492  3.4449  1.4580  1.3031
19030TIP3   OH278504   1.131   6.436  15.921  1.0421 -0.0090 -0.8539
19030TIP3    H178505   1.100   6.392  16.000 -0.0766 -0.3992 -1.5090
19030TIP3    H278506   1.196   6.499  15.953 -1.5717  2.0110  0.7496
19031TIP3   OH278507   4.510   5.025   1.607  0.3089  0.3291 -0.2632
19031TIP3    H178508   4.590   4.978   1.629 -0.0969 -1.5226 -2.5212
19031TIP3    H278509   4.533   5.077   1.530 -1.0331 -1.4208 -1.8853
19032TIP3   OH278510   5.496   1.592  17.081 -0.2937 -0.1999  0.2388
19032TIP3    H178511   5.402   1.575  17.077 -0.5346  1.4277 -1.3077
19032TIP3    H278512   5.503   1.687  17.092  1.1746 -0.2743 -0.0086
19033TIP3   OH278513   6.190   0.536   2.217  0.0089 -0.7906 -0.2882
19033TIP3    H178514   6.262   0.480   2.248 -2.0709 -3.2490  0.2954
19033TIP3    H278515   6.165   0.587   2.293 -0.6357 -1.9096  0.2592
19034TIP3   OH278516   6.603   6.442  14.330  0.4251  0.1263 -0.0639
19034TIP3    H178517   6.667   6.408  14.268 -0.0304  0.2037 -0.5835
19034TIP3    H278518   6.535   6.376  14.334  1.4278 -0.8398  1.9316
19035TIP3   OH278519   6.697   5.614  11.543  0.0482  0.0611  0.0040
19035TIP3    H178520   6.711   5.655  11.457  0.5254  0.3034  0.1926
19035TIP3    H278521   6.613   5.569  11.535  1.5807 -2.6204 -1.6198
19036TIP3   OH278522   3.798   4.107  11.562 -0.0682  0.4170  0.1258
19036TIP3    H178523   3.719   4.147  11.598  0.8093  2.3072  0.0376
19036TIP3    H278524   3.869   4.148  11.612  0.9760  0.6674 -1.5446
19037TIP3   OH278525   3.828   0.566  12.316 -0.4414 -0.1017 -0.6214
19037TIP3    H178526   3.823   0.645  12.370 -1.5033 -0.1065 -0.7157
19037TIP3    H278527   3.922   0.556  12.298 -0.2904  1.0710 -0.5197
19038TIP3   OH278528   1.123   5.862   3.352 -0.5836 -0.3454  0.2149
19038TIP3    H178529   1.166   5.929   3.405 -0.1177 -0.1615 -0.3959
19038TIP3    H278530   1.029   5.879   3.363 -0.4565  1.1068 -0.8377
19039TIP3   OH278531   0.073   0.870  13.427 -1.3439  0.6821 -0.1360
19039TIP3    H178532  -0.004   0.832  13.469 -1.7713  0.9056 -0.7175
19039TIP3    H278533   0.043   0.954  13.392 -1.7205 -0.6935 -3.2701
19040TIP3   OH278534   1.640   5.527   2.860 -0.1741 -0.0834 -0.6903
19040TIP3    H178535   1.693   5.536   2.940 -0.5302  1.1461 -0.5750
19040TIP3    H278536   1.567   5.587   2.874  0.0629  0.5587 -2.1755
19041TIP3   OH278537   5.718   5.158   4.978  0.2249 -0.5216  0.2180
19041TIP3    H178538   5.628   5.191   4.971  0.3006 -0.4233 -0.3096
19041TIP3    H278539   5.765   5.226   5.025  0.2737 -0.0981 -0.4533
19042TIP3   OH278540   1.808   6.510   4.223 -0.1915  0.7195 -0.1133
19042TIP3    H178541   1.899   6.517   4.194 -0.3043 -1.4579 -1.0323
19042TIP3    H278542   1.792   6.591   4.272  2.2449  1.0940  0.0958
19043TIP3   OH278543   3.508   2.696  16.361 -0.2083  0.5253  0.2404
19043TIP3    H178544   3.457   2.615  16.358  0.2505  0.3011 -1.5511
19043TIP3    H278545   3.518   2.713  16.455 -1.0779 -0.9992  0.6391
19044TIP3   OH278546   0.426   0.204   3.427  0.2283  0.0327  0.3209
19044TIP3    H178547   0.409   0.118   3.391  2.3077 -0.3312  0.1892
19044TIP3    H278548   0.339   0.239   3.447 -0.8162 -0.7517 -2.6647
19045TIP3   OH278549   2.993   0.107   0.906  0.0134  0.6527  0.3866
19045TIP3    H178550   2.900   0.115   0.928  0.5468  2.1789  2.2601
19045TIP3    H278551   3.015   0.017   0.929 -0.4906  0.9392  2.0613
19046TIP3   OH278552   2.227   4.985   1.358  0.0170  0.2398  0.3072
19046TIP3    H178553   2.259   5.032   1.435  0.1098 -0.6368  0.8086
19046TIP3    H278554   2.132   4.998   1.361  0.1266  1.2312 -0.1212
19047TIP3   OH278555   4.360   6.683  10.668 -0.0344 -0.3702 -0.4878
19047TIP3    H178556   4.368   6.599  10.624 -1.2044 -0.8534  0.2134
19047TIP3    H278557   4.417   6.741  10.618  0.1341 -1.3685 -1.4813
19048TIP3   OH278558   6.484   2.905   5.289 -0.0085  0.4296  0.0099
19048TIP3    H178559   6.462   2.884   5.380  2.4611  0.0739  0.5560
19048TIP3    H278560   6.488   3.001   5.286  0.9232  0.4058  0.5265
19049TIP3   OH278561   2.317   6.673   6.429  0.0766 -0.0041 -0.0196
19049TIP3    H178562   2.242   6.707   6.478 -1.1991  0.1167 -1.9793
19049TIP3    H278563   2.329   6.584   6.462  0.4266  0.6914  1.7894
19050TIP3   OH278564   4.212   2.226  16.111  0.0866  0.1670  0.3844
19050TIP3    H178565   4.258   2.163  16.056  1.6382  0.7417  0.9996
19050TIP3    H278566   4.170   2.172  16.179 -0.8570 -0.4265 -0.6392
19051TIP3   OH278567   2.857   6.183   2.392 -0.6492  0.3345  0.1286
19051TIP3    H178568   2.921   6.254   2.393 -1.5714  1.2040 -1.0085
19051TIP3    H278569   2.793   6.208   2.459  0.1493 -0.5089  1.2297
19052TIP3   OH278570   4.658   5.511   3.744  0.4888 -0.3656 -0.5077
19052TIP3    H178571   4.711   5.591   3.738 -1.3596  0.7370 -2.7599
19052TIP3    H278572   4.569   5.539   3.723 -0.4917 -2.7331  0.3060
19053TIP3   OH278573   2.714   5.230   4.893 -1.0871 -0.0078 -0.5321
19053TIP3    H178574   2.732   5.296   4.825 -0.3603 -0.2609 -0.5863
19053TIP3    H278575   2.763   5.261   4.969  0.7568 -1.4596 -1.1067
19054TIP3   OH278576   2.456   4.459   5.869  0.1699 -0.0283  0.3003
19054TIP3    H178577   2.493   4.437   5.954  0.0760  1.0650  0.6370
19054TIP3    H278578   2.445   4.375   5.824  1.3872 -0.5061  0.8785
19055TIP3   OH278579   4.113   6.680   2.592 -0.8496 -0.9871 -0.2653
19055TIP3    H178580   4.160   6.598   2.607  2.9980  0.5332 -3.0715
19055TIP3    H278581   4.096   6.715   2.680  1.2919 -2.7343  0.8843
19056TIP3   OH278582   3.469   4.255  11.349  1.0889 -0.3999 -0.2948
19056TIP3    H178583   3.413   4.201  11.405  1.6138  0.0462  0.6710
19056TIP3    H278584   3.527   4.192  11.305  0.8816 -0.7213 -0.1089
19057TIP3   OH278585   5.636   0.500  12.673  0.0651  0.0097  0.2460
19057TIP3    H178586   5.601   0.550  12.600  1.3423  1.5259  0.6629
19057TIP3    H278587   5.657   0.414  12.635 -0.5251  0.3412 -0.8434
19058TIP3   OH278588   3.490   0.104   0.499 -0.2306 -0.2865  0.3181
19058TIP3    H178589   3.491   0.189   0.544 -0.1902 -0.4567  0.6392
19058TIP3    H278590   3.410   0.107   0.445 -1.4084 -0.9045  1.9950
19059TIP3   OH278591   4.913   0.038   5.603  0.3375 -0.0015  0.4679
19059TIP3    H178592   4.862  -0.043   5.611  1.1030 -0.4184  1.2709
19059TIP3    H278593   4.976   0.033   5.675  0.0981  1.5212  0.8007
19060TIP3   OH278594   4.715   6.587   4.658  0.3230  0.4669 -0.1309
19060TIP3    H178595   4.628   6.611   4.626  0.4498  0.8195 -0.2133
19060TIP3    H278596   4.713   6.491   4.664  0.3226  0.3891 -1.2784
19061TIP3   OH278597   3.310   0.900   5.121  0.1244  0.0876 -0.0205
19061TIP3    H178598   3.405   0.900   5.127  0.0287  0.1805  1.7425
19061TIP3    H278599   3.283   0.822   5.169 -0.7533  0.8704  0.7668
19062TIP3   OH278600   3.821   3.259   0.236  0.0844 -0.0340 -0.0336
19062TIP3    H178601   3.832   3.347   0.199 -0.5909 -0.4520 -1.2803
19062TIP3    H278602   3.726   3.249   0.244  0.1770 -0.4972  0.4891
19063TIP3   OH278603   3.778   4.585  14.479 -0.8712 -0.0463  0.0436
19063TIP3    H178604   3.834   4.661  14.466  0.4829 -0.9529  0.5096
19063TIP3    H278605   3.742   4.566  14.393  1.0132 -0.5840 -0.6511
19064TIP3   OH278606   1.387   2.794  14.584  0.4097 -0.6197  0.1165
19064TIP3    H178607   1.397   2.813  14.491  0.4143 -0.3555  0.1694
19064TIP3    H278608   1.293   2.780  14.596  0.4404 -0.8875  0.0265
19065TIP3   OH278609   4.706   3.952  14.067 -0.4397 -0.3244  0.0491
19065TIP3    H178610   4.737   4.021  14.008 -3.7074 -0.3341 -1.7821
19065TIP3    H278611   4.757   3.964  14.147  2.4620  1.1683 -1.9226
19066TIP3   OH278612   6.365   0.302  16.461 -0.4229  0.1426 -0.2085
19066TIP3    H178613   6.377   0.217  16.502  0.7381 -0.7556 -2.3293
19066TIP3    H278614   6.392   0.365  16.527  1.4053 -1.2647  0.4270
19067TIP3   OH278615   2.028   4.211   3.986 -0.1809  0.2320  0.6762
19067TIP3    H178616   1.989   4.125   3.974 -0.0843  0.2706  0.0539
19067TIP3    H278617   2.060   4.235   3.899  0.2784  0.6594  0.9597
19068TIP3   OH278618   2.318   1.274   3.667  0.0425  0.3076 -0.0350
19068TIP3    H178619   2.380   1.234   3.728  0.8551 -0.5890 -1.4131
19068TIP3    H278620   2.295   1.204   3.606 -0.0213  1.4106 -1.3131
19069TIP3   OH278621   4.161   5.983  15.598 -0.0014  0.0226  0.0943
19069TIP3    H178622   4.155   5.950  15.508 -0.3130  0.8622 -0.1953
19069TIP3    H278623   4.213   6.062  15.592  1.4265 -0.8226  0.9083
19070TIP3   OH278624   0.779   5.170   0.601  0.5369  0.0098  0.3110
19070TIP3    H178625   0.806   5.251   0.643 -0.1648  0.7281 -0.6052
19070TIP3    H278626   0.844   5.156   0.532 -1.2319  1.6031 -1.7278
19071TIP3   OH278627   2.670   0.800  13.049 -0.1675 -0.0323 -0.1825
19071TIP3    H178628   2.652   0.782  13.141 -3.0342 -0.8953 -0.8859
19071TIP3    H278629   2.747   0.747  13.029  1.0381  0.8620  1.9301
19072TIP3   OH278630   1.106   5.149   5.570 -0.3872 -0.6701  0.3744
19072TIP3    H178631   1.024   5.181   5.608 -0.5845  1.4553 -1.7644
19072TIP3    H278632   1.153   5.228   5.545  1.4826 -1.9403 -0.1926
19073TIP3   OH278633   1.838   0.846  10.393  0.2766 -0.2713  0.3805
19073TIP3    H178634   1.818   0.756  10.421 -0.7952 -0.4459 -0.9008
19073TIP3    H278635   1.777   0.900  10.443  2.2244 -0.0325  2.6249
19074TIP3   OH278636   4.695   0.576  16.180  0.1802  0.3315 -0.6285
19074TIP3    H178637   4.780   0.554  16.219  0.4027 -0.5716 -1.5858
19074TIP3    H278638   4.706   0.665  16.149  0.8707  0.1369 -0.9670
19075TIP3   OH278639   6.477   3.554  13.701 -0.7762  0.4572 -0.6051
19075TIP3    H178640   6.562   3.524  13.670 -0.0334  1.0590  0.8106
19075TIP3    H278641   6.444   3.610  13.631  0.2901  0.7334 -0.8911
19076TIP3   OH278642   5.707   1.044  13.315  0.4175  0.4421  0.4687
19076TIP3    H178643   5.621   1.086  13.304 -0.0371 -0.3326  1.0259
19076TIP3    H278644   5.695   0.984  13.389  1.0646 -0.6473 -0.2938
19077TIP3   OH278645   6.234   2.089   0.530  0.3134  0.1201  0.0319
19077TIP3    H178646   6.174   2.016   0.543  1.2537 -0.4323  1.4144
19077TIP3    H278647   6.321   2.052   0.546  0.7893  1.5668  0.9004
19078TIP3   OH278648   0.912   5.084   5.839 -0.6522  0.9118  0.1118
19078TIP3    H178649   0.893   5.171   5.804 -0.9356  1.2472  1.0687
19078TIP3    H278650   0.958   5.102   5.922  2.1734  0.1435 -1.2152
19079TIP3   OH278651   1.510   4.719   2.323  0.1304  0.0589  0.2633
19079TIP3    H178652   1.435   4.735   2.380  0.2886 -0.5930  0.6705
19079TIP3    H278653   1.542   4.633   2.350  0.3821 -0.1318 -0.6233
19080TIP3   OH278654   0.472   0.351  13.584 -0.2301 -0.2007  0.6564
19080TIP3    H178655   0.383   0.337  13.551  0.2654  0.0706 -0.8275
19080TIP3    H278656   0.488   0.277  13.642 -0.4346 -1.7168 -1.1832
19081TIP3   OH278657   5.412   3.013   1.659  0.2779 -0.0241 -0.7370
19081TIP3    H178658   5.389   3.091   1.709  0.9754 -0.0704 -0.3478
19081TIP3    H278659   5.330   2.963   1.653  0.1471  0.0883  0.1541
19082TIP3   OH278660   3.837   0.171  12.607 -0.0743  0.1087  0.1058
19082TIP3    H178661   3.763   0.118  12.637 -0.4249  0.5625  0.0496
19082TIP3    H278662   3.839   0.158  12.512  0.2864 -0.3740  0.1800
19083TIP3   OH278663   3.418   1.171  14.535 -0.2259 -1.0196 -0.2938
19083TIP3    H178664   3.378   1.136  14.614  0.0638 -1.7189 -0.4519
19083TIP3    H278665   3.348   1.168  14.469 -0.1151 -1.5964 -0.3882
19084TIP3   OH278666   3.686   2.412   6.168  0.2281 -0.5107 -0.3684
19084TIP3    H178667   3.679   2.495   6.216 -0.0271 -0.2814 -0.7977
19084TIP3    H278668   3.657   2.346   6.230  1.0559 -0.3480  0.1904
19085TIP3   OH278669   0.308   4.950   0.968  0.6182  0.4529 -0.1706
19085TIP3    H178670   0.249   4.911   0.904  0.2006 -0.6857  0.9058
19085TIP3    H278671   0.259   5.025   1.004  0.9132  1.1868 -1.2716
19086TIP3   OH278672   6.180   3.802   1.460 -0.3235  0.1737 -0.1181
19086TIP3    H178673   6.188   3.715   1.421 -2.4656 -0.8364  1.6214
19086TIP3    H278674   6.246   3.854   1.414 -0.6205 -1.7424 -2.8731
19087TIP3   OH278675   0.080   0.611   4.759  0.8426 -0.7353 -0.0096
19087TIP3    H178676   0.046   0.635   4.673  1.6605 -1.3208 -0.5090
19087TIP3    H278677   0.005   0.577   4.807  0.6394 -1.6115 -0.9457
19088TIP3   OH278678   3.073   2.904   1.157 -0.3647 -0.5777 -0.7314
19088TIP3    H178679   3.022   2.926   1.079  0.2653  2.8843 -0.2500
19088TIP3    H278680   3.163   2.899   1.125 -0.3285 -0.9157 -0.5693
19089TIP3   OH278681   2.601   1.317  15.533 -0.2431  0.2698  0.0649
19089TIP3    H178682   2.540   1.383  15.567  1.9647  2.0613  0.6630
19089TIP3    H278683   2.589   1.242  15.591 -1.4213  0.8209  0.5627
19090TIP3   OH278684   6.345   6.314   1.613  0.4520 -0.0081 -0.4331
19090TIP3    H178685   6.313   6.335   1.526  0.6243  0.6267 -0.3462
19090TIP3    H278686   6.339   6.397   1.662 -0.0197 -0.4519  0.2697
19091TIP3   OH278687   2.962   0.336  15.551  0.8559  0.3031  0.5396
19091TIP3    H178688   3.013   0.255  15.549 -2.1002 -1.7488  2.6833
19091TIP3    H278689   3.008   0.392  15.614  3.0547  0.4510 -1.1399
19092TIP3   OH278690   4.530   4.205  15.379 -0.0302 -0.3103 -0.2390
19092TIP3    H178691   4.561   4.291  15.409  3.2885 -1.4301 -0.2407
19092TIP3    H278692   4.518   4.155  15.460 -0.3938 -0.3443 -0.3148
19093TIP3   OH278693   4.409   5.426  12.103  0.1863 -0.2768 -0.3919
19093TIP3    H178694   4.419   5.467  12.188 -1.2860  0.4309 -0.5528
19093TIP3    H278695   4.498   5.421  12.068  1.1255 -2.7095  2.1445
19094TIP3   OH278696   4.316   5.791  16.368  0.0170 -0.1100  1.0193
19094TIP3    H178697   4.257   5.852  16.323  0.1435 -0.2584  0.6580
19094TIP3    H278698   4.373   5.848  16.420 -0.6705  0.0155  1.6417
19095TIP3   OH278699   0.339   2.346   4.157  0.9185 -0.0391  0.2462
19095TIP3    H178700   0.433   2.335   4.170  0.9710 -2.2543 -1.7344
19095TIP3    H278701   0.300   2.321   4.241  2.0992  1.8974  1.4239
19096TIP3   OH278702   6.128   5.899   2.732  0.2914  0.1906  0.2516
19096TIP3    H178703   6.223   5.908   2.723  0.7767 -2.7503  2.0199
19096TIP3    H278704   6.096   5.891   2.642  1.7613  0.8033 -0.3350
19097TIP3   OH278705   1.471   3.321  11.893  0.1578  0.2211  0.2348
19097TIP3    H178706   1.528   3.319  11.970 -2.2718  1.4736  2.1475
19097TIP3    H278707   1.475   3.412  11.862 -1.1427  0.4479  0.6873
19098TIP3   OH278708   4.168   1.533   5.477  0.0114  0.1584 -0.2786
19098TIP3    H178709   4.246   1.521   5.424  0.6476  2.9627 -0.0481
19098TIP3    H278710   4.184   1.481   5.556  0.2472 -1.8019 -1.5894
19099TIP3   OH278711   1.954   5.512  14.925 -0.6123  0.0284  0.0342
19099TIP3    H178712   1.907   5.429  14.937 -0.1462 -0.0248  1.6683
19099TIP3    H278713   1.911   5.553  14.851 -0.5554 -1.8847 -1.1042
19100TIP3   OH278714   4.582   2.529   6.066  0.3492  0.4280  0.2351
19100TIP3    H178715   4.627   2.474   6.131  2.0985  2.1723  0.5679
19100TIP3    H278716   4.637   2.608   6.060 -1.8530  1.9395 -0.5472
19101TIP3   OH278717   2.356   3.199   4.377  0.3499  0.2486 -0.6235
19101TIP3    H178718   2.421   3.143   4.336  1.8290 -0.0164  1.9787
19101TIP3    H278719   2.280   3.195   4.319  1.3970 -2.2724 -1.8667
19102TIP3   OH278720   1.622   0.867   4.605 -0.2465 -0.0539 -0.0655
19102TIP3    H178721   1.589   0.864   4.695  1.2717  0.1368  0.5223
19102TIP3    H278722   1.710   0.828   4.611  0.2896  0.9541 -1.2632
19103TIP3   OH278723   6.170   4.190   5.505 -0.5853  0.2571  0.1607
19103TIP3    H178724   6.159   4.255   5.574 -1.9421  0.3192 -0.0905
19103TIP3    H278725   6.101   4.210   5.441 -0.6483 -1.0391 -0.2104
19104TIP3   OH278726   1.530   3.758   3.817  0.2377  0.8300  0.0051
19104TIP3    H178727   1.488   3.829   3.768 -1.4109 -0.7638 -0.9711
19104TIP3    H278728   1.470   3.741   3.890 -0.0005 -0.3822 -0.4722
19105TIP3   OH278729   3.551   2.464   5.733 -0.2171 -0.4182  0.0484
19105TIP3    H178730   3.611   2.501   5.798  1.1097 -1.9980 -0.2486
19105TIP3    H278731   3.534   2.375   5.764 -1.7077 -0.2825 -0.3533
19106TIP3   OH278732   1.769   6.746   2.319 -0.1123  0.2144  0.6589
19106TIP3    H178733   1.704   6.703   2.376 -0.4944  1.4366  1.1553
19106TIP3    H278734   1.770   6.692   2.240  0.2589 -1.3892  1.7139
19107TIP3   OH278735   6.426   4.217  15.951  0.2216 -0.4704  0.0043
19107TIP3    H178736   6.499   4.276  15.936  0.0184 -0.1697  0.1894
19107TIP3    H278737   6.466   4.130  15.959  0.4215 -0.5080 -1.2926
19108TIP3   OH278738   1.319   1.294  11.759 -0.1420  0.5945 -0.2524
19108TIP3    H178739   1.262   1.359  11.801 -1.2440 -0.3163 -0.3180
19108TIP3    H278740   1.317   1.219  11.818 -0.4556 -0.1163 -1.1654
19109TIP3   OH278741   4.091   4.146  15.162  0.3517 -0.3199 -0.4214
19109TIP3    H178742   4.016   4.112  15.113  2.0735 -2.5932 -1.5570
19109TIP3    H278743   4.056   4.167  15.248 -1.6354 -1.1574 -0.9981
19110TIP3   OH278744   3.595   5.446  12.150  0.1014  0.4047  1.1386
19110TIP3    H178745   3.664   5.487  12.202 -0.1722  1.3494  0.7712
19110TIP3    H278746   3.587   5.502  12.072 -0.2134 -0.3977  0.5868
19111TIP3   OH278747   2.005   5.633   1.346  0.1375  0.5406  0.4468
19111TIP3    H178748   1.918   5.629   1.386  0.6919 -0.3128  1.6214
19111TIP3    H278749   1.999   5.574   1.270 -0.2222  0.2181  0.7208
19112TIP3   OH278750   5.133   2.189   5.768 -0.8641 -0.4335  0.0447
19112TIP3    H178751   5.160   2.279   5.752  0.3835 -1.1404 -2.0783
19112TIP3    H278752   5.128   2.182   5.863  1.6705  1.1255  0.3420
19113TIP3   OH278753   4.541   5.595  11.648 -0.1385  0.3151 -0.4657
19113TIP3    H178754   4.558   5.615  11.740  0.0937  0.5437 -0.5585
19113TIP3    H278755   4.450   5.622  11.634 -0.2607  0.0229 -0.2339
19114TIP3   OH278756   0.229   2.995   4.221 -0.8091  0.1879 -0.0550
19114TIP3    H178757   0.229   2.945   4.139 -0.1194  0.9020 -0.4990
19114TIP3    H278758   0.137   3.019   4.235 -0.6001  2.3474 -2.0426
19115TIP3   OH278759   3.289   6.095   3.851 -0.6093  0.4121  0.3504
19115TIP3    H178760   3.363   6.113   3.794 -1.4797  1.0365 -0.6114
19115TIP3    H278761   3.296   6.002   3.873  0.9659  0.6794  1.0316
19116TIP3   OH278762   5.257   4.669  15.229  0.3677  0.5311  0.3778
19116TIP3    H178763   5.277   4.723  15.305 -1.8760 -1.2118  2.2724
19116TIP3    H278764   5.163   4.682  15.214 -0.3890 -3.3435  1.3483
19117TIP3   OH278765   4.230   6.739   4.031 -0.0725  0.5867  0.6635
19117TIP3    H178766   4.273   6.763   4.113  1.3183  0.9214 -0.1368
19117TIP3    H278767   4.159   6.803   4.022 -0.2709  0.5073  1.6325
19118TIP3   OH278768   2.859   1.482   3.271  0.0860 -0.6610 -0.1632
19118TIP3    H178769   2.950   1.455   3.284  0.0114 -1.2155 -0.8166
19118TIP3    H278770   2.814   1.403   3.241 -0.4165 -0.1584 -0.7415
19119TIP3   OH278771   2.847   0.508  12.123 -0.2280  0.1785 -0.1623
19119TIP3    H178772   2.898   0.588  12.133  1.0007 -0.5874 -0.1535
19119TIP3    H278773   2.833   0.476  12.212  1.0537 -0.6887 -0.2532
19120TIP3   OH278774   1.631   0.834   1.475 -0.5176 -0.1757  0.0171
19120TIP3    H178775   1.547   0.858   1.436  0.9118 -1.4159 -4.1036
19120TIP3    H278776   1.669   0.772   1.413  3.1574 -0.1579  2.1206
19121TIP3   OH278777   0.148   6.704   0.238 -0.4167  0.5669  0.3239
19121TIP3    H178778   0.151   6.795   0.210  0.5106  0.4781  0.1231
19121TIP3    H278779   0.077   6.666   0.186  0.9002  0.5453 -1.5495
19122TIP3   OH278780   2.654   0.382  11.941 -0.2600 -0.4663  0.2633
19122TIP3    H178781   2.631   0.458  11.887 -0.3205 -0.8670 -0.2744
19122TIP3    H278782   2.715   0.417  12.006 -0.8318  0.1848  0.4511
19123TIP3   OH278783   1.246   2.072  15.367  0.5703 -0.4849 -0.1901
19123TIP3    H178784   1.300   2.015  15.314  4.5535  2.2368  0.7523
19123TIP3    H278785   1.263   2.044  15.457 -0.3334 -0.1705  0.0883
19124TIP3   OH278786   0.847   0.077  15.865  0.1386 -0.4063  0.1768
19124TIP3    H178787   0.777   0.017  15.891  0.7384 -0.5784  1.4554
19124TIP3    H278788   0.807   0.163  15.866  0.0700 -0.4349  1.4701
19125TIP3   OH278789   5.221   1.654  17.070  0.1753  0.3029  0.0353
19125TIP3    H178790   5.176   1.654  16.986 -1.3727  0.8601  0.8450
19125TIP3    H278791   5.170   1.594  17.125  1.4210 -0.3963  0.4603
19126TIP3   OH278792   6.273   5.108  14.721 -0.5751  0.6938 -0.2758
19126TIP3    H178793   6.270   5.118  14.626 -0.8557  1.3364 -0.2003
19126TIP3    H278794   6.345   5.164  14.749 -0.4570  0.4621 -0.1116
19127TIP3   OH278795   6.294   3.666  13.418 -0.8515 -0.1231 -0.0882
19127TIP3    H178796   6.221   3.645  13.476 -0.8348 -0.5841 -0.2397
19127TIP3    H278797   6.358   3.710  13.475 -0.1293 -2.0262  0.5955
19128TIP3   OH278798   2.935   1.264  13.299 -0.1518 -0.0455 -0.3462
19128TIP3    H178799   2.913   1.228  13.385  0.4368 -0.2154 -0.2670
19128TIP3    H278800   2.861   1.239  13.243 -0.0468 -0.8374 -0.1421
19129TIP3   OH278801   6.020   0.733   2.122 -0.3191 -0.4312 -0.0317
19129TIP3    H178802   5.929   0.722   2.149 -0.1858 -1.2082  0.1316
19129TIP3    H278803   6.064   0.655   2.156  0.5244  0.2136  0.3818
19130TIP3   OH278804   0.616   1.707  12.068  0.3260  0.5267 -0.0843
19130TIP3    H178805   0.576   1.711  12.155 -0.8612  0.3150 -0.6069
19130TIP3    H278806   0.544   1.728  12.008  0.8321 -0.5262 -1.0811
19131TIP3   OH278807   0.731   6.603  12.455  0.0195  0.3868 -0.0085
19131TIP3    H178808   0.666   6.535  12.436 -0.0714  0.5939 -0.4621
19131TIP3    H278809   0.753   6.590  12.547 -0.1218 -0.1499 -0.0453
19132TIP3   OH278810   6.563   6.001   5.374  0.3368  0.1787 -0.1848
19132TIP3    H178811   6.551   5.920   5.423 -1.0554  0.0599 -0.6851
19132TIP3    H278812   6.550   6.070   5.440 -1.1352  0.0149 -0.2713
19133TIP3   OH278813   3.492   2.213  15.794 -0.4374  0.0262 -0.0297
19133TIP3    H178814   3.557   2.224  15.724  0.5774  0.4504  0.9543
19133TIP3    H278815   3.466   2.302  15.817 -2.2293 -0.1804 -1.1830
19134TIP3   OH278816   5.229   3.673  12.947  0.2671 -0.2484  0.4357
19134TIP3    H178817   5.241   3.720  13.030  0.2760 -0.7327  0.7134
19134TIP3    H278818   5.273   3.728  12.882  3.1113 -1.4466  1.2499
19135TIP3   OH278819   2.811   5.684   2.027 -0.4554  0.7735  0.1037
19135TIP3    H178820   2.837   5.677   2.119  0.3700  2.3490 -0.0023
19135TIP3    H278821   2.757   5.607   2.012 -0.6603  0.5424  1.9300
19136TIP3   OH278822   4.985   6.165   2.925 -0.1562 -0.3466  0.4343
19136TIP3    H178823   5.067   6.116   2.928 -0.7595 -1.3057  1.9513
19136TIP3    H278824   4.981   6.210   3.009 -0.7068  0.4937 -0.0368
19137TIP3   OH278825   4.796   3.009   2.114 -0.3770  0.0321  0.8539
19137TIP3    H178826   4.727   2.943   2.126 -1.1603  1.0508  2.0548
19137TIP3    H278827   4.754   3.078   2.063  0.1778  0.0330  0.3871
19138TIP3   OH278828   4.742   3.624  14.535  0.0250 -0.1142 -0.2070
19138TIP3    H178829   4.797   3.663  14.467  0.2799 -1.8074 -0.9943
19138TIP3    H278830   4.797   3.556  14.574 -0.3712  0.3745  1.2212
19139TIP3   OH278831   3.340   4.143  10.370  0.0316  0.3127  0.3444
19139TIP3    H178832   3.404   4.103  10.311 -1.1478 -2.2397  0.6963
19139TIP3    H278833   3.369   4.116  10.458  0.3887  2.0095  0.7564
19140TIP3   OH278834   0.430   2.711  16.801 -0.2888 -0.1787  0.7193
19140TIP3    H178835   0.337   2.692  16.788 -0.3969  0.9480 -0.2840
19140TIP3    H278836   0.476   2.635  16.767 -0.7888  0.1384 -0.7039
19141TIP3   OH278837   2.061   3.406  11.874 -0.3326 -0.3535  0.5334
19141TIP3    H178838   2.154   3.383  11.865 -0.4254 -0.4237 -0.3548
19141TIP3    H278839   2.061   3.492  11.914  0.1718  0.2577 -0.7466
19142TIP3   OH278840   0.410   1.373  13.829 -0.3142  0.2697 -0.9581
19142TIP3    H178841   0.449   1.333  13.907  1.4864 -0.0694 -2.0085
19142TIP3    H278842   0.317   1.351  13.835 -0.8226  3.0186  2.7785
19143TIP3   OH278843   6.731   2.517   3.845 -0.0798 -0.2423  0.3818
19143TIP3    H178844   6.762   2.435   3.882  1.0491 -0.2131 -0.4649
19143TIP3    H278845   6.770   2.585   3.900 -2.2215 -0.2648  2.0099
19144TIP3   OH278846   0.026   2.532   2.886  0.5853  0.0872  0.4943
19144TIP3    H178847  -0.060   2.572   2.875 -0.7719 -1.9609  3.1983
19144TIP3    H278848   0.048   2.499   2.799 -0.8254  1.6494 -0.4832
19145TIP3   OH278849   3.769   2.971   3.422  0.1613 -0.7919  0.7689
19145TIP3    H178850   3.731   3.047   3.466 -0.5938 -0.3059 -0.6655
19145TIP3    H278851   3.825   2.930   3.487  1.4546  1.6485  1.2418
19146TIP3   OH278852   5.584   3.671  15.921 -0.3529  0.1891 -0.6170
19146TIP3    H178853   5.496   3.702  15.898 -0.1575  0.2265 -1.3125
19146TIP3    H278854   5.640   3.700  15.849  0.2633  0.2998 -0.0971
19147TIP3   OH278855   1.329   0.009   0.606  0.1355 -0.3669  0.6890
19147TIP3    H178856   1.328  -0.087   0.602  0.0873 -0.3356 -0.0728
19147TIP3    H278857   1.239   0.034   0.586  0.0358 -0.1734  1.3531
19148TIP3   OH278858   3.362   5.434   3.915 -0.0498  0.1651 -0.0567
19148TIP3    H178859   3.318   5.515   3.886 -1.0142 -0.2948  0.0947
19148TIP3    H278860   3.447   5.437   3.872 -1.5581 -0.6486 -3.2851
19149TIP3   OH278861   3.591   0.931   5.034 -0.5170  0.2267 -0.0113
19149TIP3    H178862   3.648   0.878   4.978  0.2766  1.8607 -0.7802
19149TIP3    H278863   3.516   0.952   4.978 -0.7573  0.0550  0.2455
19150TIP3   OH278864   3.601   1.308  13.366  0.0114 -0.1170 -0.2867
19150TIP3    H178865   3.596   1.365  13.289  0.7843  1.9724  1.1587
19150TIP3    H278866   3.668   1.244  13.344 -0.0138  0.2660 -1.4978
19151TIP3   OH278867   2.357   3.098  11.886 -1.0247 -0.3785 -0.5571
19151TIP3    H178868   2.300   3.100  11.809 -3.2931 -2.3430  0.9784
19151TIP3    H278869   2.390   3.187  11.894 -2.2973  0.3159 -2.7066
19152TIP3   OH278870   2.906   2.624  15.736  0.4047  0.5150 -0.4211
19152TIP3    H178871   2.995   2.590  15.747  0.0359 -0.6270 -0.9136
19152TIP3    H278872   2.905   2.704  15.788  1.1623 -0.4623  1.1459
19153TIP3   OH278873   0.623   0.395   3.473 -0.5815  0.0478 -0.7888
19153TIP3    H178874   0.534   0.384   3.440 -0.8844  0.0824  0.0226
19153TIP3    H278875   0.645   0.312   3.514 -0.7532  0.4989  0.2328
19154TIP3   OH278876   3.550   6.074  13.219 -0.0036 -0.1740  0.4949
19154TIP3    H178877   3.627   6.057  13.273  1.5004 -1.8367 -2.0948
19154TIP3    H278878   3.480   6.023  13.260  1.0587 -1.2336  0.9844
19155TIP3   OH278879   3.551   6.448  12.106  0.1945 -0.0196  0.6929
19155TIP3    H178880   3.621   6.438  12.042 -0.3844  0.8393 -0.0881
19155TIP3    H278881   3.574   6.526  12.156 -0.8037  0.9735 -0.3639
19156TIP3   OH278882   1.759   2.821  15.059 -0.0387  0.4661  0.0424
19156TIP3    H178883   1.779   2.853  14.971 -0.0452  2.9606  0.9086
19156TIP3    H278884   1.817   2.871  15.117 -0.4908 -0.6803  1.5168
19157TIP3   OH278885   2.837   0.964  12.900  0.1788  0.1362 -0.0516
19157TIP3    H178886   2.851   0.904  12.827 -0.5622  1.3064 -1.1820
19157TIP3    H278887   2.767   0.924  12.951  1.3118 -1.1351  0.5317
19158TIP3   OH278888   4.284   4.369   1.094 -0.4463 -0.0408 -0.4745
19158TIP3    H178889   4.317   4.386   1.006  1.0963  0.2088  0.1225
19158TIP3    H278890   4.207   4.425   1.104  0.8207  1.7881 -0.7920
19159TIP3   OH278891   3.645   0.168  13.690 -0.0627 -0.7015 -0.1643
19159TIP3    H178892   3.696   0.122  13.623  0.4304  0.1440 -0.3736
19159TIP3    H278893   3.600   0.098  13.737  1.2569 -1.4589  0.0024
19160TIP3   OH278894   5.791   6.769   2.167 -0.0868 -0.4163 -0.5214
19160TIP3    H178895   5.750   6.811   2.092  0.8829 -0.7917 -1.2718
19160TIP3    H278896   5.724   6.709   2.200 -1.6708  2.0326  0.8686
19161TIP3   OH278897   6.328   6.761   3.911  0.1263 -0.1690  0.5400
19161TIP3    H178898   6.405   6.716   3.875 -0.1952 -0.8837  0.7360
19161TIP3    H278899   6.307   6.712   3.991 -0.5835 -0.0368  0.4395
19162TIP3   OH278900   3.755   5.980   5.606 -0.0429  0.0906 -0.4961
19162TIP3    H178901   3.687   5.943   5.549 -1.6345  1.3553  0.5306
19162TIP3    H278902   3.758   6.072   5.581 -1.5055  0.8911  2.1345
19163TIP3   OH278903   2.690   6.667   1.643 -0.0282  0.5751  0.4462
19163TIP3    H178904   2.661   6.630   1.560  1.8887  0.5781 -0.2429
19163TIP3    H278905   2.728   6.593   1.691 -2.0488  0.3612  1.7612
19164TIP3   OH278906   3.852   5.503   1.216 -0.0644 -0.3292  0.5839
19164TIP3    H178907   3.794   5.458   1.278 -0.0175  0.5932  1.3199
19164TIP3    H278908   3.924   5.534   1.271  0.0182  0.4293  0.0495
19165TIP3   OH278909   0.540   4.963   4.270 -0.2724 -0.1620 -0.3160
19165TIP3    H178910   0.515   4.901   4.339 -0.2377  0.1209 -0.0442
19165TIP3    H278911   0.612   5.013   4.309 -1.3362  1.0991  0.0601
19166TIP3   OH278912   4.578   0.550   1.454 -0.3554  0.4553 -0.7807
19166TIP3    H178913   4.626   0.632   1.453  1.0592 -0.3310  0.5988
19166TIP3    H278914   4.499   0.568   1.404 -0.4742  2.8898  0.2292
19167TIP3   OH278915   2.203   4.719   3.604  0.2568 -0.0654  0.2362
19167TIP3    H178916   2.203   4.803   3.558 -1.1673  0.2738  0.8216
19167TIP3    H278917   2.126   4.723   3.660  0.4974 -1.5476  0.6838
19168TIP3   OH278918   5.662   6.298  11.844  0.0301 -0.4387  0.4332
19168TIP3    H178919   5.567   6.289  11.839  0.0736 -0.5191 -0.3104
19168TIP3    H278920   5.684   6.275  11.934 -0.4646 -2.0786  0.1379
19169TIP3   OH278921   4.959   3.259  11.425  0.2306  0.3113  0.6168
19169TIP3    H178922   4.988   3.220  11.343 -1.2553 -0.6032  0.5083
19169TIP3    H278923   4.990   3.350  11.421  1.7729 -0.2209 -0.1101
19170TIP3   OH278924   3.108   5.324   1.529 -0.0982  0.0465  0.5131
19170TIP3    H178925   3.119   5.234   1.501  0.3233  0.0531  0.6509
19170TIP3    H278926   3.037   5.322   1.593 -2.1163  0.2534 -1.6486
19171TIP3   OH278927   3.069   5.480   4.406  0.2891  0.0165  0.0299
19171TIP3    H178928   3.067   5.545   4.476  0.0770 -0.0471  0.0828
19171TIP3    H278929   3.159   5.450   4.403  0.1675 -0.4192  0.6775
19172TIP3   OH278930   3.847   1.142   0.418 -0.5542 -0.3035 -0.5352
19172TIP3    H178931   3.897   1.112   0.493 -0.2244 -0.7602 -0.9356
19172TIP3    H278932   3.756   1.121   0.439 -0.8693  2.3669  1.1063
19173TIP3   OH278933   0.347   4.937   4.999 -0.4570  0.5451 -0.0386
19173TIP3    H178934   0.334   4.865   5.061 -0.2662  1.5561  1.1959
19173TIP3    H278935   0.259   4.964   4.976 -0.5699  1.8259  1.7745
19174TIP3   OH278936   1.028   0.092  13.021 -0.2879 -0.1590 -0.1839
19174TIP3    H178937   0.981   0.136  12.950 -2.2443 -0.1758  1.0692
19174TIP3    H278938   1.115   0.130  13.020 -0.7226  0.8151 -1.7295
19175TIP3   OH278939   2.199   1.201   5.439  0.1324 -0.2040  0.2005
19175TIP3    H178940   2.115   1.208   5.485  0.6085 -1.5240  1.3056
19175TIP3    H278941   2.177   1.219   5.348 -1.0168  1.3552  0.7652
19176TIP3   OH278942   2.002   5.137  12.639  0.3164 -0.2191  0.1849
19176TIP3    H178943   2.009   5.232  12.627  1.1285 -0.4371 -1.1984
19176TIP3    H278944   1.908   5.120  12.637  0.0744  0.7726  2.3178
19177TIP3   OH278945   2.971   3.620   0.696  0.8461 -0.1754 -0.0613
19177TIP3    H178946   2.895   3.669   0.724  0.1542 -2.0140  1.3917
19177TIP3    H278947   3.035   3.631   0.766  1.7671  1.0069 -1.0736
19178TIP3   OH278948   2.889   5.338  11.684  0.4441  0.1300  0.2607
19178TIP3    H178949   2.878   5.433  11.675  0.5698 -0.0362 -2.0245
19178TIP3    H278950   2.983   5.325  11.689  0.3887  0.1902  1.5429
19179TIP3   OH278951   3.641   4.689   2.684  0.0726  0.0618  0.4567
19179TIP3    H178952   3.736   4.693   2.696  0.2597 -3.0824  0.6283
19179TIP3    H278953   3.609   4.649   2.765 -1.4310  1.1710  0.4314
19180TIP3   OH278954   3.155   0.062   3.923 -0.2741  0.2122  0.2518
19180TIP3    H178955   3.180  -0.012   3.979 -0.0543  0.2098  0.1495
19180TIP3    H278956   3.120   0.127   3.984  0.7868  0.5662  0.4880
19181TIP3   OH278957   1.094   2.489  12.308  0.1006  0.4497 -0.6868
19181TIP3    H178958   1.014   2.536  12.284  0.8438  2.6220  0.9276
19181TIP3    H278959   1.151   2.499  12.231  0.1557  2.0269 -0.4648
19182TIP3   OH278960   6.432   0.593   5.059  0.6206 -0.1083 -0.2373
19182TIP3    H178961   6.392   0.677   5.036  0.8753  0.7840  2.3544
19182TIP3    H278962   6.357   0.534   5.068  0.1929  0.5223  0.5081
19183TIP3   OH278963   6.449   6.362  13.987  0.1254  0.2009 -0.2008
19183TIP3    H178964   6.431   6.308  14.064  1.8410  1.4374  1.0989
19183TIP3    H278965   6.492   6.302  13.926 -2.6937 -1.2010 -0.8799
19184TIP3   OH278966   4.899   4.065   1.323 -0.3695  0.8081 -0.4406
19184TIP3    H178967   4.995   4.070   1.319 -0.3572  1.0217  0.1146
19184TIP3    H278968   4.871   4.097   1.237  0.1190 -1.5949 -1.5178
19185TIP3   OH278969   3.443   6.123  11.224  0.1981 -0.1068  0.4596
19185TIP3    H178970   3.463   6.171  11.144 -2.2084 -0.1698 -0.2014
19185TIP3    H278971   3.515   6.060  11.232  2.0363  1.8776 -0.0208
19186TIP3   OH278972   5.127   2.148  11.296 -0.3292  0.0392  0.1369
19186TIP3    H178973   5.195   2.191  11.349  0.4974  1.4741 -2.0105
19186TIP3    H278974   5.045   2.190  11.323 -0.6039 -2.4921  3.5727
19187TIP3   OH278975   2.254   6.651  15.011  0.0010 -0.7916 -0.5204
19187TIP3    H178976   2.196   6.725  15.030 -0.3648 -0.7334 -1.7965
19187TIP3    H278977   2.233   6.586  15.078  0.3205  0.2597  0.6071
19188TIP3   OH278978   6.563   6.101   5.090 -0.1320 -0.1601  0.2051
19188TIP3    H178979   6.472   6.127   5.098 -0.5553 -1.6226  0.2353
19188TIP3    H278980   6.585   6.063   5.175 -0.1354 -1.7531 -0.4832
19189TIP3   OH278981   3.145   0.517  17.027 -0.1320  0.2382  0.3840
19189TIP3    H178982   3.136   0.547  16.937 -1.6058  0.6667  0.6577
19189TIP3    H278983   3.239   0.509  17.040  0.0443 -3.0247 -2.2479
19190TIP3   OH278984   4.398   1.317   3.966 -0.5328  0.4219  0.3202
19190TIP3    H178985   4.484   1.297   3.929  0.4119  0.8365  2.2156
19190TIP3    H278986   4.368   1.394   3.919 -0.7213 -0.8130 -1.6370
19191TIP3   OH278987   4.997   6.535   1.407  0.1900 -0.2570 -0.1075
19191TIP3    H178988   5.031   6.509   1.322 -2.9661  0.2791 -1.5864
19191TIP3    H278989   4.937   6.465   1.432  0.4960 -0.0275  1.3266
19192TIP3   OH278990   3.695   0.431   2.890  0.2602 -0.0223 -0.1822
19192TIP3    H178991   3.712   0.497   2.822 -2.3549  0.4404 -0.4316
19192TIP3    H278992   3.620   0.465   2.939  0.8993 -1.2873  1.7285
19193TIP3   OH278993   4.527   3.200   4.942 -0.1107 -0.0952 -0.3194
19193TIP3    H178994   4.504   3.283   4.984  1.7557 -0.3429  1.2315
19193TIP3    H278995   4.619   3.211   4.916 -0.7982 -0.4798 -3.0771
19194TIP3   OH278996   3.880   4.572  14.883 -0.5666  0.2445 -0.0434
19194TIP3    H178997   3.952   4.571  14.820  0.8083  0.9515  1.4583
19194TIP3    H278998   3.890   4.490  14.932 -0.8521  0.2906  0.0933
19195TIP3   OH278999   1.082   4.594  16.606  0.7878 -0.3638  0.4216
19195TIP3    H179000   1.016   4.526  16.620  0.0366  0.7840  2.7407
19195TIP3    H279001   1.165   4.547  16.604  0.1982 -1.4529  1.0029
19196TIP3   OH279002   3.388   2.427  17.039  0.0347  0.2941  0.1484
19196TIP3    H179003   3.379   2.394  17.129 -0.9356 -0.2022 -0.1175
19196TIP3    H279004   3.403   2.349  16.986 -1.8031  0.3048 -0.4282
19197TIP3   OH279005   2.295   6.083  14.746  0.5337 -0.0499  0.3459
19197TIP3    H179006   2.349   6.077  14.667 -0.4725  0.6748 -0.4066
19197TIP3    H279007   2.325   6.163  14.790  0.7175 -0.1573  0.4158
19198TIP3   OH279008   0.496   1.362  13.564 -0.0707 -0.0507  0.1305
19198TIP3    H179009   0.588   1.345  13.548  0.3270  0.9073  1.3027
19198TIP3    H279010   0.479   1.322  13.650 -0.4193  0.8330  0.4900
19199TIP3   OH279011   3.949   0.758   0.255 -0.2961 -0.8934 -0.0354
19199TIP3    H179012   3.871   0.754   0.200 -1.4399 -1.0352  1.5670
19199TIP3    H279013   3.940   0.684   0.316  0.9145 -0.7224  0.3641
19200TIP3   OH279014   0.753   2.895   6.038 -0.3534 -0.2841 -0.2265
19200TIP3    H179015   0.757   2.903   6.133 -0.6584 -1.0893 -0.1362
19200TIP3    H279016   0.677   2.946   6.012 -0.7878 -0.7783  0.0598
19201TIP3   OH279017   1.308   0.803  14.746  0.0846 -0.0822  0.1600
19201TIP3    H179018   1.291   0.779  14.655 -2.8286 -0.1004  0.6574
19201TIP3    H279019   1.299   0.899  14.747  0.6181 -0.0314  0.3445
19202TIP3   OH279020   2.077   4.324   0.416  0.2897  0.4258 -0.1404
19202TIP3    H179021   2.146   4.386   0.438  1.4252 -0.2153 -1.8265
19202TIP3    H279022   2.095   4.248   0.471 -0.0316  0.8517  0.5764
19203TIP3   OH279023   4.585   0.150   2.936 -0.5175  0.2823  0.5121
19203TIP3    H179024   4.647   0.155   3.009  0.1469 -0.8688  0.0385
19203TIP3    H279025   4.500   0.166   2.976 -0.0811  0.3456  1.4298
19204TIP3   OH279026   3.020   3.955   3.538 -0.2790 -0.4720  0.8423
19204TIP3    H179027   3.050   3.923   3.623 -0.9921 -0.9409  0.9223
19204TIP3    H279028   2.927   3.973   3.551  0.4393  3.3003  1.2801
19205TIP3   OH279029   3.944   1.446   2.377 -0.8910 -0.4507  0.1617
19205TIP3    H179030   3.942   1.541   2.368  2.5769 -0.3314  0.1521
19205TIP3    H279031   3.959   1.414   2.288  0.9414 -0.8281  0.5805
19206TIP3   OH279032   6.234   6.682  16.417  0.0305  0.1488  0.5368
19206TIP3    H179033   6.309   6.735  16.444  0.2823  0.9991 -1.7288
19206TIP3    H279034   6.159   6.741  16.422  0.0672  0.2922 -0.5325
19207TIP3   OH279035   3.176   0.904  14.900 -0.2564 -0.4185 -0.7068
19207TIP3    H179036   3.270   0.900  14.882 -0.2281 -0.6962 -0.5143
19207TIP3    H279037   3.168   0.875  14.991 -0.3871  1.0165 -0.2450
19208TIP3   OH279038   3.319   0.959   2.381 -0.2543  0.1704 -0.9472
19208TIP3    H179039   3.326   0.911   2.299  2.1188 -0.0545 -0.6743
19208TIP3    H279040   3.390   1.024   2.377  1.4322 -1.3765  1.8594
19209TIP3   OH279041   2.356   4.561   4.230  0.1729  0.5043 -0.1308
19209TIP3    H179042   2.369   4.601   4.317 -0.6487  2.4365 -0.8663
19209TIP3    H279043   2.392   4.473   4.239  0.5512  0.8416  2.0381
19210TIP3   OH279044   4.204   3.847  11.764  0.1468  0.2819 -0.8580
19210TIP3    H179045   4.142   3.780  11.793  0.1738  0.0460 -1.3472
19210TIP3    H279046   4.272   3.798  11.717  1.7042  0.3150  1.2804
19211TIP3   OH279047   4.522   2.303   5.395  0.5484 -0.6347  0.0222
19211TIP3    H179048   4.500   2.228   5.451  0.9982 -1.7642 -1.3037
19211TIP3    H279049   4.582   2.356   5.449  1.0604 -1.7641  0.5774
19212TIP3   OH279050   4.873   4.062   0.466 -0.0940 -0.0126  0.3915
19212TIP3    H179051   4.781   4.089   0.465 -0.2614 -0.5798  0.0925
19212TIP3    H279052   4.877   3.993   0.532  0.0946 -0.0648  0.3258
19213TIP3   OH279053   0.141   4.060  12.286  0.3154  0.0194  0.3205
19213TIP3    H179054   0.169   3.997  12.220  2.1801 -0.2625  1.3327
19213TIP3    H279055   0.181   4.143  12.257 -1.2513  0.5267 -0.4372
19214TIP3   OH279056   0.860   1.545   5.401  0.4524  0.6225  0.1472
19214TIP3    H179057   0.816   1.630   5.402  1.6281  1.3118 -2.4566
19214TIP3    H279058   0.789   1.481   5.396 -0.3741  1.7424 -4.9462
19215TIP3   OH279059   3.404   2.130   6.368 -0.0105  0.0179 -0.0799
19215TIP3    H179060   3.483   2.094   6.408 -1.7977 -3.5054  0.4035
19215TIP3    H279061   3.361   2.179   6.438 -0.1402 -1.2046  0.7064
19216TIP3   OH279062   1.356   5.058   0.314 -0.1276 -0.0454  0.2083
19216TIP3    H179063   1.317   5.118   0.377 -0.4294 -1.2817  1.2178
19216TIP3    H279064   1.406   5.114   0.255 -2.1005  1.3969 -0.1297
19217TIP3   OH279065   0.266   0.763  10.390  0.0159  0.2371  0.0667
19217TIP3    H179066   0.178   0.733  10.414 -0.8928  0.9739 -2.2713
19217TIP3    H279067   0.320   0.685  10.397 -0.9951 -0.4385  0.5841
19218TIP3   OH279068   2.093   2.268  15.247  0.1641  0.0973  0.3035
19218TIP3    H179069   2.171   2.254  15.301  0.7835  1.3791 -0.2282
19218TIP3    H279070   2.127   2.276  15.157 -0.7664 -1.1727 -0.1679
19219TIP3   OH279071   6.578   0.910   0.067 -0.1553 -0.5759  0.3724
19219TIP3    H179072   6.511   0.977   0.057  2.6606  2.0728 -1.7721
19219TIP3    H279073   6.607   0.892  -0.022  2.5004 -1.0606  1.2817
19220TIP3   OH279074   5.596   1.178  15.682  0.6346  0.0825  0.4375
19220TIP3    H179075   5.528   1.246  15.686  1.4144  1.0339 -1.7483
19220TIP3    H279076   5.575   1.127  15.604  1.5859 -0.5377  0.5768
19221TIP3   OH279077   6.746   0.363   0.124 -0.3506  0.2304 -0.5264
19221TIP3    H179078   6.809   0.291   0.124  1.4045  1.7450 -0.1681
19221TIP3    H279079   6.679   0.336   0.061 -1.3153 -3.0832  1.7660
19222TIP3   OH279080   4.214   0.207  16.657  0.6055  0.3886  0.3814
19222TIP3    H179081   4.242   0.208  16.565 -0.1997  2.3454  0.1347
19222TIP3    H279082   4.140   0.146  16.658 -0.1099  1.2212 -0.5088
19223TIP3   OH279083   5.847   1.632   2.517  0.3691  0.4116  0.0405
19223TIP3    H179084   5.765   1.678   2.533 -0.2439 -1.0511  1.1631
19223TIP3    H279085   5.854   1.629   2.421 -1.0591  0.2174 -0.0699
19224TIP3   OH279086   5.828   6.534   4.927  0.2948  0.2939 -0.7094
19224TIP3    H179087   5.883   6.473   4.877  0.7460 -1.1440  1.5012
19224TIP3    H279088   5.739   6.514   4.900  0.6626  1.3083 -2.8467
19225TIP3   OH279089   0.104   5.413  12.981 -0.5771  0.3841 -0.2354
19225TIP3    H179090   0.196   5.415  12.957 -0.4814  0.0898  0.0883
19225TIP3    H279091   0.104   5.427  13.076 -0.8817  0.6287 -0.2696
19226TIP3   OH279092   3.955   0.976   5.148 -0.0089  0.1651 -0.0395
19226TIP3    H179093   3.899   0.935   5.082  0.7252  0.8330 -1.0948
19226TIP3    H279094   3.898   1.038   5.194 -0.3435  0.2253 -0.5429
19227TIP3   OH279095   4.261   5.155   5.220 -0.2337  0.0258 -0.0655
19227TIP3    H179096   4.332   5.204   5.179 -0.4400  0.3222 -0.0752
19227TIP3    H279097   4.211   5.120   5.147 -1.4052  1.7124 -0.1093
19228TIP3   OH279098   4.905   1.536   4.307 -0.6860 -0.1804  0.7671
19228TIP3    H179099   4.832   1.476   4.324  0.2017 -0.7473  2.6703
19228TIP3    H279100   4.978   1.501   4.358  0.1140  2.0200  1.1911
19229TIP3   OH279101   4.144   4.013  13.724  0.5665  0.0343  0.4880
19229TIP3    H179102   4.157   4.048  13.636 -0.1659  2.5926  1.3784
19229TIP3    H279103   4.063   3.962  13.718  0.1845  0.7080 -0.1730
19230TIP3   OH279104   1.305   4.405   0.913  0.4783  1.0287  0.2467
19230TIP3    H179105   1.300   4.498   0.890  2.3104  1.2663  0.7672
19230TIP3    H279106   1.292   4.359   0.830  3.8346  1.8359 -0.7740
19231TIP3   OH279107   5.135   5.019  14.764 -0.0499 -0.1535 -0.4474
19231TIP3    H179108   5.128   4.979  14.678 -0.8410  1.3391 -1.1041
19231TIP3    H279109   5.064   5.084  14.766  0.5906  0.5299  0.9315
19232TIP3   OH279110   1.020   3.051   6.106  0.3518  0.5357  0.2677
19232TIP3    H179111   0.965   3.119   6.066  1.6830  0.5328 -1.6141
19232TIP3    H279112   1.064   3.096   6.178 -1.1105  0.8719  0.9731
19233TIP3   OH279113   5.280   0.469   4.828 -0.1313  0.3893  0.2306
19233TIP3    H179114   5.188   0.497   4.837 -0.5133 -1.2614  1.7338
19233TIP3    H279115   5.275   0.386   4.782  0.7336  0.9379 -0.8721
19234TIP3   OH279116   5.357   6.243   3.899  0.5687  0.1285  0.0265
19234TIP3    H179117   5.308   6.322   3.878  0.1632  0.1753  1.1215
19234TIP3    H279118   5.294   6.186   3.942  0.3846 -1.5358 -2.3431
19235TIP3   OH279119   5.218   6.745   0.460 -0.0499 -0.1789  0.1149
19235TIP3    H179120   5.145   6.713   0.406  0.3733 -2.2378  0.6991
19235TIP3    H279121   5.178   6.770   0.543 -0.3829  0.8032 -0.3332
19236TIP3   OH279122   2.374   6.730  12.684 -0.1018 -0.0823 -0.4677
19236TIP3    H179123   2.416   6.652  12.720  0.6633  0.1997 -0.7364
19236TIP3    H279124   2.378   6.718  12.589  0.9718  0.7640 -0.5441
19237TIP3   OH279125   1.141   0.315   2.110  0.1009  0.3007 -0.5069
19237TIP3    H179126   1.179   0.300   2.196 -1.7913  1.2624  0.5408
19237TIP3    H279127   1.085   0.392   2.122 -1.4033 -0.4933 -2.2151
19238TIP3   OH279128   0.798   2.954   4.342  0.2038  0.4415 -0.3113
19238TIP3    H179129   0.891   2.946   4.321  0.5459  0.0294  1.2679
19238TIP3    H279130   0.793   2.933   4.436 -1.6361 -0.7095 -0.6488
19239TIP3   OH279131   3.124   4.988   2.717 -0.3858  0.4149 -0.0203
19239TIP3    H179132   3.154   5.009   2.628  0.5456 -0.8276 -0.0224
19239TIP3    H279133   3.029   4.991   2.712 -0.4074 -1.5570 -1.5845
19240TIP3   OH279134   3.482   6.626  16.702 -0.5355  0.8320  0.0606
19240TIP3    H179135   3.402   6.606  16.653 -1.5514  2.1958  1.1289
19240TIP3    H279136   3.510   6.711  16.668 -0.3469  1.0375  0.7207
19241TIP3   OH279137   5.882   4.357   0.046 -0.0401 -0.2549 -0.0263
19241TIP3    H179138   5.885   4.403   0.130  0.1339  0.1975 -0.2813
19241TIP3    H279139   5.924   4.273   0.064 -2.8949 -1.4877  1.1565
19242TIP3   OH279140   4.830   3.269  13.856 -0.4828  0.1922  0.2876
19242TIP3    H179141   4.833   3.191  13.801 -3.8103  1.4174 -1.7924
19242TIP3    H279142   4.773   3.244  13.929 -2.8907  1.0898 -1.2209
19243TIP3   OH279143   2.925   0.463   5.614 -0.0690  0.5072 -0.1485
19243TIP3    H179144   2.993   0.398   5.596  0.6501  0.2002  3.4218
19243TIP3    H279145   2.846   0.411   5.629  0.5949  0.3416  3.1192
19244TIP3   OH279146   0.702   1.634  16.336 -0.4639  0.0442 -0.4181
19244TIP3    H179147   0.650   1.600  16.409  1.2116  0.2550  0.9027
19244TIP3    H279148   0.718   1.558  16.280  0.6219 -0.7177  0.9071
19245TIP3   OH279149   4.952   0.369   1.287 -0.2415  0.5492  0.2200
19245TIP3    H179150   4.882   0.305   1.278 -1.5921  1.9731  0.4099
19245TIP3    H279151   4.947   0.423   1.208  0.8150  0.4991  0.1044
19246TIP3   OH279152   6.067   1.734   1.121  0.3262 -0.2509  0.3357
19246TIP3    H179153   5.976   1.708   1.110  0.5852 -0.3616 -1.6722
19246TIP3    H279154   6.074   1.758   1.214 -1.3357 -1.7651  0.8833
19247TIP3   OH279155   1.536   6.171   3.188 -0.6141 -0.1179 -0.6101
19247TIP3    H179156   1.494   6.100   3.236 -0.2812 -0.3802 -0.7071
19247TIP3    H279157   1.490   6.174   3.104 -1.2829  0.4276 -0.2207
19248TIP3   OH279158   3.069   0.953  13.109 -0.4051 -0.0603 -0.0276
19248TIP3    H179159   3.104   1.034  13.071  0.7852 -0.6524 -0.2262
19248TIP3    H279160   2.985   0.940  13.065  0.6517 -0.3924 -2.0283
19249TIP3   OH279161   1.211   2.744   3.279 -0.7201  0.0833  0.5121
19249TIP3    H179162   1.116   2.727   3.278 -1.0144  1.5790  0.7749
19249TIP3    H279163   1.246   2.692   3.207 -2.1599  1.6333 -1.3750
19250TIP3   OH279164   2.249   1.841   0.458 -0.2836 -0.6228  0.4383
19250TIP3    H179165   2.251   1.871   0.549  0.6296 -0.9199  0.5251
19250TIP3    H279166   2.323   1.780   0.451 -0.5171 -0.8222 -0.4279
19251TIP3   OH279167   5.461   6.276  14.348 -0.2493  0.3520  0.8127
19251TIP3    H179168   5.464   6.289  14.253  2.7631  0.9424  0.9261
19251TIP3    H279169   5.396   6.338  14.378 -0.4551  0.9424 -0.7766
19252TIP3   OH279170   3.078   1.487   5.346 -0.9633 -0.3640  0.1572
19252TIP3    H179171   3.087   1.504   5.252 -1.2016  0.9777  0.3702
19252TIP3    H279172   3.091   1.392   5.354 -0.1292 -0.3796 -1.1294
19253TIP3   OH279173   1.587   5.898  11.772 -0.0827  0.0596 -0.1587
19253TIP3    H179174   1.595   5.821  11.716  0.6288 -1.0913  1.4959
19253TIP3    H279175   1.540   5.868  11.850  3.0551  0.4148  1.9834
19254TIP3   OH279176   5.959   2.556  10.335 -0.3978 -0.4818  0.0302
19254TIP3    H179177   5.912   2.494  10.391 -1.8185  0.4851 -0.0731
19254TIP3    H279178   5.920   2.544  10.249 -0.6675  0.5769  0.0121
19255TIP3   OH279179   2.883   5.814   0.841 -0.3553  0.4486  0.6077
19255TIP3    H179180   2.945   5.887   0.836  0.3812 -0.0652  2.1409
19255TIP3    H279181   2.844   5.822   0.928 -0.9021 -0.4803  0.4503
19256TIP3   OH279182   4.499   0.414  16.081  0.2676  0.2121  0.3223
19256TIP3    H179183   4.556   0.483  16.115 -0.4141  0.1039  1.7484
19256TIP3    H279184   4.460   0.451  16.002  3.1256 -0.1245 -1.3081
19257TIP3   OH279185   3.221   5.695  14.461  0.2685  0.0157 -0.0786
19257TIP3    H179186   3.214   5.611  14.415 -2.2051  0.5081 -0.6580
19257TIP3    H279187   3.153   5.691  14.528  1.4596  0.7704  1.1785
19258TIP3   OH279188   6.088   0.779  12.120  0.5269  0.3965  0.2065
19258TIP3    H179189   6.181   0.782  12.102  1.1082 -1.7310  2.4231
19258TIP3    H279190   6.057   0.869  12.108  2.6311  0.9098 -1.5547
19259TIP3   OH279191   1.232   3.635   3.799 -0.0815 -0.2638  0.5922
19259TIP3    H179192   1.213   3.695   3.727 -0.2812 -0.5951  0.3677
19259TIP3    H279193   1.244   3.692   3.875 -1.9900 -0.0456  0.7508
19260TIP3   OH279194   4.020   5.859   3.381  0.3103 -0.2070 -0.1301
19260TIP3    H179195   4.073   5.799   3.434  1.0315 -0.2507 -0.8980
19260TIP3    H279196   4.083   5.916   3.339 -0.2078 -0.6244 -1.5041
19261TIP3   OH279197   6.193   6.225   4.323  0.4122  0.4654 -0.6089
19261TIP3    H179198   6.219   6.165   4.253 -0.0743  1.9213 -2.0912
19261TIP3    H279199   6.265   6.288   4.328  1.1740 -0.5427  1.3080
19262TIP3   OH279200   1.065   3.619   4.047  0.5217  0.1804 -0.0299
19262TIP3    H179201   0.975   3.624   4.078 -0.3454 -0.7223 -2.2333
19262TIP3    H279202   1.081   3.704   4.006  1.6501  1.3560  2.7419
19263TIP3   OH279203   5.247   1.830   0.054  0.0217 -0.0186  0.3878
19263TIP3    H179204   5.273   1.912   0.011  0.1912 -0.0046  0.5168
19263TIP3    H279205   5.259   1.763  -0.012  1.4691 -0.1719  0.7945
19264TIP3   OH279206   5.463   6.516   2.630  0.3452 -0.8245 -0.1964
19264TIP3    H179207   5.392   6.569   2.666  0.4009 -0.7967 -0.1296
19264TIP3    H279208   5.424   6.474   2.553  0.7721  0.5739 -1.1922
19265TIP3   OH279209   3.522   2.384  12.888  0.9714  0.4034 -0.4135
19265TIP3    H179210   3.503   2.345  12.973 -0.2345  2.7389  0.4237
19265TIP3    H279211   3.451   2.353  12.831  0.7011  0.4113 -0.0768
19266TIP3   OH279212   0.047   3.125   3.715 -0.1759  0.0856 -0.7203
19266TIP3    H179213   0.007   3.133   3.802  0.4940 -2.7161 -0.0808
19266TIP3    H279214   0.135   3.160   3.726  0.1156 -0.8269 -0.0900
19267TIP3   OH279215   1.124   3.857   2.646  0.4844 -0.2442 -0.1680
19267TIP3    H179216   1.057   3.831   2.709  0.2833 -0.9635 -0.6715
19267TIP3    H279217   1.195   3.793   2.659 -0.4675 -1.7683 -2.1761
19268TIP3   OH279218   4.036   0.066  14.381  0.3128  0.1937 -0.3143
19268TIP3    H179219   4.117   0.065  14.432  0.0690 -0.4874  0.0730
19268TIP3    H279220   4.044  -0.008  14.321 -0.4908 -0.5612  0.4872
19269TIP3   OH279221   6.679   5.260  12.934  0.3848 -0.1357 -0.8602
19269TIP3    H179222   6.767   5.298  12.945  0.9722 -1.3197 -1.3703
19269TIP3    H279223   6.619   5.331  12.956  1.4811  0.3079  0.7544
19270TIP3   OH279224   3.880   6.737  15.721 -0.7703  0.0406  0.1152
19270TIP3    H179225   3.944   6.690  15.774  0.0892  1.8387  0.7354
19270TIP3    H279226   3.798   6.689  15.733  0.2488 -1.7180  0.0925
19271TIP3   OH279227   5.703   2.620  12.272  0.1650 -0.3838  0.3490
19271TIP3    H179228   5.797   2.601  12.275  0.1952 -0.2952 -0.1533
19271TIP3    H279229   5.665   2.546  12.224  0.0849  0.0282 -0.2180
19272TIP3   OH279230   4.719   0.111   0.523  0.1567 -0.0046  0.3507
19272TIP3    H179231   4.699   0.192   0.476  2.6978  1.0118  0.9322
19272TIP3    H279232   4.643   0.097   0.580 -0.2154  2.1444  0.4472
19273TIP3   OH279233   3.448   4.495   2.826  0.7319 -0.3183 -0.9901
19273TIP3    H179234   3.474   4.409   2.857 -0.9970 -0.7224 -0.6299
19273TIP3    H279235   3.367   4.480   2.777  1.0790  0.9221 -1.9724
19274TIP3   OH279236   5.732   5.140  12.324  0.5765 -0.1559  0.0121
19274TIP3    H179237   5.708   5.228  12.354  0.1465 -0.3804  0.3328
19274TIP3    H279238   5.650   5.103  12.291  0.4243 -1.0144  1.3159
19275TIP3   OH279239   1.933   2.988   5.404  0.4792 -0.0949 -0.6576
19275TIP3    H179240   1.988   3.019   5.476 -0.7329  0.1980  0.1644
19275TIP3    H279241   1.956   2.896   5.395  0.8389 -0.0695 -0.0703
19276TIP3   OH279242   3.734   6.322  13.479 -0.1547 -0.3080 -0.5766
19276TIP3    H179243   3.783   6.398  13.512 -1.2123  0.5855 -1.0117
19276TIP3    H279244   3.761   6.314  13.388 -0.6947  0.1005 -0.7781
19277TIP3   OH279245   3.909   3.529   0.274 -0.3085 -0.0495  0.3142
19277TIP3    H179246   3.836   3.586   0.296 -1.4766 -1.5480  0.3935
19277TIP3    H279247   3.919   3.472   0.351 -1.0854 -1.9039 -0.9353
19278TIP3   OH279248   1.402   3.539  13.415 -0.1233  0.5200 -0.0377
19278TIP3    H179249   1.327   3.495  13.455 -0.9501  1.2962 -0.7214
19278TIP3    H279250   1.371   3.627  13.395  0.5664  0.4316 -1.5505
19279TIP3   OH279251   0.238   5.581  16.676  0.1400 -0.0478  0.0970
19279TIP3    H179252   0.279   5.529  16.607 -1.7341 -1.4174 -0.0527
19279TIP3    H279253   0.177   5.639  16.629 -0.3101 -0.1882  0.4996
19280TIP3   OH279254   2.637   3.045   2.992  0.6698 -0.1295 -0.0489
19280TIP3    H179255   2.705   3.109   2.971  0.6807 -0.0724  0.1590
19280TIP3    H279256   2.685   2.967   3.019  0.6627 -0.3857 -0.7579
19281TIP3   OH279257   4.081   0.517  16.934 -0.3796  0.2597  0.3947
19281TIP3    H179258   4.161   0.478  16.970  0.4089  0.4656 -1.0972
19281TIP3    H279259   4.101   0.610  16.927 -0.8017  0.3315  0.1648
19282TIP3   OH279260   1.248   5.063   2.888 -0.0822  0.1905  0.0254
19282TIP3    H179261   1.286   5.091   2.805 -0.5677 -1.0338 -0.6356
19282TIP3    H279262   1.220   5.143   2.931  0.9013  0.8927 -0.6460
19283TIP3   OH279263   1.088   4.503   4.776  0.0889 -0.1203  0.1245
19283TIP3    H179264   1.001   4.463   4.767  0.4361 -0.8892  0.1725
19283TIP3    H279265   1.084   4.549   4.861 -0.5948  0.6835 -0.3296
19284TIP3   OH279266   2.955   4.076   5.768 -0.1288 -0.4035 -0.1947
19284TIP3    H179267   2.966   4.043   5.857  0.5930  0.3405  0.0022
19284TIP3    H279268   3.039   4.117   5.747 -0.7375  0.6023 -0.7184
19285TIP3   OH279269   0.454   6.565  16.927 -0.2249  0.1749 -0.2600
19285TIP3    H179270   0.406   6.489  16.960  0.1964 -0.3144 -0.7557
19285TIP3    H279271   0.402   6.640  16.954 -0.0678 -0.2333  1.2001
19286TIP3   OH279272   0.921   4.406  14.627 -0.4978  0.5030  0.4747
19286TIP3    H179273   0.880   4.365  14.551  0.5188 -2.3975  1.3882
19286TIP3    H279274   0.849   4.424  14.687 -1.3499  3.1302 -1.2560
19287TIP3   OH279275   2.125   4.725   2.614  0.0193 -0.1453  0.4605
19287TIP3    H179276   2.151   4.746   2.524  0.4692 -1.1049  0.3601
19287TIP3    H279277   2.197   4.758   2.668 -0.7677  1.4279  0.5659
19288TIP3   OH279278   0.929   5.106   1.356  0.5843  0.5391 -0.4420
19288TIP3    H179279   0.892   5.164   1.290 -1.1555 -0.0171  0.0329
19288TIP3    H279280   0.876   5.027   1.353  2.2832 -0.6449 -0.3540
19289TIP3   OH279281   3.223   4.617  13.296 -0.0751 -0.4697 -0.3289
19289TIP3    H179282   3.253   4.526  13.294 -1.7796 -1.0355 -1.0418
19289TIP3    H279283   3.194   4.631  13.387 -3.5910 -1.9555 -1.1214
19290TIP3   OH279284   0.879   0.916  16.601 -0.5473 -0.2317 -0.1568
19290TIP3    H179285   0.939   0.978  16.642 -2.4070  1.4746  0.0638
19290TIP3    H279286   0.919   0.896  16.517  0.2483  0.9976 -0.0898
19291TIP3   OH279287   5.047   0.999  16.477  0.0774  0.2562  0.0545
19291TIP3    H179288   5.078   0.908  16.468  1.1651  0.6751 -0.6162
19291TIP3    H279289   5.092   1.046  16.407 -0.9229  1.2070  0.0458
19292TIP3   OH279290   6.126   5.567   0.078 -0.1604 -0.4498  0.0350
19292TIP3    H179291   6.119   5.488   0.132  1.9278 -0.3648  0.4838
19292TIP3    H279292   6.131   5.535  -0.012 -0.0592 -0.7853  0.1621
19293TIP3   OH279293   0.902   0.837  13.097 -0.0636  0.6701  0.1656
19293TIP3    H179294   0.991   0.810  13.076 -0.4662 -0.7250  0.1517
19293TIP3    H279295   0.864   0.862  13.013 -0.1470 -0.1966 -0.0620
19294TIP3   OH279296   0.342   5.312  16.747  0.1017 -0.5284  0.0502
19294TIP3    H179297   0.403   5.383  16.727  2.4238 -2.1611  1.0551
19294TIP3    H279298   0.369   5.241  16.688 -1.6333 -0.8814 -0.3429
19295TIP3   OH279299   1.689   1.936   5.445  0.2987  0.1159 -0.9516
19295TIP3    H179300   1.766   1.880   5.434  0.3245  0.1208 -0.8003
19295TIP3    H279301   1.618   1.876   5.465  0.6745  0.2634  0.9419
19296TIP3   OH279302   0.110   5.640  13.813  0.1873 -0.0416 -0.1647
19296TIP3    H179303   0.074   5.714  13.764  0.3946 -0.7545 -1.4163
19296TIP3    H279304   0.176   5.680  13.871  0.2398  0.7692 -0.7685
19297TIP3   OH279305   2.576   1.996  12.820  0.8459 -0.2804  0.2777
19297TIP3    H179306   2.585   2.053  12.896 -0.9870 -0.6136  0.7460
19297TIP3    H279307   2.502   1.939  12.840 -0.6257  0.6239 -2.3658
19298TIP3   OH279308   1.133   3.754   5.668 -0.0596 -0.0879  0.1774
19298TIP3    H179309   1.102   3.668   5.638  1.3513 -1.1572  1.7060
19298TIP3    H279310   1.069   3.781   5.734 -1.7026  1.0626 -1.8218
19299TIP3   OH279311   6.439   1.912   0.052  0.0602 -0.0941  0.5644
19299TIP3    H179312   6.415   1.939  -0.037  1.0099  1.5134  0.7855
19299TIP3    H279313   6.462   1.819   0.043 -1.8849 -0.5049 -0.4664
19300TIP3   OH279314   1.039   1.365   5.165 -0.3638 -0.3749  0.3532
19300TIP3    H179315   1.082   1.417   5.234  0.0211  0.5149 -0.5473
19300TIP3    H279316   1.086   1.282   5.165  1.5846  0.6680 -0.7943
19301TIP3   OH279317   0.065   1.340  12.819 -0.4311 -0.3079  0.0454
19301TIP3    H179318   0.142   1.284  12.814 -1.2011 -1.1264 -4.1894
19301TIP3    H279319   0.096   1.419  12.865  2.3996 -1.3860  0.0986
19302TIP3   OH279320   6.708   2.098   4.423  0.3889 -0.1520  0.4754
19302TIP3    H179321   6.786   2.049   4.449  0.6404  0.8530  1.6322
19302TIP3    H279322   6.665   2.122   4.505 -0.0217  1.0885 -0.0851
19303TIP3   OH279323   4.271   0.835  15.020  0.0461 -0.2609  0.4222
19303TIP3    H179324   4.185   0.820  15.059 -0.8904  0.8760 -1.1592
19303TIP3    H279325   4.286   0.758  14.965 -0.4056  0.0165 -0.0871
19304TIP3   OH279326   5.711   0.399  13.482  0.7301  0.0908  0.2797
19304TIP3    H179327   5.708   0.483  13.528  0.1860  0.8110 -1.0628
19304TIP3    H279328   5.669   0.415  13.398  1.8811 -1.1832 -0.5649
19305TIP3   OH279329   3.930   1.943  10.352 -0.1356 -0.1170 -0.4265
19305TIP3    H179330   4.004   1.883  10.357  0.4734  0.7166  0.7470
19305TIP3    H279331   3.854   1.888  10.372  0.3252 -0.6608 -0.1367
19306TIP3   OH279332   6.678   3.655  14.425 -0.2651  0.1699 -0.3488
19306TIP3    H179333   6.628   3.655  14.506 -0.2426  1.4442 -0.3330
19306TIP3    H279334   6.612   3.656  14.356 -0.2716  0.2691 -0.3404
19307TIP3   OH279335   6.142   3.350   1.411 -1.0151  0.0442  0.0117
19307TIP3    H179336   6.050   3.327   1.398 -0.9456 -0.5844  0.6356
19307TIP3    H279337   6.141   3.419   1.478 -1.0375  0.1330 -0.0789
19308TIP3   OH279338   0.580   3.776  13.771  0.0083  0.2547  0.0953
19308TIP3    H179339   0.551   3.700  13.721  0.1146  0.8020 -0.8019
19308TIP3    H279340   0.675   3.771  13.770  0.0194 -1.2797  2.6413
19309TIP3   OH279341   2.875   2.312  12.731  0.7384 -0.7385  0.3398
19309TIP3    H179342   2.906   2.297  12.820 -0.1238  1.1914  1.0064
19309TIP3    H279343   2.784   2.283  12.733  0.9259 -1.3513 -0.1078
19310TIP3   OH279344   5.225   6.114   5.482 -0.2047 -0.8997  0.0690
19310TIP3    H179345   5.287   6.182   5.506  0.9381 -1.7693 -0.4095
19310TIP3    H279346   5.237   6.045   5.548 -0.7729 -1.0010  0.0708
19311TIP3   OH279347   4.055   2.298  15.070 -0.4022 -0.0503  0.2979
19311TIP3    H179348   4.134   2.252  15.042 -0.1558 -0.5889  1.8109
19311TIP3    H279349   4.057   2.381  15.021  1.2904  0.0930  0.5743
19312TIP3   OH279350   5.582   4.015  12.746  0.1793 -0.8192 -0.1653
19312TIP3    H179351   5.636   4.060  12.681 -0.0879 -0.7641 -0.3508
19312TIP3    H279352   5.644   3.980  12.809  0.5089 -1.6195 -0.9196
19313TIP3   OH279353   4.571   4.428   3.547  0.2670 -0.3166  0.1633
19313TIP3    H179354   4.588   4.350   3.600  0.0977 -0.6153 -0.2200
19313TIP3    H279355   4.654   4.476   3.549 -0.3543  0.7142  2.3996
19314TIP3   OH279356   4.037   6.734   4.664  0.9207 -0.0256  0.0017
19314TIP3    H179357   3.963   6.675   4.677  0.3509  0.9190  1.1756
19314TIP3    H279358   4.045   6.741   4.569 -0.5043 -0.1622 -0.1500
19315TIP3   OH279359   4.558   6.037   2.641  0.1960  0.0122 -0.3640
19315TIP3    H179360   4.649   6.029   2.670  0.1518 -0.5549 -0.3821
19315TIP3    H279361   4.564   6.046   2.546  0.4233  3.1516 -0.1205
19316TIP3   OH279362   5.906   4.960   3.166  0.6210 -0.3302 -0.0638
19316TIP3    H179363   5.827   4.958   3.219  0.3503 -0.8444 -0.4820
19316TIP3    H279364   5.876   4.988   3.079  0.9562 -0.1374 -0.1189
19317TIP3   OH279365   2.005   2.271   3.910  0.0365 -0.4167  0.1751
19317TIP3    H179366   1.992   2.323   3.990 -0.7488 -0.7324  0.2626
19317TIP3    H279367   2.014   2.181   3.942 -2.3122 -0.8278 -0.2064
19318TIP3   OH279368   5.372   0.290   2.257  0.2740 -0.5493 -0.0108
19318TIP3    H179369   5.374   0.196   2.235  0.3194 -0.3990 -0.6584
19318TIP3    H279370   5.323   0.294   2.339  0.8353 -1.2128  0.3773
19319TIP3   OH279371   5.052   0.855   0.905 -0.4881  0.8043 -0.3358
19319TIP3    H179372   5.046   0.796   0.980  2.8968 -1.9596 -2.0971
19319TIP3    H279373   5.029   0.800   0.829 -1.0707  2.7999 -1.6546
19320TIP3   OH279374   2.583   4.686  15.014  0.1639  0.1675 -0.0016
19320TIP3    H179375   2.675   4.709  15.006  0.9442 -3.0254 -0.8595
19320TIP3    H279376   2.540   4.732  14.942  1.1633  1.3351  0.1447
19321TIP3   OH279377   4.162   2.579   5.162 -0.1425  0.0637  0.2108
19321TIP3    H179378   4.084   2.623   5.197 -1.1518 -2.0849  0.7279
19321TIP3    H279379   4.197   2.530   5.237 -0.2151 -1.6526 -0.8648
19322TIP3   OH279380   5.629   3.342  13.864  0.0814 -0.5297 -0.1380
19322TIP3    H179381   5.590   3.255  13.853  0.2556 -0.3667 -2.2581
19322TIP3    H279382   5.557   3.396  13.895 -0.6265 -0.9317 -1.0350
19323TIP3   OH279383   6.168   4.954  14.440 -0.0605  0.3624  0.0806
19323TIP3    H179384   6.190   4.898  14.366 -0.6584 -1.5395  1.3024
19323TIP3    H279385   6.114   5.024  14.403  1.8312  0.9262 -1.7000
19324TIP3   OH279386   2.898   0.191  14.598 -0.1902 -0.3691 -0.6944
19324TIP3    H179387   2.839   0.124  14.631  0.2619 -0.6241 -0.4030
19324TIP3    H279388   2.883   0.192  14.503  1.6440 -2.6558 -1.0223
19325TIP3   OH279389   3.625   4.714  11.660 -0.0758 -0.3851 -0.2766
19325TIP3    H179390   3.680   4.784  11.695 -0.9055  1.0173 -1.7247
19325TIP3    H279391   3.598   4.744  11.573 -2.0471 -1.6182 -0.1487
19326TIP3   OH279392   3.904   6.374   3.104  0.7311  0.0966  0.4936
19326TIP3    H179393   3.942   6.451   3.147  1.5000 -0.9120  1.6609
19326TIP3    H279394   3.949   6.300   3.144  0.1908 -0.9566 -0.8179
19327TIP3   OH279395   5.820   1.572  11.199 -0.1206  0.4465  0.0691
19327TIP3    H179396   5.867   1.643  11.244  0.8246 -0.0355 -0.1325
19327TIP3    H279397   5.846   1.582  11.107 -0.1082 -0.0699  0.0181
19328TIP3   OH279398   2.711   6.060  16.664  0.0457  0.0299  0.1363
19328TIP3    H179399   2.727   6.116  16.588 -0.2100 -1.4270 -1.0180
19328TIP3    H279400   2.619   6.033  16.656 -0.4974  1.2661  1.9262
19329TIP3   OH279401   3.213   3.828  15.056 -0.2393 -0.3213  0.2146
19329TIP3    H179402   3.245   3.831  14.966 -1.0219 -1.7275 -0.1165
19329TIP3    H279403   3.120   3.805  15.048 -0.4641  0.1561  1.3491
19330TIP3   OH279404   4.264   6.385  16.939 -0.7485  0.5609 -0.3123
19330TIP3    H179405   4.253   6.386  16.844 -1.0611  2.3601 -0.2780
19330TIP3    H279406   4.347   6.429  16.954 -0.3746 -0.3101  0.2222
19331TIP3   OH279407   6.105   0.473  17.203 -0.1913 -0.2115  0.1064
19331TIP3    H179408   6.194   0.462  17.238 -0.3113 -0.6966  0.2519
19331TIP3    H279409   6.048   0.443  17.273 -0.4233 -1.6170 -0.6643
19332TIP3   OH279410   5.055   4.430   2.768  1.0425  0.3754 -0.1734
19332TIP3    H179411   5.108   4.499   2.729  1.1361  0.1846 -0.3856
19332TIP3    H279412   5.119   4.368   2.803  0.9598  0.6244  0.4224
19333TIP3   OH279413   3.588   0.023  15.711 -0.2163 -0.1052 -0.1985
19333TIP3    H179414   3.603  -0.041  15.642  1.4897 -0.3829  0.4074
19333TIP3    H279415   3.565  -0.030  15.788  1.4070 -0.0143  0.3587
19334TIP3   OH279416   2.689   3.954  11.547  0.2729  0.3357  0.3156
19334TIP3    H179417   2.661   3.879  11.600  1.1581  0.0638  0.4191
19334TIP3    H279418   2.609   4.002  11.529 -0.1304  0.0761  1.3629
19335TIP3   OH279419   2.496   6.436  14.118 -0.5082 -0.4790  0.0900
19335TIP3    H179420   2.507   6.398  14.031  2.0428 -0.1757  0.2496
19335TIP3    H279421   2.402   6.430  14.135 -0.6247 -3.4196 -1.3491
19336TIP3   OH279422   6.220   3.650   5.769 -0.0967 -0.2111 -0.7842
19336TIP3    H179423   6.202   3.678   5.680 -0.1651 -2.8946 -1.6423
19336TIP3    H279424   6.236   3.556   5.763  1.6603 -0.1452  1.7768
19337TIP3   OH279425   4.319   1.945   2.155 -0.2921  0.1746  0.7614
19337TIP3    H179426   4.258   1.983   2.218  0.0400  2.9323 -0.4957
19337TIP3    H279427   4.264   1.893   2.096 -0.9512 -0.1516  1.6596
19338TIP3   OH279428   4.197   6.173   5.059  0.0992  0.4036 -0.1787
19338TIP3    H179429   4.197   6.265   5.033  0.4231  0.5185  0.2400
19338TIP3    H279430   4.120   6.164   5.116 -0.5360  0.1808 -1.0501
19339TIP3   OH279431   2.729   2.507  12.989  0.5231  0.0041  0.5803
19339TIP3    H179432   2.731   2.534  12.897  0.5883 -1.0777  0.2548
19339TIP3    H279433   2.663   2.563  13.029  0.4436  0.4326 -0.1414
19340TIP3   OH279434   2.808   2.548   1.398 -0.3873 -0.8982 -0.1376
19340TIP3    H179435   2.823   2.454   1.406 -0.6813 -0.9374 -0.0607
19340TIP3    H279436   2.828   2.568   1.306 -1.9349 -1.3184 -0.5713
19341TIP3   OH279437   2.121   4.031  11.492 -0.0570  0.2467  0.2312
19341TIP3    H179438   2.118   4.090  11.417  0.9789  0.1092  0.0718
19341TIP3    H279439   2.067   3.956  11.467  0.6806 -0.0168 -0.5686
19342TIP3   OH279440   5.074   6.489  12.028  0.6719  0.4162  0.2587
19342TIP3    H179441   5.032   6.562  12.074 -2.7930 -1.6310  0.4395
19342TIP3    H279442   5.064   6.511  11.935  1.0453  0.9413  0.3424
19343TIP3   OH279443   3.261   0.332   3.014  0.1779  0.3256 -0.8142
19343TIP3    H179444   3.284   0.388   3.088 -2.8555  0.3672  0.1266
19343TIP3    H279445   3.301   0.248   3.035  1.5285  1.0459 -0.4099
19344TIP3   OH279446   6.154   5.243  15.794 -0.3153 -0.2790 -0.3031
19344TIP3    H179447   6.244   5.217  15.781  0.5437  2.1207  0.4684
19344TIP3    H279448   6.159   5.315  15.858 -2.7171  0.1448 -0.5329
19345TIP3   OH279449   5.502   1.582   1.318 -0.6120  0.3758 -0.1239
19345TIP3    H179450   5.542   1.636   1.250 -1.4306  1.4775  0.2517
19345TIP3    H279451   5.445   1.642   1.366  0.2349 -0.2740  1.7705
19346TIP3   OH279452   3.948   2.499   0.522 -0.3107  0.0362 -0.6283
19346TIP3    H179453   3.855   2.479   0.531  0.2514 -2.4408 -0.1506
19346TIP3    H279454   3.976   2.519   0.611 -0.1032 -0.4649 -0.5821
19347TIP3   OH279455   4.990   5.183   3.155 -0.2446  0.1889 -0.7183
19347TIP3    H179456   4.970   5.183   3.249 -0.3667  0.4193 -0.7434
19347TIP3    H279457   4.984   5.091   3.130 -0.6541  0.1765 -0.5919
19348TIP3   OH279458   0.077   0.482   0.861  0.1211 -0.0289  1.0698
19348TIP3    H179459   0.047   0.422   0.929  0.5599 -1.3270  0.1398
19348TIP3    H279460   0.156   0.522   0.896  0.0203 -0.2507  1.5507
19349TIP3   OH279461   6.367   3.672   4.972 -0.2906 -0.7553  0.3445
19349TIP3    H179462   6.392   3.588   5.011 -0.8423 -0.3255  1.6515
19349TIP3    H279463   6.326   3.720   5.044  0.7645  0.9649 -0.1761
19350TIP3   OH279464   4.331   4.482  11.441  0.2817  0.3712  0.1157
19350TIP3    H179465   4.328   4.578  11.445 -0.4120  0.3964 -0.9506
19350TIP3    H279466   4.399   4.463  11.377  0.4681  0.1415  0.3775
19351TIP3   OH279467   1.893   5.390   3.371  0.2642 -0.5274 -0.9918
19351TIP3    H179468   1.980   5.412   3.339  0.1134 -0.0723 -1.0929
19351TIP3    H279469   1.864   5.468   3.418  0.8817 -1.5623  1.1256
19352TIP3   OH279470   0.091   2.922  14.484  0.1774  0.5809  0.6218
19352TIP3    H179471   0.063   2.830  14.488 -1.3341  0.8374 -2.2643
19352TIP3    H279472   0.151   2.932  14.557  0.1699 -2.6468  1.1584
19353TIP3   OH279473   2.404   0.800   4.696  0.1881  0.1197  0.1314
19353TIP3    H179474   2.442   0.847   4.771 -2.4892  0.3957  1.3539
19353TIP3    H279475   2.403   0.865   4.626  0.3624  0.6176  0.5875
19354TIP3   OH279476   0.524   3.775  10.565  0.4571 -0.5962 -0.6984
19354TIP3    H179477   0.505   3.757  10.473  0.8950 -4.3698 -0.1318
19354TIP3    H279478   0.590   3.710  10.589  1.7535  1.5518  1.8066
19355TIP3   OH279479   6.503   1.270   3.415  0.0902  0.3606 -0.0804
19355TIP3    H179480   6.560   1.302   3.345 -1.3185  1.0459 -0.9355
19355TIP3    H279481   6.538   1.311   3.494  0.9484  0.5497 -0.5491
19356TIP3   OH279482   6.051   4.535  10.515  0.0798  0.0647 -0.5130
19356TIP3    H179483   6.056   4.443  10.539 -0.4567  0.7372  2.5031
19356TIP3    H279484   6.141   4.560  10.495  0.1451 -1.2158 -1.8926
19357TIP3   OH279485   6.447   3.876   0.401 -0.0136 -0.3318  0.4249
19357TIP3    H179486   6.532   3.911   0.376 -0.3158 -0.6149 -1.0227
19357TIP3    H279487   6.384   3.943   0.374 -0.4116 -1.0006 -0.3162
19358TIP3   OH279488   5.215   6.651  16.934  0.1791 -0.0538 -0.2963
19358TIP3    H179489   5.150   6.716  16.908  0.1847 -0.5126 -1.4803
19358TIP3    H279490   5.299   6.697  16.929  0.1695 -0.1104 -1.0052
19359TIP3   OH279491   1.405   3.886  17.120  0.7096  0.0471 -0.4556
19359TIP3    H179492   1.313   3.880  17.147  0.2055  0.0503 -2.0793
19359TIP3    H279493   1.447   3.938  17.188 -0.2501 -0.8651  0.8697
19360TIP3   OH279494   2.619   5.642  11.793 -0.1067 -0.1527 -0.2516
19360TIP3    H179495   2.706   5.602  11.796 -0.3718 -0.6285  1.0307
19360TIP3    H279496   2.601   5.652  11.699  1.1114 -0.5107 -0.5314
19361TIP3   OH279497   4.921   2.403   4.398  0.3163 -0.5386 -0.4649
19361TIP3    H179498   4.896   2.337   4.333  1.7500 -0.6205 -0.9623
19361TIP3    H279499   4.934   2.483   4.347  0.5798 -0.3875 -0.1649
19362TIP3   OH279500   6.143   4.402  12.553 -0.0905 -0.0149 -0.2627
19362TIP3    H179501   6.231   4.367  12.539  0.1239  0.7064 -0.7454
19362TIP3    H279502   6.098   4.386  12.470 -0.1442  0.3883 -0.3135
19363TIP3   OH279503   2.633   6.381   4.891  0.6842  0.4857 -0.9603
19363TIP3    H179504   2.597   6.321   4.826  0.0841  2.8027 -2.8714
19363TIP3    H279505   2.568   6.382   4.961  0.0823 -0.1407 -1.4973
19364TIP3   OH279506   6.287   4.650  13.918 -0.3714  0.0329  0.3592
19364TIP3    H179507   6.314   4.623  13.830  0.1957 -0.3440  0.6418
19364TIP3    H279508   6.205   4.697  13.905 -0.1289  0.2524 -0.4037
19365TIP3   OH279509   3.761   6.261   3.598  0.6130  0.0056  0.4809
19365TIP3    H179510   3.707   6.311   3.537  0.4778  0.1327  0.7054
19365TIP3    H279511   3.783   6.181   3.550 -0.7964 -0.6125  0.8376
19366TIP3   OH279512   1.307   6.636   0.242 -0.4219 -0.5011  0.2885
19366TIP3    H179513   1.379   6.688   0.206  0.0461 -1.4944 -0.2464
19366TIP3    H279514   1.306   6.557   0.188 -1.8300 -0.5555  0.3901
19367TIP3   OH279515   0.039   4.732   5.718  0.1945 -0.2856 -0.4823
19367TIP3    H179516  -0.044   4.743   5.671  0.3317  4.0302  0.0842
19367TIP3    H279517   0.014   4.707   5.807 -0.6055  2.3911  0.0709
19368TIP3   OH279518   2.927   5.619  11.373  0.1664 -0.1222  0.2238
19368TIP3    H179519   2.940   5.696  11.318 -2.1851  0.7929  0.8946
19368TIP3    H279520   2.935   5.545  11.313  0.2007  0.7535 -0.8688
19369TIP3   OH279521   0.864   5.377  16.685 -0.5160 -0.2012 -0.0498
19369TIP3    H179522   0.959   5.367  16.687 -0.5460 -0.7788 -1.3928
19369TIP3    H279523   0.843   5.392  16.593 -1.7704 -0.4574  0.1890
19370TIP3   OH279524   2.828   4.450   1.000  0.1522 -0.1885 -0.4599
19370TIP3    H179525   2.833   4.470   0.906  1.7032  1.1371 -0.1220
19370TIP3    H279526   2.743   4.484   1.027  0.4139  0.9871 -1.0564
19371TIP3   OH279527   2.639   3.402  15.313  0.0375 -0.7003 -0.4016
19371TIP3    H179528   2.644   3.479  15.370  0.1051  0.4038 -1.8781
19371TIP3    H279529   2.675   3.331  15.366 -1.0794  0.0380  1.3880
19372TIP3   OH279530   1.837   1.955   2.370  0.4100  0.0384  0.0533
19372TIP3    H179531   1.755   1.991   2.336  0.1141 -1.0587 -0.4235
19372TIP3    H279532   1.836   1.978   2.463 -1.3121 -1.5222  0.4615
19373TIP3   OH279533   1.080   0.175   3.666  0.6665 -0.4147  0.6084
19373TIP3    H179534   1.133   0.155   3.589  0.3952  0.8206  0.0854
19373TIP3    H279535   1.114   0.259   3.697 -0.0157 -0.3303  1.1266
19374TIP3   OH279536   1.622   2.233  12.206  0.2864  0.3773 -0.0601
19374TIP3    H179537   1.612   2.301  12.272 -2.0808 -0.4505  0.4854
19374TIP3    H279538   1.536   2.227  12.165 -0.1436 -3.6988  1.2844
19375TIP3   OH279539   0.598   2.804  15.755 -0.1918 -0.8346 -0.3008
19375TIP3    H179540   0.645   2.842  15.829 -0.6401  0.4765 -0.6648
19375TIP3    H279541   0.593   2.710  15.775  0.5866 -0.6501  0.8219
19376TIP3   OH279542   6.137   5.323   1.903 -0.1431  0.0870  0.0096
19376TIP3    H179543   6.126   5.256   1.836  2.7128 -0.5745  0.1534
19376TIP3    H279544   6.094   5.288   1.980 -0.0993 -0.8610 -0.3951
19377TIP3   OH279545   6.086   0.259   1.234 -0.5743  0.1981  0.1630
19377TIP3    H179546   6.168   0.221   1.203 -0.2244  0.3310  0.9284
19377TIP3    H279547   6.072   0.335   1.178  0.9109  1.3990  1.4071
19378TIP3   OH279548   5.797   0.523  16.269 -0.4554 -0.4938 -0.3631
19378TIP3    H179549   5.862   0.520  16.339 -0.8291  0.0584  0.0073
19378TIP3    H279550   5.757   0.436  16.270  1.7998 -1.6237 -2.0680
19379TIP3   OH279551   4.114   4.573  14.229  0.0452 -0.0693 -0.3173
19379TIP3    H179552   4.046   4.545  14.167 -0.1097 -0.7282  0.1493
19379TIP3    H279553   4.186   4.512  14.214 -0.3483 -0.8152  0.8017
19380TIP3   OH279554   2.342   0.712  11.750  0.4896  0.0258 -0.5554
19380TIP3    H179555   2.281   0.641  11.731  0.3407 -0.3772  1.3253
19380TIP3    H279556   2.426   0.683  11.715  0.0741 -0.3321 -1.2691
19381TIP3   OH279557   2.530   3.319  12.907 -0.0155  0.0387 -0.1515
19381TIP3    H179558   2.466   3.263  12.864  0.1307 -2.6220  2.9465
19381TIP3    H279559   2.602   3.261  12.930  0.0864  1.4196  3.2875
19382TIP3   OH279560   6.588   5.700   2.804  0.0999 -0.0581 -0.4408
19382TIP3    H179561   6.539   5.637   2.752 -0.2093 -0.5606  0.4431
19382TIP3    H279562   6.662   5.650   2.839 -1.6869 -0.7150  2.5821
19383TIP3   OH279563   1.016   6.356   4.138 -0.0596  0.5041 -1.0744
19383TIP3    H179564   0.928   6.324   4.119 -0.1711  0.1961 -0.0264
19383TIP3    H279565   1.037   6.413   4.063 -1.6902  1.6889 -0.6599
19384TIP3   OH279566   4.631   0.883  13.766 -0.2479 -0.1078  0.1039
19384TIP3    H179567   4.587   0.957  13.808 -0.2907 -0.8305  1.3734
19384TIP3    H279568   4.561   0.836  13.721 -0.3219  0.2777 -0.1845
19385TIP3   OH279569   4.067   3.591   4.058  0.0762 -0.1460 -0.3173
19385TIP3    H179570   4.154   3.618   4.028 -1.1145  2.5009 -1.5581
19385TIP3    H279571   4.022   3.564   3.977 -0.7077 -0.2239  0.1457
19386TIP3   OH279572   0.311   4.943   0.078  0.1003 -0.0526 -0.6755
19386TIP3    H179573   0.309   5.035   0.106  1.2266 -0.0374 -0.6161
19386TIP3    H279574   0.232   4.905   0.115  0.5378  0.4651  0.8204
19387TIP3   OH279575   0.126   2.598  10.416  0.5418  0.3658 -0.7839
19387TIP3    H179576   0.073   2.674  10.391  1.1146  1.6600  1.7510
19387TIP3    H279577   0.063   2.529  10.433  0.0071  0.2761 -3.0457
19388TIP3   OH279578   2.801   0.383  10.936 -0.0404  0.0127  0.0608
19388TIP3    H179579   2.831   0.402  10.847 -2.0836  0.9462 -0.4756
19388TIP3    H279580   2.789   0.288  10.939  2.7965 -0.3702  0.2764
19389TIP3   OH279581   2.062   1.954  11.010  0.2225  0.3331 -0.0892
19389TIP3    H179582   2.085   1.999  11.091 -0.0275 -0.6402  0.5384
19389TIP3    H279583   1.981   1.995  10.982  0.2396  0.5873  0.2293
19390TIP3   OH279584   1.004   5.980  13.561  0.4569 -0.4623 -0.4406
19390TIP3    H179585   1.068   6.010  13.497 -1.6365 -2.0499 -3.4248
19390TIP3    H279586   0.973   5.896  13.526  0.9261 -2.5693  3.8897
19391TIP3   OH279587   1.369   1.163   1.174  0.1630 -0.2633  0.0515
19391TIP3    H179588   1.328   1.249   1.184 -1.5478 -1.0118 -0.1874
19391TIP3    H279589   1.383   1.154   1.080 -1.4155 -0.9811 -0.1455
19392TIP3   OH279590   3.205   1.684  14.537  0.1788 -0.4908  0.2543
19392TIP3    H179591   3.261   1.696  14.461  0.4147  0.5898  0.5920
19392TIP3    H279592   3.253   1.623  14.593  0.9185  0.2564  0.4392
19393TIP3   OH279593   0.424   3.278   1.478 -0.0551  0.4855  0.3004
19393TIP3    H179594   0.468   3.350   1.523  1.4722 -1.1245  1.4670
19393TIP3    H279595   0.439   3.295   1.385 -0.3987  2.0875  0.5268
19394TIP3   OH279596   0.799   6.347  13.687  0.1370 -0.1302  0.0890
19394TIP3    H179597   0.770   6.269  13.639 -0.1632 -0.7659  1.2726
19394TIP3    H279598   0.892   6.354  13.668  0.6321 -2.0572  1.7010
19395TIP3   OH279599   1.420   0.232  12.361  0.8733  0.3468 -0.2839
19395TIP3    H179600   1.349   0.167  12.360 -0.5117  1.8235  0.4003
19395TIP3    H279601   1.490   0.190  12.412  0.4905 -1.1069 -0.9262
19396TIP3   OH279602   1.302   3.849   0.209  0.2274  0.2508  0.4520
19396TIP3    H179603   1.235   3.849   0.277  0.6633 -0.1577  0.8935
19396TIP3    H279604   1.256   3.875   0.129 -0.6668 -0.9606  0.5497
19397TIP3   OH279605   5.847   0.806   1.253 -0.0437 -0.0524  0.6183
19397TIP3    H179606   5.770   0.760   1.285 -2.3075  1.9121 -1.7677
19397TIP3    H279607   5.854   0.883   1.310 -0.3227  0.1916  0.3213
19398TIP3   OH279608   5.343   4.070   5.312  0.3926 -0.4396 -0.5093
19398TIP3    H179609   5.262   4.113   5.286  0.4628  0.2685  0.4084
19398TIP3    H279610   5.408   4.140   5.312  1.0402 -1.0194 -1.3332
19399TIP3   OH279611   5.007   5.589   2.233 -0.0833  0.1622  0.1450
19399TIP3    H179612   4.920   5.549   2.240 -0.2619  0.8052  1.8058
19399TIP3    H279613   4.989   5.683   2.221  0.3790  0.1597 -0.6024
19400TIP3   OH279614   4.646   3.545  16.331  0.3250 -0.4268 -0.2292
19400TIP3    H179615   4.680   3.458  16.309  1.4483  0.1267 -0.7720
19400TIP3    H279616   4.680   3.601  16.261  0.8609  0.7147  0.9396
19401TIP3   OH279617   6.380   3.768  12.309 -0.0063  0.5114  0.3939
19401TIP3    H179618   6.359   3.763  12.215 -0.7362 -0.4252  0.5984
19401TIP3    H279619   6.395   3.678  12.335 -0.1412  0.7329  1.2547
19402TIP3   OH279620   6.762   3.499   4.660  0.1900  0.7219  0.5427
19402TIP3    H179621   6.722   3.413   4.646  1.2149  0.3235 -0.0579
19402TIP3    H279622   6.733   3.551   4.585 -1.5983  1.3486  1.6571
19403TIP3   OH279623   1.980   2.700   4.913  0.1640 -0.1995  0.1252
19403TIP3    H179624   1.885   2.688   4.913  0.2546 -0.9347  0.8178
19403TIP3    H279625   1.993   2.788   4.946 -0.2432 -0.3945  0.8140
19404TIP3   OH279626   3.268   4.105   0.778 -0.2377 -0.4763 -0.0163
19404TIP3    H179627   3.346   4.149   0.812  1.6208 -1.3700 -2.9682
19404TIP3    H279628   3.224   4.070   0.856  1.0619  1.9987  1.8832
19405TIP3   OH279629   0.397   4.926  12.034  0.1833  0.4259 -0.3699
19405TIP3    H179630   0.365   4.976  11.959 -0.1149 -0.6186 -0.9472
19405TIP3    H279631   0.488   4.905  12.013 -0.3074 -1.0765 -1.1039
19406TIP3   OH279632   5.698   0.631  12.927 -0.0660 -0.2402  0.4979
19406TIP3    H179633   5.740   0.704  12.881  1.0048  1.0072  3.3193
19406TIP3    H279634   5.677   0.568  12.858  3.2613  0.6475 -1.4439
19407TIP3   OH279635   4.838   5.913   6.147 -0.1966  0.8621 -0.0266
19407TIP3    H179636   4.876   5.826   6.133 -2.5417 -0.0123 -1.0639
19407TIP3    H279637   4.812   5.913   6.239  0.3068  0.6696  0.1197
19408TIP3   OH279638   2.351   1.498  12.166  1.0132 -1.0804  0.0842
19408TIP3    H179639   2.324   1.415  12.206 -0.9026  0.0832  1.2296
19408TIP3    H279640   2.396   1.545  12.236 -0.5815  0.1218  0.3066
19409TIP3   OH279641   0.723   6.675   5.413  0.5042 -0.1196 -0.4480
19409TIP3    H179642   0.706   6.669   5.319  0.8683 -0.8502 -0.4667
19409TIP3    H279643   0.695   6.591   5.448  2.2264 -0.6141 -0.1952
19410TIP3   OH279644   1.716   2.555  10.817  0.3463  0.2669  0.4426
19410TIP3    H179645   1.791   2.501  10.792  0.4558  0.9259 -0.6870
19410TIP3    H279646   1.674   2.507  10.888  1.3615 -0.5166  0.5146
19411TIP3   OH279647   3.728   4.495  12.495  0.3817  0.2398 -0.6518
19411TIP3    H179648   3.713   4.455  12.580  2.1050  1.5323  0.2915
19411TIP3    H279649   3.730   4.421  12.434 -1.6748 -0.6154  0.2822
19412TIP3   OH279650   3.924   3.472   2.400  0.3228  0.2152  0.1586
19412TIP3    H179651   3.886   3.454   2.486  1.2600 -0.7763  0.3794
19412TIP3    H279652   3.849   3.477   2.340 -0.1819 -1.3739  0.6451
19413TIP3   OH279653   2.642   3.239  12.423 -0.4092 -0.5487 -0.2158
19413TIP3    H179654   2.637   3.268  12.332 -2.0894  0.1387  0.0535
19413TIP3    H279655   2.620   3.146  12.421  1.2008 -0.9264 -0.6829
19414TIP3   OH279656   2.365   4.897  16.968 -0.0397  0.0686  0.9742
19414TIP3    H179657   2.404   4.812  16.991  1.0759  0.1664 -0.4558
19414TIP3    H279658   2.420   4.961  17.014 -0.3978  0.0602  1.4172
19415TIP3   OH279659   2.220   0.846  14.634 -0.1505 -0.4472  0.1663
19415TIP3    H179660   2.223   0.937  14.604  0.1097 -0.4075  0.3112
19415TIP3    H279661   2.307   0.829  14.669 -0.5625 -0.3826  1.2378
19416TIP3   OH279662   2.274   5.972   2.053 -0.3886  0.3022  0.0757
19416TIP3    H179663   2.345   5.910   2.070  1.1239  2.6392  2.8711
19416TIP3    H279664   2.272   6.027   2.132 -2.6865  2.8068 -1.6585
19417TIP3   OH279665   1.542   1.351  13.509  0.5479 -0.3577  0.0567
19417TIP3    H179666   1.506   1.426  13.462  0.3141 -0.8512 -0.5643
19417TIP3    H279667   1.475   1.283  13.499  1.2111 -0.9660 -0.2539
19418TIP3   OH279668   4.377   1.875  13.095 -0.2956  0.1381 -0.2557
19418TIP3    H179669   4.310   1.808  13.085 -1.0122  0.8592 -0.3388
19418TIP3    H279670   4.400   1.872  13.188  0.6420 -1.1255 -0.5123
19419TIP3   OH279671   5.217   0.710   0.530  0.2433 -0.3567 -0.4678
19419TIP3    H179672   5.309   0.722   0.556 -0.1519  0.5844  0.5349
19419TIP3    H279673   5.189   0.796   0.500 -0.3524 -0.6096 -0.6451
19420TIP3   OH279674   5.408   3.926  14.474  0.1342  0.3556  0.3701
19420TIP3    H179675   5.417   3.897  14.565 -0.1028  0.0776  0.3059
19420TIP3    H279676   5.380   3.848  14.426 -0.1377  0.5993  0.1296
19421TIP3   OH279677   5.721   1.977   4.884 -0.0071 -0.4216 -0.0292
19421TIP3    H179678   5.724   1.968   4.979  0.9222  2.5724  0.2702
19421TIP3    H279679   5.810   1.955   4.855 -0.1764 -0.9142 -0.1929
19422TIP3   OH279680   0.958   6.725   4.568 -0.3653  0.7391  0.2166
19422TIP3    H179681   0.971   6.777   4.489 -0.5758 -0.3655 -0.5680
19422TIP3    H279682   1.033   6.666   4.571 -0.7778  0.2172  0.3852
19423TIP3   OH279683   5.515   6.776  14.276 -0.0869  0.0088  0.4191
19423TIP3    H179684   5.582   6.708  14.278  0.3719  0.4877  1.7902
19423TIP3    H279685   5.438   6.735  14.315 -0.1484 -0.0819  0.2026
19424TIP3   OH279686   4.877   6.193  11.552 -0.1263  0.7280 -0.3279
19424TIP3    H179687   4.967   6.189  11.585 -0.6018 -0.8169  0.8130
19424TIP3    H279688   4.834   6.118  11.591 -1.2495 -0.0015 -2.8937
19425TIP3   OH279689   4.020   2.836  12.107 -0.7221  0.7549  0.0912
19425TIP3    H179690   3.994   2.899  12.039 -0.5811  1.8717  1.0682
19425TIP3    H279691   4.105   2.866  12.137  0.7506 -1.6248 -1.5111
19426TIP3   OH279692   5.866   3.977  16.461 -0.2310 -0.4786 -0.5247
19426TIP3    H179693   5.911   4.046  16.412  1.3729 -1.5857 -0.6384
19426TIP3    H279694   5.807   3.938  16.397 -0.2401 -0.0372 -0.7950
19427TIP3   OH279695   0.139   4.874  17.020 -0.4166 -0.4215 -0.4836
19427TIP3    H179696   0.167   4.800  17.074  0.1589  0.0804 -0.0888
19427TIP3    H279697   0.046   4.884  17.038  0.0448  0.6251  1.4861
19428TIP3   OH279698   5.439   4.219  11.793 -0.4589 -0.0408 -0.0076
19428TIP3    H179699   5.525   4.181  11.806 -0.3061  0.3129  0.0087
19428TIP3    H279700   5.379   4.161  11.839 -0.1606  0.0544  0.5033
19429TIP3   OH279701   0.443   2.843  15.536  0.0015 -0.1814  0.1187
19429TIP3    H179702   0.432   2.938  15.532 -1.1990 -0.3016  0.4645
19429TIP3    H279703   0.487   2.828  15.620  1.3732  0.1603 -0.5180
19430TIP3   OH279704   3.120   6.602  11.990 -0.2194 -0.8153  0.0630
19430TIP3    H179705   3.158   6.527  12.035 -2.3165 -1.5365  0.7105
19430TIP3    H279706   3.029   6.604  12.019 -0.6438  0.9553 -1.2710
19431TIP3   OH279707   3.751   3.415  11.923  0.0400 -0.0432  0.0758
19431TIP3    H179708   3.812   3.475  11.966  0.3079 -0.5827  0.4512
19431TIP3    H279709   3.679   3.406  11.985  0.6918 -1.2733  0.6871
19432TIP3   OH279710   4.607   4.809  11.980 -0.7052 -0.1074 -0.2677
19432TIP3    H179711   4.543   4.738  11.973 -2.4724  1.4192 -0.2329
19432TIP3    H279712   4.594   4.844  12.069  0.3467  0.0659 -0.1756
19433TIP3   OH279713   6.194   6.715  16.937 -0.1039  0.8104 -0.0985
19433TIP3    H179714   6.254   6.671  16.877 -0.0449  0.6494  0.0770
19433TIP3    H279715   6.192   6.660  17.015  1.9226  2.3771  1.1310
19434TIP3   OH279716   0.392   3.571   4.997  0.2369  0.8751 -0.1219
19434TIP3    H179717   0.302   3.580   4.965 -0.1944 -0.8843  0.5633
19434TIP3    H279718   0.428   3.498   4.947  1.9822  2.8561 -1.8602
19435TIP3   OH279719   4.966   0.092  14.694  0.1094 -0.5561 -0.4280
19435TIP3    H179720   4.925   0.040  14.763 -0.5067  0.9201  0.3495
19435TIP3    H279721   5.055   0.108  14.725  0.7229 -2.2346 -1.2776
19436TIP3   OH279722   5.026   5.853  11.439  0.2684 -0.5590  0.1370
19436TIP3    H179723   4.997   5.761  11.440  0.2357 -0.5510  1.4984
19436TIP3    H279724   5.106   5.853  11.492  0.2429  0.2069  0.1712
19437TIP3   OH279725   1.904   2.469   1.077  0.5081  0.3273  0.4040
19437TIP3    H179726   1.986   2.443   1.035  0.2544 -0.1930  0.2229
19437TIP3    H279727   1.838   2.459   1.009  0.2594  0.5197  0.6162
19438TIP3   OH279728   1.434   2.492   0.804 -0.8265  0.1536 -0.2311
19438TIP3    H179729   1.367   2.559   0.796 -1.3119 -0.3774 -0.6488
19438TIP3    H279730   1.387   2.413   0.829 -0.2884 -0.0923  0.0144
19439TIP3   OH279731   1.224   5.752  13.417 -0.5181  0.3480  0.0152
19439TIP3    H179732   1.185   5.812  13.354 -1.2243  1.0958  1.1501
19439TIP3    H279733   1.155   5.690  13.438  0.0801 -0.6300 -0.8289
19440TIP3   OH279734   3.855   5.350  14.089  0.0148 -0.3145  0.2135
19440TIP3    H179735   3.902   5.306  14.018 -1.5357  0.9112 -1.6608
19440TIP3    H279736   3.764   5.352  14.059 -1.0334 -1.4304  3.1216
19441TIP3   OH279737   4.027   1.979  15.716 -0.0542 -0.1894 -0.0396
19441TIP3    H179738   4.083   1.976  15.794 -2.1693 -0.5757  1.5244
19441TIP3    H279739   3.981   1.895  15.716 -0.3600 -0.0389 -1.5043
19442TIP3   OH279740   2.572   4.599   3.038  0.1118 -0.4589 -0.0826
19442TIP3    H179741   2.605   4.646   2.962 -1.4837 -1.4400 -1.4242
19442TIP3    H279742   2.515   4.662   3.083 -0.5061 -0.4944 -0.8071
19443TIP3   OH279743   1.726   1.940   3.637  0.0522 -0.3272  0.3510
19443TIP3    H179744   1.793   1.913   3.700  0.8409 -1.1414 -0.8379
19443TIP3    H279745   1.729   2.036   3.638  1.5129 -0.3667 -0.0131
19444TIP3   OH279746   0.477   6.091  16.478  0.3520  0.6702 -0.4054
19444TIP3    H179747   0.451   6.182  16.466  1.1460  0.7678 -1.4872
19444TIP3    H279748   0.566   6.087  16.443  0.9001 -0.1823  1.0522
19445TIP3   OH279749   6.478   3.696   2.405  0.8183  0.0164 -0.0475
19445TIP3    H179750   6.398   3.734   2.369  0.3824 -0.8792 -0.0587
19445TIP3    H279751   6.528   3.771   2.437 -0.1388  0.5770  0.1819
19446TIP3   OH279752   4.950   0.172  11.223  0.4351  0.7205 -0.0895
19446TIP3    H179753   4.934   0.081  11.198 -2.2483  0.7742  1.2487
19446TIP3    H279754   4.969   0.216  11.140 -0.4596 -0.6326 -1.0358
19447TIP3   OH279755   4.835   6.735  15.722  0.3195 -0.5790  0.1780
19447TIP3    H179756   4.857   6.680  15.647 -2.6823 -2.0572  0.3259
19447TIP3    H279757   4.794   6.812  15.684 -2.5628 -1.9837  0.2651
19448TIP3   OH279758   3.902   4.117   4.243 -0.0231  0.1135  0.0537
19448TIP3    H179759   3.814   4.089   4.265  0.5907 -1.2569  0.8570
19448TIP3    H279760   3.913   4.200   4.290 -1.3546  1.0013 -1.1850
19449TIP3   OH279761   4.052   6.773  11.470 -0.4751  0.2300  0.5508
19449TIP3    H179762   4.058   6.678  11.471 -2.3996  0.0211 -2.6562
19449TIP3    H279763   3.962   6.792  11.498  0.2393  1.2046  2.3096
19450TIP3   OH279764   3.663   4.369  11.668  0.6091 -0.4043 -0.3595
19450TIP3    H179765   3.730   4.408  11.724 -0.5124 -0.5553  1.1030
19450TIP3    H279766   3.582   4.372  11.719 -0.8207  0.9609 -2.5889
19451TIP3   OH279767   3.160   1.573   1.122  0.4677  0.4392  0.9140
19451TIP3    H179768   3.168   1.666   1.102 -1.5099  0.4209 -0.0741
19451TIP3    H279769   3.246   1.548   1.157  0.8428  2.7456  1.6928
19452TIP3   OH279770   2.947   4.789   3.405 -0.0584  0.0193 -0.0696
19452TIP3    H179771   2.877   4.768   3.343  0.4332 -0.0303 -0.6036
19452TIP3    H279772   2.901   4.799   3.489 -0.8892  1.2931 -0.6473
19453TIP3   OH279773   0.787   0.952  15.259 -0.0430  0.4788 -0.2424
19453TIP3    H179774   0.697   0.984  15.254 -0.3219 -0.1170  0.8259
19453TIP3    H279775   0.839   1.018  15.213 -1.0584  0.6992 -1.0732
19454TIP3   OH279776   0.879   3.400  14.730  0.4818 -0.1290  0.2705
19454TIP3    H179777   0.886   3.496  14.737  1.7849  0.0977 -3.1132
19454TIP3    H279778   0.963   3.373  14.693  0.5374 -2.7609  2.1700
19455TIP3   OH279779   5.530   5.968  15.208  0.1696  0.2202 -0.2146
19455TIP3    H179780   5.625   5.974  15.199  0.2174  0.9854  0.6473
19455TIP3    H279781   5.498   5.961  15.119  1.1634 -2.4116 -0.4128
19456TIP3   OH279782   3.937   4.800   5.846 -0.0483 -0.0264 -0.5362
19456TIP3    H179783   3.896   4.805   5.760  0.4982 -4.0811 -1.1297
19456TIP3    H279784   3.864   4.791   5.907 -0.3163  0.1755 -0.8243
19457TIP3   OH279785   5.630   0.249   4.567 -0.2672 -0.1612 -0.1500
19457TIP3    H179786   5.688   0.298   4.625 -0.9673 -0.1801  0.5816
19457TIP3    H279787   5.640   0.290   4.481 -1.3565  1.6997  0.5839
19458TIP3   OH279788   5.724   3.834   1.503  0.0936 -0.5887 -0.1377
19458TIP3    H179789   5.818   3.855   1.498 -0.4268  1.7328 -0.7913
19458TIP3    H279790   5.687   3.905   1.554 -1.0375 -2.5587  1.8339
19459TIP3   OH279791   0.997   5.406  11.963  0.1670  0.1927  0.0026
19459TIP3    H179792   0.923   5.444  11.915 -0.9902 -2.1718 -0.1851
19459TIP3    H279793   0.975   5.419  12.055 -0.0298  0.3533 -0.0672
19460TIP3   OH279794   1.350   3.490   2.974  0.4700 -0.5683  0.4108
19460TIP3    H179795   1.318   3.404   2.948  1.0505 -1.2699  1.9197
19460TIP3    H279796   1.292   3.517   3.046  1.3968 -0.5366  1.1679
19461TIP3   OH279797   1.665   1.500  10.851 -0.1285  0.6602  0.5387
19461TIP3    H179798   1.573   1.500  10.875  0.0570 -0.9875  1.3412
19461TIP3    H279799   1.703   1.430  10.903  0.9885 -0.7047 -2.0339
19462TIP3   OH279800   6.217   6.517  14.878 -0.1600  0.0052  0.3637
19462TIP3    H179801   6.133   6.471  14.869  0.4375 -0.9749 -0.4535
19462TIP3    H279802   6.262   6.499  14.795  0.0940  2.1016  0.0164
19463TIP3   OH279803   5.000   1.749  13.417  0.0540 -0.2405 -0.0979
19463TIP3    H179804   4.934   1.690  13.379 -0.5008 -0.5325  1.2902
19463TIP3    H279805   5.080   1.729  13.370  0.1283 -2.9122  1.0962
19464TIP3   OH279806   1.655   2.038   4.662  0.0029  0.3638 -0.4920
19464TIP3    H179807   1.582   2.034   4.600 -0.5539 -0.5276  0.1974
19464TIP3    H279808   1.642   2.121   4.709 -0.1959  0.5150 -0.8096
19465TIP3   OH279809   4.025   3.887   0.589 -0.4769 -0.0291 -0.1608
19465TIP3    H179810   3.930   3.896   0.577 -0.2604 -0.1138 -2.0812
19465TIP3    H279811   4.035   3.810   0.645 -1.5222 -0.1924 -0.1915
19466TIP3   OH279812   5.005   4.097   1.797 -0.5439 -0.4593  0.2525
19466TIP3    H179813   5.029   4.007   1.773  0.6467 -0.1244  0.1468
19466TIP3    H279814   4.940   4.123   1.731  0.0858 -0.7922 -0.5124
19467TIP3   OH279815   2.490   3.697  16.478 -0.0859 -0.4554  0.1136
19467TIP3    H179816   2.447   3.674  16.396 -0.2086  1.0939 -0.2579
19467TIP3    H279817   2.577   3.659  16.471 -0.5570 -1.5123 -0.1445
19468TIP3   OH279818   4.711   0.231   0.010 -0.0647  0.8722  0.5213
19468TIP3    H179819   4.639   0.256  -0.047 -0.5153  0.6602  0.9913
19468TIP3    H279820   4.770   0.306   0.009 -0.3329  1.0795  0.1974
19469TIP3   OH279821   3.450   6.533   6.087 -0.0823  0.3176 -0.4505
19469TIP3    H179822   3.483   6.622   6.100  1.0723 -0.0867 -0.5806
19469TIP3    H279823   3.364   6.533   6.128  0.1866  1.3178  0.1226
19470TIP3   OH279824   5.733   6.414  13.272 -0.1979 -0.1022 -0.4763
19470TIP3    H179825   5.667   6.482  13.286 -0.3061 -0.3389  0.1855
19470TIP3    H279826   5.684   6.338  13.242  0.2643  1.0627 -4.4394
19471TIP3   OH279827   2.282   1.379   2.429  0.0744  0.3181 -0.2821
19471TIP3    H179828   2.303   1.382   2.336  2.0808 -1.1923  0.0773
19471TIP3    H279829   2.361   1.412   2.472  0.7079 -2.6947  1.0054
19472TIP3   OH279830   1.442   3.228  11.314  0.2255  0.0595  0.3691
19472TIP3    H179831   1.443   3.252  11.407 -0.7365  1.8048 -0.0493
19472TIP3    H279832   1.441   3.311  11.267  1.7866 -0.7852 -1.2517
19473TIP3   OH279833   2.194   2.686  11.038  0.3555 -0.2157  0.2015
19473TIP3    H179834   2.196   2.595  11.068  0.9019  0.3191  1.8880
19473TIP3    H279835   2.108   2.719  11.066 -0.5222 -0.6791 -1.9000
19474TIP3   OH279836   0.975   0.538   3.305  0.0444  0.2531  0.5315
19474TIP3    H179837   1.029   0.533   3.384 -1.3987 -0.3492  1.5063
19474TIP3    H279838   0.965   0.447   3.278  1.9167  0.5663 -1.3370
19475TIP3   OH279839   4.671   3.833  11.673  0.4543  0.0228  0.1275
19475TIP3    H179840   4.669   3.861  11.764 -0.6809  0.0411  0.1056
19475TIP3    H279841   4.697   3.741  11.677 -0.3160 -0.1889  0.5413
19476TIP3   OH279842   5.194   4.108  16.096  0.6074  0.2895  0.1562
19476TIP3    H179843   5.205   4.176  16.030 -3.5171  2.5946  1.5971
19476TIP3    H279844   5.169   4.030  16.047  2.5785  0.5639 -1.3272
19477TIP3   OH279845   4.962   4.927   0.905 -0.2307  0.5512  0.1460
19477TIP3    H179846   4.969   4.998   0.969  4.3640 -0.3189  0.7682
19477TIP3    H279847   4.989   4.966   0.822 -1.8712  0.5451 -0.4170
19478TIP3   OH279848   2.112   2.306  16.776  0.3647  0.4983  0.9045
19478TIP3    H179849   2.150   2.370  16.836 -0.0307  0.8632  0.7669
19478TIP3    H279850   2.168   2.310  16.699  1.0931 -0.2393  1.3927
19479TIP3   OH279851   2.170   6.147  13.695 -0.1373 -0.5539  0.4711
19479TIP3    H179852   2.092   6.199  13.674 -0.2018 -0.6949  0.3543
19479TIP3    H279853   2.135   6.064  13.729 -0.0315 -0.2161  1.4183
19480TIP3   OH279854   3.042   3.985  12.280 -0.3570 -0.1538 -0.3691
19480TIP3    H179855   2.972   3.920  12.288 -2.1378  1.6493 -0.7983
19480TIP3    H279856   3.077   3.972  12.191 -1.1110 -0.1383 -0.6710
19481TIP3   OH279857   1.902   0.899  16.251 -0.4460 -0.9268 -0.2640
19481TIP3    H179858   1.932   0.898  16.160 -2.4786  0.2263 -0.9750
19481TIP3    H279859   1.981   0.917  16.302  0.5530 -0.6533 -1.8745
19482TIP3   OH279860   6.544   2.127   2.348 -0.3233 -0.1225 -0.0309
19482TIP3    H179861   6.554   2.167   2.435  0.0217 -1.8638  0.7606
19482TIP3    H279862   6.466   2.168   2.312 -1.2536 -0.3320  1.6679
19483TIP3   OH279863   3.850   1.568  13.405 -0.3514  0.1062 -0.7483
19483TIP3    H179864   3.885   1.506  13.342 -0.5103 -0.6784 -0.0637
19483TIP3    H279865   3.757   1.576  13.382 -0.9210 -1.8876  0.7687
19484TIP3   OH279866   0.078   4.147   2.642  0.6992 -0.4827  0.1405
19484TIP3    H179867   0.123   4.114   2.719  0.3418  0.6889  0.8535
19484TIP3    H279868   0.074   4.242   2.654 -0.7197 -0.4359 -0.5732
19485TIP3   OH279869   0.074   3.821   1.775 -0.1717 -0.3676 -0.1426
19485TIP3    H179870   0.096   3.799   1.865 -1.0793  0.2742  0.2525
19485TIP3    H279871   0.131   3.894   1.753  1.2177 -1.5804 -0.6681
19486TIP3   OH279872   3.146   3.955   5.396 -0.4083 -0.1125  0.8713
19486TIP3    H179873   3.202   3.927   5.468  0.0835  0.1505  0.5918
19486TIP3    H279874   3.206   3.989   5.330 -0.8510 -0.3807  0.3219
19487TIP3   OH279875   3.223   0.591  15.337  0.3157 -0.1225  0.3883
19487TIP3    H179876   3.236   0.617  15.429 -2.2757 -0.5864  0.9218
19487TIP3    H279877   3.213   0.496  15.342  0.1679 -0.1426 -0.3957
19488TIP3   OH279878   0.121   6.452   4.645 -0.3061 -0.1375  0.4690
19488TIP3    H179879   0.077   6.469   4.561  0.4546 -1.2306 -0.1584
19488TIP3    H279880   0.191   6.517   4.649  1.1767 -1.6152 -0.8743
19489TIP3   OH279881   0.769   3.107  15.329 -0.5021  0.3231  0.3541
19489TIP3    H179882   0.809   3.022  15.346  0.4976  0.7690  0.2385
19489TIP3    H279883   0.777   3.119  15.235  0.6211  1.1729  0.5553
19490TIP3   OH279884   3.233   3.293   0.647 -0.2152  0.2759 -0.4515
19490TIP3    H179885   3.220   3.367   0.587  1.9729 -0.6169 -2.1341
19490TIP3    H279886   3.230   3.216   0.590  0.8250 -0.6634  0.7347
19491TIP3   OH279887   1.786   0.617   3.565  0.1172  0.1091  0.1684
19491TIP3    H179888   1.831   0.658   3.639  0.3703 -0.1101  0.1365
19491TIP3    H279889   1.848   0.623   3.492  0.9427 -2.0718  0.6568
19492TIP3   OH279890   2.154   4.030  12.542 -0.6709  0.3670  0.3236
19492TIP3    H179891   2.114   4.030  12.455 -0.7451  0.6739  0.3590
19492TIP3    H279892   2.248   4.036  12.525 -0.6326 -0.3642  0.2399
19493TIP3   OH279893   1.642   4.395  16.259 -0.0772 -0.0465 -0.4221
19493TIP3    H179894   1.593   4.319  16.226  0.3123 -0.6346  0.3298
19493TIP3    H279895   1.586   4.470  16.239 -1.1134 -0.6741  0.0712
19494TIP3   OH279896   3.591   6.278  15.940  0.3286 -0.2380  0.0736
19494TIP3    H179897   3.540   6.261  16.019  0.7261 -1.2554  0.1155
19494TIP3    H279898   3.615   6.371  15.947 -0.3458 -0.0997  0.7209
19495TIP3   OH279899   2.784   3.277  14.054  0.2270 -0.0664  0.4639
19495TIP3    H179900   2.742   3.295  13.970 -2.3775  1.2073  1.9874
19495TIP3    H279901   2.826   3.359  14.078  2.3942 -0.9038 -0.3306
19496TIP3   OH279902   6.080   1.583  14.001  0.1181  0.2289  0.7393
19496TIP3    H179903   5.997   1.577  14.047 -0.6070  0.4929 -0.5013
19496TIP3    H279904   6.080   1.508  13.941  0.9831 -0.0330  1.0481
19497TIP3   OH279905   1.635   3.376   0.284  0.6742  0.3869 -0.0394
19497TIP3    H179906   1.545   3.355   0.260  0.3401  0.3893  1.2148
19497TIP3    H279907   1.653   3.459   0.240 -0.2015  0.7982  0.3735
19498TIP3   OH279908   0.641   4.906   1.836  0.6821 -0.7233 -0.3786
19498TIP3    H179909   0.567   4.950   1.877  0.3577 -4.5816  3.6039
19498TIP3    H279910   0.616   4.897   1.744 -2.3689  0.8957  0.2402
19499TIP3   OH279911   5.318   4.328  11.351 -0.1381  0.0221  0.4199
19499TIP3    H179912   5.326   4.419  11.381 -1.5941 -0.2228  1.6093
19499TIP3    H279913   5.347   4.275  11.425  0.1018 -0.5002 -0.0432
19500TIP3   OH279914   0.231   6.725  13.092  0.4803  0.0282 -0.3692
19500TIP3    H179915   0.299   6.660  13.110 -0.6309 -1.3455 -1.0278
19500TIP3    H279916   0.212   6.714  12.999 -1.2644 -0.2242 -0.0063
19501TIP3   OH279917   5.591   0.070  12.979  0.4033  0.4086  0.2067
19501TIP3    H179918   5.669   0.103  13.024  0.6887 -0.8818  0.6930
19501TIP3    H279919   5.580   0.128  12.903  0.4630  2.0370  1.4153
19502TIP3   OH279920   6.570   6.698  15.534  0.5408 -0.2366 -0.7983
19502TIP3    H179921   6.528   6.776  15.571  0.8692  0.4138 -1.8013
19502TIP3    H279922   6.588   6.721  15.443  2.5887 -0.7045 -0.5421
19503TIP3   OH279923   3.936   0.129   5.774  0.3300  0.1029 -0.2242
19503TIP3    H179924   3.959   0.168   5.858 -0.5109  0.8681 -0.3402
19503TIP3    H279925   3.993   0.053   5.766 -0.3740 -0.6415  1.5680
19504TIP3   OH279926   3.894   4.667  16.669 -0.6569 -0.5382  0.5723
19504TIP3    H179927   3.887   4.719  16.589 -0.2899 -0.6959  0.4347
19504TIP3    H279928   3.970   4.610  16.654  0.3130  0.4512  1.6170
19505TIP3   OH279929   5.386   2.501  15.274  0.4557  0.7974 -0.3641
19505TIP3    H179930   5.379   2.503  15.370  0.3599  0.7841 -0.3700
19505TIP3    H279931   5.450   2.569  15.254  1.2150  0.1253 -0.2259
19506TIP3   OH279932   2.620   6.363  13.484 -0.4364 -0.6185  0.0347
19506TIP3    H179933   2.564   6.339  13.558 -1.0528  0.9368  0.0908
19506TIP3    H279934   2.566   6.348  13.407 -0.9462  0.8569  0.0883
19507TIP3   OH279935   0.498   4.694   3.257  0.3551 -0.0862 -0.6785
19507TIP3    H179936   0.509   4.601   3.275 -0.8445 -0.2105 -0.5613
19507TIP3    H279937   0.410   4.702   3.221  1.1320  0.7574 -2.4716
19508TIP3   OH279938   4.982   5.406  10.763  0.0222  0.5110 -0.0230
19508TIP3    H179939   4.919   5.340  10.792 -0.1483  0.7813  0.2319
19508TIP3    H279940   5.018   5.441  10.844 -0.3472  1.1706 -0.1385
19509TIP3   OH279941   2.455   4.309   4.279  0.6278 -0.1468  0.1070
19509TIP3    H179942   2.380   4.291   4.334  1.2939 -0.4940  0.9096
19509TIP3    H279943   2.476   4.225   4.238 -0.1570  0.2139 -1.0467
19510TIP3   OH279944   3.851   3.917  16.682 -0.9057  0.3666  0.2396
19510TIP3    H179945   3.943   3.940  16.692 -0.6078 -0.9627  0.6168
19510TIP3    H279946   3.804   3.996  16.708  0.0991  0.6194  1.3383
19511TIP3   OH279947   0.352   1.243   5.144 -0.3039  0.1494  0.0888
19511TIP3    H179948   0.408   1.173   5.176 -0.9625  0.0409  1.0268
19511TIP3    H279949   0.411   1.316   5.129  0.3103 -0.4336 -0.3961
19512TIP3   OH279950   6.495   5.408  15.209 -0.2818  0.5050 -0.3518
19512TIP3    H179951   6.400   5.419  15.216 -0.1534  0.2348  2.3529
19512TIP3    H279952   6.506   5.325  15.162 -1.4364 -1.0695  2.0721
19513TIP3   OH279953   1.495   0.548  16.288  0.4245 -0.2069  0.1607
19513TIP3    H179954   1.567   0.612  16.289 -0.6020  0.9735  0.4783
19513TIP3    H279955   1.460   0.551  16.377  0.3189 -1.1660  0.1525
19514TIP3   OH279956   2.433   4.323   1.298  0.7027  0.1927  0.8544
19514TIP3    H179957   2.393   4.236   1.293 -0.6101  0.7695  1.1899
19514TIP3    H279958   2.524   4.306   1.322  0.9489 -1.1956 -0.9630
19515TIP3   OH279959   1.167   2.754   0.531 -0.2284 -0.2086 -0.1639
19515TIP3    H179960   1.157   2.843   0.498  0.6927 -0.7762 -2.0383
19515TIP3    H279961   1.084   2.711   0.508 -0.0779 -0.2568 -0.6158
19516TIP3   OH279962   3.511   3.653  10.500 -0.4329 -0.3947 -0.7986
19516TIP3    H179963   3.480   3.608  10.421 -2.5852 -0.9170  0.2826
19516TIP3    H279964   3.437   3.707  10.527 -0.0316 -0.8186  1.2861
19517TIP3   OH279965   3.192   4.848   2.395 -0.7528 -0.0294  0.6522
19517TIP3    H179966   3.269   4.811   2.354 -0.5164  0.6656  0.4572
19517TIP3    H279967   3.120   4.789   2.370 -0.2112 -0.9654  1.2691
19518TIP3   OH279968   0.065   4.685  12.911 -0.0529 -0.1984 -0.3146
19518TIP3    H179969   0.097   4.716  12.826 -0.8637  0.3274 -0.4357
19518TIP3    H279970   0.005   4.754  12.940 -1.3803 -1.3539 -0.2711
19519TIP3   OH279971   5.028   3.959   2.157  0.1164  0.2991 -0.2658
19519TIP3    H179972   4.960   4.020   2.185 -0.4658 -1.4900  2.4837
19519TIP3    H279973   5.099   3.972   2.220 -0.1916 -2.0911  0.6498
19520TIP3   OH279974   2.492   0.289  15.762 -0.0914 -0.6798 -0.1369
19520TIP3    H179975   2.428   0.228  15.725 -1.4835  0.6783 -0.0069
19520TIP3    H279976   2.577   0.250  15.741 -0.9401 -2.3564 -0.5757
19521TIP3   OH279977   1.692   3.776   5.359 -0.1135 -0.5569 -0.4470
19521TIP3    H179978   1.725   3.730   5.282  1.9703 -1.0571  0.7048
19521TIP3    H279979   1.651   3.708   5.412  1.8835 -0.8915  0.6839
19522TIP3   OH279980   0.155   2.714  13.520  0.3854 -0.5519 -0.4822
19522TIP3    H179981   0.141   2.624  13.551 -1.4338  0.2477  1.1038
19522TIP3    H279982   0.153   2.767  13.599  0.3216  1.0211 -1.5163
19523TIP3   OH279983   6.183   2.828   4.858 -0.6295 -0.0408 -0.2435
19523TIP3    H179984   6.263   2.873   4.830 -0.8175  0.6324  0.2965
19523TIP3    H279985   6.119   2.898   4.869 -1.3964 -0.6181 -1.0216
19524TIP3   OH279986   1.495   2.926  15.222 -0.2700 -0.3115 -0.2418
19524TIP3    H179987   1.466   2.987  15.154 -0.2862 -1.7473 -1.5480
19524TIP3    H279988   1.493   2.840  15.180  2.6479 -0.8846  0.6680
19525TIP3   OH279989   1.613   3.967  15.724 -0.4178 -0.9363  0.7908
19525TIP3    H179990   1.673   4.036  15.699 -0.3335 -0.9096  1.0603
19525TIP3    H279991   1.533   4.012  15.751 -0.6082 -0.9791  0.2941
19526TIP3   OH279992   1.632   2.662  13.739  0.3569  0.1821 -0.5452
19526TIP3    H179993   1.572   2.690  13.670 -0.0180 -0.9592 -0.6956
19526TIP3    H279994   1.719   2.677  13.703  0.1656 -0.8025 -1.4398
19527TIP3   OH279995   1.043   3.962  11.200  0.1715 -0.1368 -0.2223
19527TIP3    H179996   1.025   4.056  11.204 -1.4659 -0.4346 -0.0793
19527TIP3    H279997   1.050   3.943  11.107  1.4850  0.2822 -0.2264
19528TIP3   OH279998   2.450   3.469   2.361 -0.0490 -0.2710  0.2282
19528TIP3    H179999   2.452   3.383   2.318 -1.0984  0.3431 -1.1239
19528TIP3    H280000   2.362   3.474   2.398  0.9945 -0.9732  2.9152
19529TIP3   OH280001   5.306   4.628  11.238  0.4400 -0.2055 -0.3382
19529TIP3    H180002   5.251   4.706  11.245  0.7305 -0.1531  1.5312
19529TIP3    H280003   5.332   4.625  11.146 -0.1895  1.4633 -0.5824
19530TIP3   OH280004   0.242   5.592  17.005  0.3444  0.4270 -0.0164
19530TIP3    H180005   0.212   5.549  17.086  2.5305 -1.7635 -0.3067
19530TIP3    H280006   0.200   5.541  16.936 -0.2968  1.3296 -0.2849
19531TIP3   OH280007   2.664   4.708   2.819  0.0126  0.1996 -0.1184
19531TIP3    H180008   2.629   4.664   2.741 -0.1814  1.2880 -0.6448
19531TIP3    H280009   2.759   4.697   2.811 -0.0669 -0.6764  0.0799
19532TIP3   OH280010   0.041   2.776   4.798  0.0370  0.7118 -0.1324
19532TIP3    H180011   0.070   2.742   4.882  0.6944  0.8102 -0.3123
19532TIP3    H280012   0.018   2.699   4.747  2.4851  0.4314 -0.8924
19533TIP3   OH280013   0.287   3.891   2.854 -0.0476 -0.4081 -0.5878
19533TIP3    H180014   0.259   3.977   2.885 -0.0821 -0.9994  1.0879
19533TIP3    H280015   0.355   3.909   2.789 -2.3144  0.9547 -2.6607
19534TIP3   OH280016   3.983   1.771   2.637 -0.1446  0.2140  0.3533
19534TIP3    H180017   3.915   1.837   2.626 -1.0138 -0.4146  1.7114
19534TIP3    H280018   4.007   1.778   2.730 -1.0640 -2.1015  0.8073
19535TIP3   OH280019   0.191   6.214  14.846  0.3731 -0.3749 -0.1315
19535TIP3    H180020   0.259   6.279  14.862  0.0704 -0.7121  2.7417
19535TIP3    H280021   0.109   6.264  14.849  0.3310 -0.3533 -1.3036
19536TIP3   OH280022   3.568   5.311  15.121  0.5970  0.0865 -0.5579
19536TIP3    H180023   3.536   5.222  15.129  1.1965 -0.2029 -1.3149
19536TIP3    H280024   3.663   5.304  15.126  0.5823  0.9361  1.6050
19537TIP3   OH280025   5.452   3.453   5.267  0.5034 -0.3376 -0.2740
19537TIP3    H180026   5.386   3.428   5.332  0.5473  0.8021  0.2332
19537TIP3    H280027   5.532   3.467   5.318  0.7842 -0.3806 -0.7024
19538TIP3   OH280028   2.112   1.434  12.365  0.1197 -0.1493 -0.0664
19538TIP3    H180029   2.178   1.366  12.353  1.5012  1.1179  0.2673
19538TIP3    H280030   2.063   1.406  12.443 -0.1430 -1.4048 -0.6736
19539TIP3   OH280031   1.347   3.284   3.424 -0.1236  0.6714 -0.0683
19539TIP3    H180032   1.290   3.338   3.479 -1.1095  2.1061 -2.4182
19539TIP3    H280033   1.290   3.213   3.393  0.2198  0.3050  0.1407
19540TIP3   OH280034   5.205   5.936   3.178  0.2841 -0.3798 -0.3677
19540TIP3    H180035   5.246   5.954   3.093  0.1225  0.9120 -0.1931
19540TIP3    H280036   5.114   5.915   3.156 -0.0481  1.0694 -0.4519
19541TIP3   OH280037   6.537   4.755  13.254 -0.0875 -0.1306  0.9110
19541TIP3    H180038   6.589   4.760  13.333  0.3227  0.2658  0.6183
19541TIP3    H280039   6.446   4.764  13.284  0.0350 -0.4551  1.3795
19542TIP3   OH280040   4.337   1.964  12.012  0.0079 -0.2131  0.2067
19542TIP3    H180041   4.292   1.884  12.038  0.5117 -0.5037  0.2003
19542TIP3    H280042   4.430   1.946  12.029 -0.2186  1.9648  4.4741
19543TIP3   OH280043   5.799   4.021   2.353 -0.0580 -0.2149 -0.2438
19543TIP3    H180044   5.765   3.959   2.418 -0.2129 -1.7299 -1.7282
19543TIP3    H280045   5.892   4.029   2.374 -0.4837  0.7494  1.3004
19544TIP3   OH280046   0.375   1.547  12.033 -0.4679  0.4006  0.2092
19544TIP3    H180047   0.300   1.522  12.086  0.5861 -0.6277  1.2318
19544TIP3    H280048   0.451   1.515  12.081  0.5875  0.6103 -1.2716
19545TIP3   OH280049   6.668   1.410   5.918  0.7739 -0.3973 -0.3550
19545TIP3    H180050   6.619   1.399   5.999 -1.7518 -1.5353 -1.9604
19545TIP3    H280051   6.749   1.361   5.931  0.5039 -0.3709  1.5342
19546TIP3   OH280052   6.646   3.313   0.914  0.0149  0.3161 -0.8868
19546TIP3    H180053   6.641   3.396   0.868 -1.1801  1.0229  0.4560
19546TIP3    H280054   6.669   3.337   1.004  3.6470 -1.1318 -1.3662
19547TIP3   OH280055   2.140   3.301   1.635  0.1639 -0.4450  0.4664
19547TIP3    H180056   2.129   3.391   1.603  0.1826 -0.3835  0.6346
19547TIP3    H280057   2.113   3.304   1.727 -1.5690 -0.9810  0.0033
19548TIP3   OH280058   5.117   2.008  14.417  0.6162 -0.5966  0.1869
19548TIP3    H180059   5.126   2.049  14.331  1.4339  0.3564  0.7177
19548TIP3    H280060   5.070   1.926  14.400  1.3068 -0.7085 -1.2566
19549TIP3   OH280061   5.359   2.599   4.733  0.1224 -0.0039  0.4411
19549TIP3    H180062   5.305   2.562   4.664  2.0132 -0.0598 -1.0533
19549TIP3    H280063   5.297   2.639   4.793 -1.6722 -1.6159 -0.2842
19550TIP3   OH280064   1.746   4.059   5.379  0.2385  0.6723 -0.0135
19550TIP3    H180065   1.827   4.066   5.328 -0.8364 -1.0398 -2.0090
19550TIP3    H280066   1.742   3.968   5.407  0.2319  1.3216  2.2678
19551TIP3   OH280067   5.615   2.903   5.435 -0.7749 -0.5181 -0.7423
19551TIP3    H180068   5.667   2.966   5.485 -1.2817 -1.8060  1.4974
19551TIP3    H280069   5.645   2.913   5.345  2.5883 -0.4424  0.3119
19552TIP3   OH280070   2.911   4.679   3.009  0.0452  0.2398  0.3767
19552TIP3    H180071   2.952   4.686   2.922  0.2126 -0.8762  0.3654
19552TIP3    H280072   2.964   4.614   3.055 -1.5875 -1.0452  0.4481
19553TIP3   OH280073   5.558   0.998   5.047  0.2114 -0.0927  0.0923
19553TIP3    H180074   5.544   1.074   5.104  1.0713 -0.4778  0.8468
19553TIP3    H280075   5.559   1.034   4.958 -0.7208  0.5818  0.3490
19554TIP3   OH280076   2.259   3.783   2.367  0.0783 -0.0175  0.5016
19554TIP3    H180077   2.209   3.704   2.347 -1.4662  1.0040  0.2687
19554TIP3    H280078   2.235   3.845   2.298  1.7685  0.4512  0.3187
19555TIP3   OH280079   2.452   6.254  13.003  0.6102 -0.0922 -0.8694
19555TIP3    H180080   2.399   6.334  12.996 -0.8720 -1.1104 -1.4345
19555TIP3    H280081   2.538   6.285  13.032 -0.3416  1.5676  0.2700
19556TIP3   OH280082   5.385   6.731  11.529  0.2979  0.1348 -0.1206
19556TIP3    H180083   5.478   6.750  11.518 -0.0931  0.9057 -2.2265
19556TIP3    H280084   5.342   6.779  11.459 -1.6795 -0.3947  0.7015
19557TIP3   OH280085   2.717   0.321   0.743  0.0643  0.1539 -0.1809
19557TIP3    H180086   2.791   0.382   0.740  0.4173 -0.2325  0.4646
19557TIP3    H280087   2.640   0.377   0.745  0.3241  0.5599 -1.1325
19558TIP3   OH280088   0.637   5.355  13.876  0.0383  0.1206  0.0851
19558TIP3    H180089   0.658   5.270  13.838  0.1238  0.5156 -0.7786
19558TIP3    H280090   0.616   5.410  13.800  0.3180  0.9619  0.6119
19559TIP3   OH280091   1.232   6.284  11.924  0.7467 -0.4329 -0.5250
19559TIP3    H180092   1.163   6.340  11.959  1.3674 -0.1297  0.2242
19559TIP3    H280093   1.204   6.195  11.945  0.8614 -0.2810  0.2956
19560TIP3   OH280094   0.916   4.081   2.590  0.1102 -0.4951 -0.1993
19560TIP3    H180095   0.918   4.162   2.639 -0.4610 -1.3825  1.3158
19560TIP3    H280096   0.825   4.070   2.564 -0.0795 -1.3278  0.7751
19561TIP3   OH280097   3.752   2.785   3.806 -0.5661 -0.4551  0.5823
19561TIP3    H180098   3.689   2.846   3.768  0.6594  1.5950  1.7578
19561TIP3    H280099   3.726   2.776   3.897  0.6919  0.2468  1.0270
19562TIP3   OH280100   1.022   0.642  15.575 -0.3081 -0.1911  0.3497
19562TIP3    H180101   1.058   0.637  15.664  0.7480  0.3741 -0.0352
19562TIP3    H280102   1.077   0.583  15.523  0.3973  1.0563 -0.3455
19563TIP3   OH280103   4.559   4.386  12.085 -0.0518 -0.4045  0.1058
19563TIP3    H180104   4.629   4.400  12.020  0.5295 -1.7767  0.4127
19563TIP3    H280105   4.601   4.335  12.154 -0.7374  0.8378  1.4546
19564TIP3   OH280106   5.374   0.215  15.364 -0.2947  0.3356 -0.2450
19564TIP3    H180107   5.353   0.307  15.378  0.5315  0.6055 -0.7263
19564TIP3    H280108   5.445   0.217  15.300 -0.6429 -0.6539 -0.6661
19565TIP3   OH280109   3.374   6.109  11.538  0.3186  0.2027  0.3577
19565TIP3    H180110   3.323   6.082  11.462  0.3644  1.0641  0.0181
19565TIP3    H280111   3.464   6.115  11.506  0.8049 -2.2462  1.1837
19566TIP3   OH280112   5.103   4.346  12.405 -0.1730  0.4497 -0.0207
19566TIP3    H180113   5.170   4.339  12.474 -0.0050 -0.9423 -0.3028
19566TIP3    H280114   5.078   4.438  12.405  1.4480  0.9093  0.3813
19567TIP3   OH280115   4.386   1.469  15.684  0.2009  0.1951 -0.2134
19567TIP3    H180116   4.348   1.391  15.724 -1.4775  1.1705  0.1321
19567TIP3    H280117   4.477   1.446  15.667  0.2305 -1.1652  1.6961
19568TIP3   OH280118   4.537   4.198  16.113  0.1205 -0.0803 -0.0806
19568TIP3    H180119   4.551   4.109  16.081 -0.6033  0.9365 -3.4115
19568TIP3    H280120   4.452   4.195  16.156  0.7366 -1.2917  1.0879
19569TIP3   OH280121   3.607   3.242  12.367 -0.3869  0.6082  0.4043
19569TIP3    H180122   3.604   3.175  12.299 -4.2996  1.4351 -0.3696
19569TIP3    H280123   3.632   3.195  12.447 -0.5887 -1.2791 -0.6226
19570TIP3   OH280124   3.490   5.802   2.704  0.2591  0.6425  0.0949
19570TIP3    H180125   3.444   5.874   2.662  1.1024  1.2075  0.1239
19570TIP3    H280126   3.580   5.834   2.716 -0.1752  0.8997  3.2213
19571TIP3   OH280127   5.888   2.850   3.514  0.0664 -0.1303 -0.0925
19571TIP3    H180128   5.973   2.885   3.542 -0.1673  0.5741 -0.2590
19571TIP3    H280129   5.854   2.916   3.453 -0.4480 -0.5734 -0.2877
19572TIP3   OH280130   5.640   3.119   5.133 -0.2818 -0.1739 -0.1344
19572TIP3    H180131   5.664   3.151   5.046  1.1142  0.0968  0.3476
19572TIP3    H280132   5.641   3.197   5.188  3.5810 -1.0224  1.1511
19573TIP3   OH280133   5.321   1.792  14.149 -0.0796  0.5739 -0.7681
19573TIP3    H180134   5.295   1.802  14.057  0.0624 -0.2418 -0.9005
19573TIP3    H280135   5.386   1.861  14.164  0.8276 -0.1026 -1.6302
19574TIP3   OH280136   3.743   0.272  16.605  0.1096 -0.5622 -0.0578
19574TIP3    H180137   3.753   0.324  16.526 -0.5748 -0.3694 -0.0127
19574TIP3    H280138   3.806   0.310  16.667 -0.5852  0.3847  0.0671
19575TIP3   OH280139   4.609   6.685   1.071 -0.3669 -0.4281 -0.3443
19575TIP3    H180140   4.558   6.658   1.147  0.3174 -1.1905 -0.1488
19575TIP3    H280141   4.544   6.717   1.009 -0.8920  0.7066  0.7522
19576TIP3   OH280142   0.522   3.459   1.176 -0.1902  1.0116 -0.3342
19576TIP3    H180143   0.433   3.433   1.155 -0.1221  0.4941  0.0098
19576TIP3    H280144   0.514   3.518   1.250 -0.1752  0.2160  0.3035
19577TIP3   OH280145   0.516   5.250  13.486 -0.5370  0.5645 -0.4682
19577TIP3    H180146   0.543   5.323  13.540 -0.7631  1.3198 -1.3634
19577TIP3    H280147   0.590   5.189  13.489 -0.1353  1.0668 -0.1507
19578TIP3   OH280148   2.097   0.527   4.656 -0.0276  0.2653 -0.1264
19578TIP3    H180149   2.122   0.605   4.705 -0.1011  0.1814  0.0432
19578TIP3    H280150   2.160   0.460   4.683  0.8569  0.6262 -1.2633
19579TIP3   OH280151   0.932   2.872  10.584  0.7838 -0.3244 -0.0207
19579TIP3    H180152   0.951   2.948  10.529 -0.3134 -0.8288 -1.1120
19579TIP3    H280153   0.995   2.878  10.656  1.2953  1.1207 -0.5751
19580TIP3   OH280154   5.517   5.608   3.595  0.2158  0.1898  0.4083
19580TIP3    H180155   5.508   5.698   3.627 -2.0332 -0.2726  1.1832
19580TIP3    H280156   5.588   5.612   3.531  0.0193  2.5490  0.2984
19581TIP3   OH280157   0.709   2.418   3.383 -0.1853  0.4883  0.3299
19581TIP3    H180158   0.731   2.510   3.372 -1.6977  0.8229  0.0449
19581TIP3    H280159   0.775   2.384   3.443  0.1586  1.8413  0.7225
19582TIP3   OH280160   4.175   6.649   1.400 -0.1594 -0.1729  0.2172
19582TIP3    H180161   4.143   6.737   1.418 -0.8331 -0.0207 -1.6403
19582TIP3    H280162   4.229   6.627   1.476  1.0815  2.3595  0.1053
19583TIP3   OH280163   6.215   0.253   0.056 -0.1761 -0.3570  0.0557
19583TIP3    H180164   6.223   0.164   0.091 -2.3710 -0.5514  0.1150
19583TIP3    H280165   6.175   0.241  -0.030  1.4611  0.4445 -0.8440
19584TIP3   OH280166   0.479   6.021  12.300 -0.9556 -0.0386 -0.2869
19584TIP3    H180167   0.562   5.986  12.266 -1.7870 -1.1142 -1.2421
19584TIP3    H280168   0.469   6.105  12.254  0.0107  0.4872  0.4541
19585TIP3   OH280169   4.450   3.587   3.235 -0.9123 -0.0201  0.1296
19585TIP3    H180170   4.531   3.579   3.284 -1.0326 -1.8613  0.0651
19585TIP3    H280171   4.462   3.530   3.160 -1.9343  0.3789 -0.3438
19586TIP3   OH280172   0.378   5.072   5.499  0.1222  0.7262  0.0382
19586TIP3    H180173   0.357   5.006   5.433  0.5970  1.2565 -0.6614
19586TIP3    H280174   0.338   5.040   5.580 -0.4019  0.0268 -0.4939
19587TIP3   OH280175   6.303   4.417   3.649  0.6642  0.2855  0.1288
19587TIP3    H180176   6.361   4.341   3.651 -0.8823 -0.9232 -0.7143
19587TIP3    H280177   6.331   4.466   3.572  1.0373  0.0741  0.1283
19588TIP3   OH280178   2.496   2.959  16.840  0.2106  0.0086 -0.6602
19588TIP3    H180179   2.515   2.971  16.747 -3.0112  0.1183 -1.3583
19588TIP3    H280180   2.514   2.867  16.856  2.2756  0.3380 -1.0054
19589TIP3   OH280181   2.665   5.924   2.015 -0.0933 -0.2230  0.2503
19589TIP3    H180182   2.682   5.987   2.085  0.4757  0.3595 -0.4152
19589TIP3    H280183   2.740   5.865   2.017 -0.0143 -0.1260  0.0308
19590TIP3   OH280184   5.531   6.114  16.769  0.4532  0.5398  0.3913
19590TIP3    H180185   5.480   6.045  16.811  0.0911  0.0256 -0.8568
19590TIP3    H280186   5.473   6.190  16.769 -0.4839 -0.1210 -1.2861
19591TIP3   OH280187   1.717   3.060   3.264 -0.9287 -0.2999  0.2617
19591TIP3    H180188   1.724   3.088   3.355 -0.7481  1.3612 -0.2416
19591TIP3    H280189   1.631   3.090   3.236 -0.7954 -0.3929 -0.2551
19592TIP3   OH280190   3.580   1.978  16.692  0.1379  0.0814 -0.0637
19592TIP3    H180191   3.654   1.980  16.753 -0.7731  0.7348  1.0326
19592TIP3    H280192   3.565   2.069  16.669 -1.1151  0.0736  0.6871
19593TIP3   OH280193   4.190   2.752   1.225 -0.2722 -0.1236 -0.3913
19593TIP3    H180194   4.216   2.844   1.225  0.9988 -0.4670 -0.9366
19593TIP3    H280195   4.135   2.742   1.303 -0.4191  1.0901 -0.3331
19594TIP3   OH280196   3.386   0.793   0.301  0.0447 -0.2619 -0.4147
19594TIP3    H180197   3.470   0.752   0.284  0.6868  0.4267  1.0374
19594TIP3    H280198   3.346   0.804   0.215  1.4493 -0.5643 -1.1059
19595TIP3   OH280199   6.715   6.603   0.088  0.3813 -0.3296 -0.1452
19595TIP3    H180200   6.624   6.579   0.106  0.3908 -0.2508  0.0078
19595TIP3    H280201   6.764   6.522   0.102  0.7466  0.3527  2.7985
19596TIP3   OH280202   1.441   2.010  10.881 -1.0071 -0.1117 -0.4244
19596TIP3    H180203   1.501   1.999  10.807 -0.2910 -1.3872  0.3101
19596TIP3    H280204   1.423   1.921  10.911 -2.1746  0.3299  0.2385
19597TIP3   OH280205   6.608   4.990   5.763  0.2438 -0.1419  0.6993
19597TIP3    H180206   6.538   4.930   5.788 -0.2818 -0.2893 -1.0682
19597TIP3    H280207   6.570   5.077   5.773  0.7347 -0.1055  2.4455
19598TIP3   OH280208   1.483   6.224  16.739  0.3327 -0.8170 -0.0724
19598TIP3    H180209   1.469   6.317  16.754  1.1029 -0.4769 -1.4206
19598TIP3    H280210   1.452   6.182  16.819 -1.6531  0.4612 -0.1461
19599TIP3   OH280211   0.951   5.704  12.222  0.1625 -0.2550  0.5051
19599TIP3    H180212   0.939   5.773  12.287 -1.0389 -0.3826  0.4255
19599TIP3    H280213   1.046   5.692  12.217  0.3499  1.0161  0.9012
19600TIP3   OH280214   2.004   1.808  14.783 -0.9495  0.0399 -0.1027
19600TIP3    H180215   2.031   1.754  14.709 -1.0333  1.2055 -0.9970
19600TIP3    H280216   1.913   1.782  14.801 -0.8398 -0.4321 -0.2186
19601TIP3   OH280217   4.071   2.762  11.080 -0.1345 -0.3652  0.0801
19601TIP3    H180218   4.004   2.695  11.093  0.7031 -0.9817  1.2894
19601TIP3    H280219   4.036   2.816  11.009 -1.2635 -1.5030 -0.2666
19602TIP3   OH280220   1.750   6.682   0.911 -0.6390 -0.6677 -0.2881
19602TIP3    H180221   1.789   6.763   0.945  1.1288 -0.7855 -1.9635
19602TIP3    H280222   1.813   6.614   0.935  0.0512 -0.9169 -2.7118
19603TIP3   OH280223   4.580   0.765   6.003  0.3031 -0.2008 -0.0497
19603TIP3    H180224   4.642   0.779   6.075  2.1475  0.9191 -1.7723
19603TIP3    H280225   4.603   0.679   5.968  1.0949  0.3188 -0.8432
19604TIP3   OH280226   5.419   0.050   2.081  0.0322  0.1849  0.3950
19604TIP3    H180227   5.492  -0.001   2.046 -0.8369  0.1776 -1.4770
19604TIP3    H280228   5.385   0.097   2.005 -0.9269  1.4058  1.5615
19605TIP3   OH280229   1.393   2.719  16.849 -0.1461  0.3109  0.0972
19605TIP3    H180230   1.393   2.683  16.760 -0.8109  0.9144 -0.1567
19605TIP3    H280231   1.346   2.654  16.901 -0.4008  0.2973 -0.1468
19606TIP3   OH280232   6.066   3.303   5.894  0.0126 -0.5306 -0.4845
19606TIP3    H180233   6.035   3.362   5.826  0.3934  0.5718  0.2892
19606TIP3    H280234   6.000   3.234   5.898 -1.1224  0.5587 -0.4569
19607TIP3   OH280235   5.118   5.490   4.894  0.1093 -0.1332  0.7360
19607TIP3    H180236   5.096   5.450   4.978 -0.2800 -3.1851 -0.7412
19607TIP3    H280237   5.202   5.532   4.909 -0.2064 -0.1773  2.7890
19608TIP3   OH280238   5.972   2.331  12.493  0.0682 -0.5095  0.1539
19608TIP3    H180239   6.003   2.242  12.477 -0.1346 -0.4675 -0.5005
19608TIP3    H280240   6.034   2.368  12.557  0.9432 -0.6625 -0.5956
19609TIP3   OH280241   6.213   6.776  13.601 -0.5026 -0.7959 -0.2226
19609TIP3    H180242   6.304   6.767  13.630 -0.2534  0.6330 -0.5305
19609TIP3    H280243   6.219   6.803  13.510 -1.2426 -0.8909 -0.3014
19610TIP3   OH280244   0.979   2.231  16.146 -0.1469 -0.6773 -0.7398
19610TIP3    H180245   1.021   2.309  16.110  2.4895 -0.4490  2.5342
19610TIP3    H280246   1.029   2.158  16.109  0.2612 -0.6061 -0.3314
19611TIP3   OH280247   5.724   2.371  12.653 -0.2806  0.0882  0.1339
19611TIP3    H180248   5.789   2.400  12.589 -1.5885  0.1086 -1.1976
19611TIP3    H280249   5.723   2.276  12.645 -0.6035  0.1057 -0.0235
19612TIP3   OH280250   0.693   4.204   0.180  0.5440  0.1867  0.0397
19612TIP3    H180251   0.714   4.275   0.120  1.6694 -0.8782 -0.8589
19612TIP3    H280252   0.749   4.219   0.256 -0.0277  0.8735  0.3323
19613TIP3   OH280253   0.590   6.460   2.355 -0.1893 -0.7884  0.1240
19613TIP3    H180254   0.602   6.378   2.404 -0.8810 -0.2278  1.2437
19613TIP3    H280255   0.573   6.432   2.265 -0.8058 -1.8820  0.5754
19614TIP3   OH280256   0.114   5.591  15.174  0.2024  0.3256  0.0630
19614TIP3    H180257   0.040   5.629  15.222 -0.5403 -1.3739  0.2976
19614TIP3    H280258   0.174   5.561  15.241  0.0340 -0.3660 -0.0927
19615TIP3   OH280259   3.927   3.581  12.080  0.4983  0.5307 -0.1561
19615TIP3    H180260   3.953   3.664  12.122 -0.2288  0.1359  1.1039
19615TIP3    H280261   3.943   3.515  12.147  0.0336 -0.2202 -0.7832
19616TIP3   OH280262   6.552   4.081  14.093 -1.4951  0.1734 -0.0060
19616TIP3    H180263   6.647   4.076  14.102 -1.3817  1.9672 -0.0852
19616TIP3    H280264   6.521   3.992  14.114  0.1069 -0.1732  0.9608
19617TIP3   OH280265   6.075   0.959   2.608  0.1018 -0.0877 -0.1405
19617TIP3    H180266   6.000   1.018   2.607  0.5307  0.4632  0.3811
19617TIP3    H280267   6.095   0.947   2.701  1.6446  0.9998 -0.3309
19618TIP3   OH280268   6.367   1.322   3.807  0.1739 -0.3146  0.1122
19618TIP3    H180269   6.382   1.234   3.842 -1.3097 -0.5400  0.2029
19618TIP3    H280270   6.293   1.356   3.857 -0.2690  0.3916 -0.9958
19619TIP3   OH280271   5.487   4.863   5.938 -0.2535 -0.0169 -0.0638
19619TIP3    H180272   5.474   4.912   5.858 -1.8089 -0.7590 -0.2729
19619TIP3    H280273   5.450   4.918   6.007 -1.6368 -0.7055 -0.2479
19620TIP3   OH280274   3.870   0.796   6.007 -0.0535  0.2187  0.4663
19620TIP3    H180275   3.809   0.729   5.976  1.1049 -1.8217  2.4426
19620TIP3    H280276   3.818   0.876   6.010 -1.7142 -0.7664 -1.1287
19621TIP3   OH280277   5.655   3.116  15.460 -0.6439 -0.3898  0.1713
19621TIP3    H180278   5.585   3.061  15.496 -0.8672 -0.5410 -0.4789
19621TIP3    H280279   5.631   3.129  15.368  0.7729 -1.4144 -0.3686
19622TIP3   OH280280   1.519   0.528  15.336 -0.1043 -0.2798  0.6432
19622TIP3    H180281   1.429   0.532  15.303  0.0810 -1.6661 -0.0680
19622TIP3    H280282   1.549   0.440  15.312  1.8509  0.6024 -0.2116
19623TIP3   OH280283   4.544   0.529  17.075  0.0197  0.0124 -0.0996
19623TIP3    H180284   4.570   0.540  17.167 -0.1461 -1.0129  0.0792
19623TIP3    H280285   4.448   0.532  17.077 -0.0767 -2.2872  0.0918
19624TIP3   OH280286   0.153   4.837   0.767 -0.5349  0.4371 -0.3314
19624TIP3    H180287   0.058   4.824   0.775 -0.4811  1.1299  1.6698
19624TIP3    H280288   0.188   4.749   0.753 -1.2666 -0.1329  1.2566
19625TIP3   OH280289   3.698   6.128  15.111 -0.2546 -0.2012  0.1307
19625TIP3    H180290   3.717   6.069  15.039 -1.0180 -1.8503  1.2507
19625TIP3    H280291   3.764   6.106  15.178  0.2845  1.1291  0.0652
19626TIP3   OH280292   0.537   1.095  16.931  0.3973 -0.4467 -0.1651
19626TIP3    H180293   0.573   1.029  16.991  2.0113  1.2721  0.7958
19626TIP3    H280294   0.614   1.136  16.892 -0.6106  0.5519 -1.1193
19627TIP3   OH280295   0.474   4.076   4.427 -0.3519 -0.2904  0.8301
19627TIP3    H180296   0.463   4.086   4.521 -0.0011 -0.0354  0.8425
19627TIP3    H280297   0.468   3.982   4.412 -0.3224 -0.3377  1.1147
19628TIP3   OH280298   5.157   0.123  16.554 -0.8972 -0.2809 -0.3116
19628TIP3    H180299   5.163   0.105  16.460 -0.3242  1.3267 -0.5883
19628TIP3    H280300   5.075   0.080  16.581 -1.6475  0.2093 -1.7656
19629TIP3   OH280301   3.331   2.901   3.076 -0.6507  0.1985 -0.1525
19629TIP3    H180302   3.340   2.907   3.171 -1.0909 -0.1687 -0.0905
19629TIP3    H280303   3.237   2.911   3.059 -0.5605  0.3889 -0.5562
19630TIP3   OH280304   1.128   0.774   4.185  0.3744  0.1582  0.0598
19630TIP3    H180305   1.125   0.807   4.095  1.2847  0.0571 -0.0091
19630TIP3    H280306   1.209   0.723   4.190  0.5501  0.5127  1.0590
19631TIP3   OH280307   3.565   4.074  16.176  0.8423  0.3928  0.5008
19631TIP3    H180308   3.541   4.115  16.092  2.5321  2.7413  1.1177
19631TIP3    H280309   3.512   3.994  16.179 -1.9396  2.0628 -1.1724
19632TIP3   OH280310   2.635   6.292   2.819 -0.0598 -0.0047 -0.4945
19632TIP3    H180311   2.645   6.375   2.866  0.7024 -0.0294 -0.6085
19632TIP3    H280312   2.541   6.280   2.813 -0.1935 -0.6301  2.1392
19633TIP3   OH280313   1.355   5.445   1.870 -0.0309 -0.3359 -0.1316
19633TIP3    H180314   1.317   5.450   1.783  0.3701  2.5622 -0.1705
19633TIP3    H280315   1.346   5.533   1.906 -1.5683 -1.8058  3.3617
19634TIP3   OH280316   1.831   0.579  13.498 -0.4893 -0.4711 -0.1263
19634TIP3    H180317   1.846   0.551  13.588 -2.4393  0.5570  0.5355
19634TIP3    H280318   1.912   0.557  13.453  0.9316 -0.0391  2.1169
19635TIP3   OH280319   6.089   3.019  14.727 -0.0427 -0.5098  0.0087
19635TIP3    H180320   6.042   3.063  14.798 -0.7270 -1.0322 -0.1108
19635TIP3    H280321   6.175   3.060  14.726  0.0252 -0.5990  1.2315
19636TIP3   OH280322   4.511   2.433   4.355 -0.1898  0.1821 -0.5268
19636TIP3    H180323   4.441   2.498   4.356 -0.2034  0.1489  1.1784
19636TIP3    H280324   4.581   2.472   4.408  0.3289 -0.6172 -0.6069
19637TIP3   OH280325   6.489   2.312  13.760  0.5178  0.0789 -0.2558
19637TIP3    H180326   6.542   2.273  13.830 -0.3964  0.0069  0.3946
19637TIP3    H280327   6.452   2.390  13.800 -0.6195 -0.3725 -0.4237
19638TIP3   OH280328   0.032   0.515  13.577 -0.7261  0.1358  0.3303
19638TIP3    H180329   0.050   0.433  13.532 -1.7923  0.3238 -0.4590
19638TIP3    H280330   0.111   0.532  13.629 -0.7663 -1.7441  1.0545
19639TIP3   OH280331   6.393   3.166   2.480 -0.1237  0.2032 -0.2288
19639TIP3    H180332   6.455   3.118   2.534 -1.7327  0.3207  1.7750
19639TIP3    H280333   6.432   3.253   2.470  0.2440  0.1380  0.6355
19640TIP3   OH280334   0.692   5.783  12.617 -0.1009 -0.2531  0.1411
19640TIP3    H180335   0.782   5.814  12.620 -0.4258  0.6385  1.1890
19640TIP3    H280336   0.692   5.702  12.668  0.0577 -0.1060  0.3773
19641TIP3   OH280337   6.669   2.997   3.515 -0.2757  0.1793 -0.6247
19641TIP3    H180338   6.715   3.015   3.597 -4.2133  0.8609  1.5757
19641TIP3    H280339   6.691   3.072   3.459  1.5482  0.2893  0.2000
19642TIP3   OH280340   4.255   5.381  16.583  0.2285  0.1440  0.4226
19642TIP3    H180341   4.345   5.384  16.553  0.7537 -1.3370  1.7377
19642TIP3    H280342   4.226   5.292  16.563 -0.8422  0.5138  0.2695
19643TIP3   OH280343   1.705   2.900   5.192  0.1419 -0.2267  0.0703
19643TIP3    H180344   1.681   2.860   5.276 -1.5561 -1.4660 -0.9727
19643TIP3    H280345   1.628   2.950   5.166  0.8819  0.6479 -0.4861
19644TIP3   OH280346   0.001   1.277   4.060  0.1763  0.0580 -0.2847
19644TIP3    H180347   0.025   1.280   3.967  0.8022  1.6283 -0.0954
19644TIP3    H280348   0.082   1.303   4.105 -0.3897  0.1854  0.6519
19645TIP3   OH280349   5.124   5.122   6.638  0.0831  0.6855  0.0256
19645TIP3    H180350   5.058   5.082   6.694 -0.2441  0.6370 -0.3980
19645TIP3    H280351   5.086   5.206   6.611  0.2058  0.6712 -0.1945
19646TIP3   OH280352   2.844   4.315  14.968  0.3292 -0.0566  0.0139
19646TIP3    H180353   2.865   4.221  14.974  0.2191 -0.0312  0.9060
19646TIP3    H280354   2.755   4.318  14.933  1.1254 -0.2155 -2.1376
19647TIP3   OH280355   6.516   0.179  15.005  0.5283 -0.2299 -0.0406
19647TIP3    H180356   6.610   0.158  15.009  0.5452 -0.0011  1.0991
19647TIP3    H280357   6.503   0.213  14.917  1.1130 -2.1240 -0.8665
19648TIP3   OH280358   1.458   5.140   3.672  0.2636 -0.1473 -0.3351
19648TIP3    H180359   1.376   5.094   3.690  0.1211  0.2288 -0.0118
19648TIP3    H280360   1.521   5.071   3.651 -0.1066 -0.4448 -0.4716
19649TIP3   OH280361   5.086   6.362   2.751  0.1617 -0.2522  0.6411
19649TIP3    H180362   5.031   6.306   2.805  0.6807 -1.2780  0.1380
19649TIP3    H280363   5.173   6.355   2.790 -0.0856  1.4825  1.5237
19650TIP3   OH280364   2.967   4.361   5.656  0.4365  0.3247  0.2793
19650TIP3    H180365   2.888   4.339   5.705  0.2410  1.7547  0.6004
19650TIP3    H280366   2.995   4.277   5.618 -0.3715 -0.4759  1.4049
19651TIP3   OH280367   0.235   1.850  11.956  0.2152 -0.0722 -0.3509
19651TIP3    H180368   0.291   1.799  11.898  1.7482  1.0402  0.1141
19651TIP3    H280369   0.241   1.940  11.923 -0.5342  0.2261  0.2838
19652TIP3   OH280370   1.845   1.805   3.036  0.2949  0.4046  0.5769
19652TIP3    H180371   1.870   1.797   2.944 -1.1938  2.3784 -0.0268
19652TIP3    H280372   1.925   1.832   3.080  0.8543  0.0759 -0.2284
19653TIP3   OH280373   4.954   1.325  16.473 -0.0440 -0.1304 -0.2912
19653TIP3    H180374   4.941   1.398  16.535  1.2390  0.0192 -0.1852
19653TIP3    H280375   5.012   1.265  16.519  0.3808 -0.3387 -1.0882
19654TIP3   OH280376   1.342   0.476  15.590 -0.7299 -0.3092 -0.3097
19654TIP3    H180377   1.417   0.526  15.559  0.2860 -1.6588 -0.0607
19654TIP3    H280378   1.362   0.457  15.682 -1.6870 -0.0986 -0.0488
19655TIP3   OH280379   2.164   0.597  14.778 -0.2833 -0.1643  0.0079
19655TIP3    H180380   2.074   0.575  14.799 -0.3711  0.1907  0.0045
19655TIP3    H280381   2.159   0.683  14.738  0.2093  0.5316  1.3869
19656TIP3   OH280382   3.908   5.999  12.777 -0.2077 -0.9340  0.1644
19656TIP3    H180383   3.867   5.928  12.827 -1.2506 -1.5371 -1.5233
19656TIP3    H280384   3.997   5.967  12.761  0.1346 -0.7369  1.6207
19657TIP3   OH280385   6.151   0.793   3.272  0.0811  0.3267 -0.1002
19657TIP3    H180386   6.239   0.761   3.251 -0.1643  0.3466 -1.1502
19657TIP3    H280387   6.156   0.888   3.261 -0.3265  0.2355 -1.0855
19658TIP3   OH280388   6.248   4.528  16.229  0.5557  0.1842  0.0716
19658TIP3    H180389   6.327   4.555  16.277  0.3842 -0.8941  0.9754
19658TIP3    H280390   6.261   4.562  16.141  1.3582  1.2920  0.6024
19659TIP3   OH280391   5.474   0.078  12.680  0.2722 -0.1161 -0.1724
19659TIP3    H180392   5.414   0.023  12.732  0.2307  0.1512  0.0634
19659TIP3    H280393   5.481   0.159  12.730  1.4620 -0.4397  0.2153
19660TIP3   OH280394   5.987   6.182   0.804 -0.1178  0.0281 -0.1796
19660TIP3    H180395   5.938   6.219   0.877  1.0883  0.2509  0.5254
19660TIP3    H280396   6.071   6.228   0.805  0.9440 -1.8538 -0.0507
19661TIP3   OH280397   0.946   4.481   3.766  0.1192 -0.1841  1.0010
19661TIP3    H180398   0.993   4.438   3.695  0.2516 -0.4292  1.2320
19661TIP3    H280399   0.926   4.569   3.733 -1.5489 -0.9377 -0.0784
19662TIP3   OH280400   0.022   6.263  12.228  0.6288  0.0921  0.0393
19662TIP3    H180401  -0.019   6.273  12.142  0.7740 -0.0779 -0.0513
19662TIP3    H280402   0.084   6.191  12.216 -0.8306 -1.3207  0.8394
19663TIP3   OH280403   4.821   5.048   2.867  0.1170 -0.1375  0.2331
19663TIP3    H180404   4.765   5.037   2.944 -0.3780  0.7850  0.0128
19663TIP3    H280405   4.774   5.110   2.812 -0.1788 -1.8001 -1.4412
19664TIP3   OH280406   6.663   0.601   1.613 -0.4067  0.2535  0.3990
19664TIP3    H180407   6.589   0.540   1.619 -0.2827  0.1269  0.6926
19664TIP3    H280408   6.654   0.642   1.527  0.8306 -1.8706 -0.7793
19665TIP3   OH280409   2.695   4.590  10.851 -0.4483 -0.0453  0.1168
19665TIP3    H180410   2.644   4.529  10.797 -0.8370  1.2732 -1.0289
19665TIP3    H280411   2.716   4.663  10.793 -0.0020  0.9402  1.4708
19666TIP3   OH280412   1.639   5.000   0.568 -0.1684 -0.3235 -0.3769
19666TIP3    H180413   1.654   5.081   0.616 -2.7647 -1.3501  2.2773
19666TIP3    H280414   1.545   4.997   0.553 -0.0723 -2.6404 -0.8226
19667TIP3   OH280415   3.296   0.553   2.801 -0.6424 -0.1812 -0.3954
19667TIP3    H180416   3.324   0.591   2.884 -3.0562  2.4972 -0.7302
19667TIP3    H280417   3.208   0.519   2.819 -0.9614 -0.0719 -1.7189
19668TIP3   OH280418   5.619   3.917  10.855 -0.0629 -0.4536  0.5629
19668TIP3    H180419   5.558   3.936  10.927 -0.9213 -1.5951  0.1574
19668TIP3    H280420   5.684   3.987  10.860  0.2253 -0.8282  2.8158
19669TIP3   OH280421   5.479   3.962   1.178 -0.5149 -0.0800 -0.2215
19669TIP3    H180422   5.447   3.965   1.088 -0.1896 -1.2037 -0.3859
19669TIP3    H280423   5.513   4.050   1.194 -2.5648  0.7905 -0.4361
19670TIP3   OH280424   6.747   2.388   3.563  0.3256 -0.3989  0.2666
19670TIP3    H180425   6.742   2.431   3.648 -0.0315 -1.4737  0.8004
19670TIP3    H280426   6.828   2.337   3.567  1.0128  0.6007 -0.5497
19671TIP3   OH280427   0.195   0.974  12.172  0.5421 -0.0463  0.2861
19671TIP3    H180428   0.264   1.033  12.143 -0.6899  1.7038  0.8091
19671TIP3    H280429   0.230   0.886  12.158  2.2427  0.8084 -0.9246
19672TIP3   OH280430   2.240   2.013   5.809 -0.1130 -0.0136  0.1699
19672TIP3    H180431   2.197   2.096   5.826 -0.5466 -0.2572  0.2750
19672TIP3    H280432   2.256   1.976   5.896  0.1413 -0.0059  0.1259
19673TIP3   OH280433   4.159   1.803  11.166  0.1578 -0.1687  0.3768
19673TIP3    H180434   4.126   1.725  11.120 -3.5696  1.4612  0.0634
19673TIP3    H280435   4.141   1.784  11.259 -1.4575  0.5789  0.2353
19674TIP3   OH280436   6.198   0.326  12.163 -0.4553 -0.0556 -0.1378
19674TIP3    H180437   6.158   0.362  12.083  0.3608  3.0620  0.7772
19674TIP3    H280438   6.290   0.349  12.155 -0.3332  0.0978  1.6138
19675TIP3   OH280439   0.911   0.362  14.523  0.2861 -0.6234 -0.0475
19675TIP3    H180440   0.868   0.279  14.509 -1.4382  0.5110 -1.6427
19675TIP3    H280441   0.943   0.388  14.437 -0.2302  0.9054  0.1977
19676TIP3   OH280442   6.469   5.707   5.140 -0.4611  0.2522  0.2562
19676TIP3    H180443   6.425   5.635   5.095 -2.3162 -0.0715  2.5024
19676TIP3    H280444   6.399   5.767   5.164  0.7866  1.5867  0.5797
19677TIP3   OH280445   3.021   1.462  15.938  0.3268  0.1981  0.0009
19677TIP3    H180446   3.103   1.429  15.901  0.3322  0.0036  0.1824
19677TIP3    H280447   3.013   1.551  15.904  1.4361  0.8135  1.2741
19678TIP3   OH280448   6.408   4.267  13.935 -0.0811 -0.2061 -0.2914
19678TIP3    H180449   6.455   4.195  13.977  1.2908  0.7651 -0.1506
19678TIP3    H280450   6.455   4.346  13.961 -0.1845  0.5528 -2.3231
19679TIP3   OH280451   1.555   6.682   5.517  0.2676 -0.0158  0.0680
19679TIP3    H180452   1.466   6.679   5.481 -0.6023 -1.5762  2.2555
19679TIP3    H280453   1.556   6.759   5.574 -0.0419 -0.6491  0.9337
19680TIP3   OH280454   5.082   3.138  11.869  0.2085 -0.0277 -0.0016
19680TIP3    H180455   5.021   3.072  11.838 -1.7076  1.9143 -0.5335
19680TIP3    H280456   5.084   3.126  11.964 -2.0224  0.6634  0.1737
19681TIP3   OH280457   3.144   1.752   0.008 -0.1071 -0.2277 -0.1568
19681TIP3    H180458   3.106   1.839   0.016 -0.8549 -0.5643  0.0109
19681TIP3    H280459   3.213   1.762  -0.057  0.4464  0.6935  0.5652
19682TIP3   OH280460   6.411   6.488   0.175 -0.1448  0.4823 -0.4353
19682TIP3    H180461   6.367   6.483   0.261 -1.3063  1.8203 -0.9236
19682TIP3    H280462   6.415   6.398   0.145  0.7042 -0.0584  1.2416
19683TIP3   OH280463   4.217   1.028   5.248  0.1653 -0.5915  0.3457
19683TIP3    H180464   4.294   1.016   5.192  0.0613 -0.5791  0.2016
19683TIP3    H280465   4.143   1.029   5.188  0.1412  0.4068  0.3815
19684TIP3   OH280466   2.374   2.486  14.462 -0.4321  0.0815 -0.4536
19684TIP3    H180467   2.339   2.402  14.490  1.6064 -1.4329 -2.2436
19684TIP3    H280468   2.352   2.491  14.369  1.4339  0.4650 -0.8927
19685TIP3   OH280469   4.746   0.520   3.321  0.3166 -0.3012 -0.1054
19685TIP3    H180470   4.739   0.473   3.404  0.7680 -0.8532 -0.3754
19685TIP3    H280471   4.815   0.474   3.273 -0.6950 -0.6565 -1.2320
19686TIP3   OH280472   4.345   0.133  13.292  0.5013 -0.0239  0.2010
19686TIP3    H180473   4.330   0.186  13.370  0.9909 -1.6031  1.3778
19686TIP3    H280474   4.314   0.046  13.315 -3.0778  0.3638 -2.7306
19687TIP3   OH280475   5.722   2.990   0.086 -0.0830  0.3668  0.5560
19687TIP3    H180476   5.670   2.930   0.033  0.8243  0.7961 -0.8466
19687TIP3    H280477   5.805   2.944   0.099 -0.0894  0.5113  1.1068
19688TIP3   OH280478   3.900   6.729   3.721  0.1363 -0.3916  0.9533
19688TIP3    H180479   3.843   6.652   3.711  2.7915 -2.3586  0.2788
19688TIP3    H280480   3.873   6.788   3.651 -0.5708 -1.6021  0.1891
19689TIP3   OH280481   1.420   4.869   1.161  0.0010 -0.3802  0.4796
19689TIP3    H180482   1.343   4.861   1.105 -1.3416  1.9567  1.9218
19689TIP3    H280483   1.491   4.890   1.101 -1.2191  1.1088 -0.4676
19690TIP3   OH280484   3.480   2.598   5.146 -0.0103  0.2741  0.3613
19690TIP3    H180485   3.525   2.682   5.154  1.1652 -0.3522  0.4257
19690TIP3    H280486   3.513   2.546   5.220 -0.6429 -0.2863  0.2568
19691TIP3   OH280487   6.655   1.489   4.180  0.1615 -0.2077 -0.2399
19691TIP3    H180488   6.721   1.430   4.145  0.6776  0.6461 -0.7468
19691TIP3    H280489   6.590   1.432   4.220  0.7181 -1.1034 -0.5915
19692TIP3   OH280490   4.151   0.527   3.437 -0.5662  0.5749 -0.1442
19692TIP3    H180491   4.106   0.470   3.499  0.5320 -1.2565 -0.9732
19692TIP3    H280492   4.237   0.542   3.476  0.3212 -1.0151 -1.4189
19693TIP3   OH280493   5.906   0.525   4.389 -0.2662  0.5217  0.1225
19693TIP3    H180494   5.899   0.560   4.478 -1.0758 -0.6895  0.5408
19693TIP3    H280495   5.991   0.556   4.358 -0.3894  1.7412  0.9697
19694TIP3   OH280496   0.325   1.875   3.058 -0.1269  0.1596 -0.3131
19694TIP3    H180497   0.281   1.816   2.996  0.7980 -0.4929 -0.3488
19694TIP3    H280498   0.360   1.945   3.003  1.4163 -0.8538 -0.6352
19695TIP3   OH280499   1.371   1.621  12.145 -0.4612  0.7292 -0.1625
19695TIP3    H180500   1.441   1.645  12.084 -0.4855  0.6559 -0.2193
19695TIP3    H280501   1.300   1.590  12.088  0.4161 -1.6988  0.0140
19696TIP3   OH280502   0.135   4.474   5.135  0.3029  0.0652  0.0333
19696TIP3    H180503   0.150   4.425   5.054 -0.8313 -0.3446  0.0621
19696TIP3    H280504   0.040   4.476   5.144  0.4313  0.0535  1.3970
19697TIP3   OH280505   5.262   5.915   5.672  0.0234  0.3775 -0.2062
19697TIP3    H180506   5.251   5.932   5.765 -0.0370 -1.1814  0.0862
19697TIP3    H280507   5.346   5.869   5.666 -1.0501 -1.5401 -0.6551
19698TIP3   OH280508   6.414   1.693   1.744 -0.5818  0.3472  0.2247
19698TIP3    H180509   6.391   1.601   1.733 -1.2301  0.7145 -1.8503
19698TIP3    H280510   6.497   1.692   1.790  0.7641 -1.4118 -2.1127
19699TIP3   OH280511   4.740   4.560   0.053 -0.5679 -0.0674 -0.0556
19699TIP3    H180512   4.655   4.587   0.018 -0.0454 -0.6555 -1.7910
19699TIP3    H280513   4.745   4.605   0.138 -1.1774  2.6473 -1.3848
19700TIP3   OH280514   5.955   1.085  14.799  0.0757 -0.2805 -0.1582
19700TIP3    H180515   5.925   1.113  14.886  2.5208 -0.4729  0.8057
19700TIP3    H280516   5.898   1.131  14.738 -2.8159 -1.4450  1.5535
19701TIP3   OH280517   1.832   0.578  11.143  0.2092  0.5562  0.3705
19701TIP3    H180518   1.919   0.574  11.103 -0.1764 -0.2647 -0.4118
19701TIP3    H280519   1.772   0.569  11.069 -0.5160 -1.3043  1.1767
19702TIP3   OH280520   2.247   3.814   5.115 -0.2226 -0.1695  0.4468
19702TIP3    H180521   2.288   3.740   5.072 -0.3196  0.3632 -0.5638
19702TIP3    H280522   2.154   3.791   5.120  0.0296 -0.9685  1.9096
19703TIP3   OH280523   2.542   3.385   4.424 -0.0288 -0.8927 -0.2068
19703TIP3    H180524   2.605   3.331   4.472 -0.5291 -0.4829  0.9292
19703TIP3    H280525   2.457   3.346   4.444 -0.4057  0.3720  0.7182
19704TIP3   OH280526   6.471   5.426  12.967 -0.3809 -0.3838  0.3133
19704TIP3    H180527   6.443   5.423  13.059 -0.1063 -3.2687  0.3644
19704TIP3    H280528   6.414   5.364  12.923  0.4526 -0.1052 -1.1816
19705TIP3   OH280529   2.811   4.724  16.018 -0.3936  0.2567 -0.3445
19705TIP3    H180530   2.787   4.683  15.934 -0.0608  0.6752 -0.6484
19705TIP3    H280531   2.881   4.669  16.053  1.0502  1.3512 -1.4391
19706TIP3   OH280532   1.759   4.709  15.933 -0.3327  0.1546  0.7868
19706TIP3    H180533   1.832   4.684  15.876  0.7950 -0.9305  2.6998
19706TIP3    H280534   1.690   4.646  15.913  0.0342 -0.1899  0.6110
19707TIP3   OH280535   2.355   2.536  11.741  0.0022 -0.8778 -1.1478
19707TIP3    H180536   2.375   2.490  11.660  2.2139  0.6086 -1.4729
19707TIP3    H280537   2.367   2.628  11.720  0.2409 -0.4538  0.7743
19708TIP3   OH280538   1.489   0.362   0.725 -0.2898  0.5426  0.0016
19708TIP3    H180539   1.472   0.339   0.634  1.0710 -0.7138  0.0574
19708TIP3    H280540   1.442   0.297   0.776 -2.1043  1.9900  0.2423
19709TIP3   OH280541   1.755   1.247  14.344  0.2940  0.0470  0.6649
19709TIP3    H180542   1.685   1.211  14.398  0.1310  0.0297  0.4435
19709TIP3    H280543   1.711   1.311  14.288  0.0966 -1.3836 -0.8653
19710TIP3   OH280544   2.539   2.791  11.352 -0.6071  0.5431  0.2760
19710TIP3    H180545   2.523   2.876  11.393 -1.8494  0.8571 -0.8359
19710TIP3    H280546   2.501   2.799  11.265 -0.2100 -0.9656 -0.0425
19711TIP3   OH280547   2.711   6.708   3.447  0.3919  0.3997  0.2516
19711TIP3    H180548   2.735   6.616   3.444  1.4031  0.6267  1.0159
19711TIP3    H280549   2.630   6.714   3.395  0.1969 -0.9443  0.3836
19712TIP3   OH280550   6.492   5.629   1.613  0.0257  0.3571 -0.0904
19712TIP3    H180551   6.530   5.674   1.688 -3.5805  1.5279  1.0962
19712TIP3    H280552   6.411   5.676   1.594 -0.6035 -1.7014 -2.9138
19713TIP3   OH280553   1.774   2.997   4.714  0.1519  0.9753  0.1509
19713TIP3    H180554   1.846   3.011   4.652  1.3338 -1.6043  0.8273
19713TIP3    H280555   1.788   3.062   4.783  1.7683  0.6444  0.1662
19714TIP3   OH280556   5.360   4.188  12.283  0.1490  0.1088 -0.7358
19714TIP3    H180557   5.372   4.094  12.268  0.1685  0.1965 -1.3144
19714TIP3    H280558   5.339   4.195  12.376 -1.6826 -0.6466 -1.0570
19715TIP3   OH280559   3.884   6.628  15.461  0.6543 -0.0559 -0.1282
19715TIP3    H180560   3.808   6.575  15.484  0.0145  0.7269 -0.4003
19715TIP3    H280561   3.893   6.689  15.534  0.8696  0.0182 -0.2185
19716TIP3   OH280562   0.825   4.879  11.912 -0.4787  0.5059  0.0264
19716TIP3    H180563   0.896   4.868  11.976 -0.8739 -0.6864  0.2845
19716TIP3    H280564   0.867   4.918  11.836  0.6445 -0.8907 -0.1034
19717TIP3   OH280565   1.405   5.917  11.991  0.9804  0.2148 -0.9110
19717TIP3    H180566   1.380   5.826  12.009 -0.4027  0.3363 -2.1520
19717TIP3    H280567   1.323   5.961  11.969  1.8546  1.3844 -1.9289
19718TIP3   OH280568   3.016   4.231   0.370  0.1626  0.1499  0.2311
19718TIP3    H180569   2.958   4.307   0.378 -0.0381 -0.0083  0.2710
19718TIP3    H280570   2.977   4.179   0.300  0.0544 -0.1411  0.5080
19719TIP3   OH280571   4.376   3.898   2.523 -0.0380 -0.3034 -0.2079
19719TIP3    H180572   4.464   3.931   2.507  0.9911 -3.0864 -0.5224
19719TIP3    H280573   4.325   3.929   2.448  0.9475  0.2961 -0.6359
19720TIP3   OH280574   5.200   0.064  14.360  0.1862 -0.1597  0.4373
19720TIP3    H180575   5.115   0.097  14.331  0.6673  1.1196  0.4243
19720TIP3    H280576   5.263   0.103  14.300  0.8316 -0.6748  0.7687
19721TIP3   OH280577   1.092   6.654  12.777 -0.0671 -0.7411 -0.6056
19721TIP3    H180578   1.084   6.740  12.818  1.2212 -0.9822  0.2050
19721TIP3    H280579   1.130   6.672  12.691 -1.3408 -0.3670 -1.0957
19722TIP3   OH280580   6.103   6.125  12.012 -0.4730 -0.5005 -0.6984
19722TIP3    H180581   6.100   6.122  11.917  0.5184 -0.4560 -0.7374
19722TIP3    H280582   6.139   6.211  12.033 -2.4746  0.2508 -0.2285
19723TIP3   OH280583   5.123   0.969   1.422 -0.2049  0.5485 -0.6670
19723TIP3    H180584   5.154   0.931   1.505  0.7190 -0.4595 -1.4449
19723TIP3    H280585   5.044   1.016   1.445 -0.8758 -1.1000  0.5158
19724TIP3   OH280586   0.290   1.148  12.835 -0.2614 -0.1232 -0.1857
19724TIP3    H180587   0.352   1.207  12.793 -1.9810  1.3442 -0.7165
19724TIP3    H280588   0.255   1.094  12.764  0.5445 -1.0909  0.1425
19725TIP3   OH280589   4.037   6.112  13.898 -0.1113  0.0806 -0.4456
19725TIP3    H180590   4.062   6.028  13.861  1.4972 -0.2788  1.3950
19725TIP3    H280591   3.966   6.091  13.958  1.7142 -0.2982  1.6232
19726TIP3   OH280592   0.422   6.027  14.869  0.2557  0.4488  0.3375
19726TIP3    H180593   0.338   6.043  14.827  0.9836 -0.5630 -1.5443
19726TIP3    H280594   0.486   6.065  14.810  1.1442  1.2471  1.7792
19727TIP3   OH280595   4.321   2.218  12.184  0.7895 -0.1676  0.5715
19727TIP3    H180596   4.240   2.205  12.232  1.1847  0.5475  1.4335
19727TIP3    H280597   4.334   2.135  12.137  0.2213 -0.7460  1.4150
19728TIP3   OH280598   2.030   0.033  12.702 -0.4495 -0.2911 -0.0753
19728TIP3    H180599   2.122   0.009  12.697 -0.1625  0.5784  0.7605
19728TIP3    H280600   1.984  -0.034  12.651  0.3890 -2.0949  1.4777
19729TIP3   OH280601   0.964   4.518   0.804  0.5042 -0.2914  0.2836
19729TIP3    H180602   0.873   4.544   0.791  1.6368  1.9931 -4.0071
19729TIP3    H280603   0.985   4.548   0.893 -2.0294  2.0250  0.1698
19730TIP3   OH280604   3.250   1.282   0.926  0.1978  0.4419 -0.1674
19730TIP3    H180605   3.293   1.199   0.948 -1.5755  0.1753  2.6059
19730TIP3    H280606   3.318   1.348   0.935  0.8138 -0.3335  1.0060
19731TIP3   OH280607   3.590   4.552  15.393  0.4659 -0.0404  0.1061
19731TIP3    H180608   3.591   4.457  15.403 -1.6995 -0.2928 -1.6016
19731TIP3    H280609   3.610   4.566  15.301 -0.5056  1.0692  0.0544
19732TIP3   OH280610   1.072   2.326   0.344  0.3568 -0.0118 -0.5792
19732TIP3    H180611   0.988   2.369   0.330  0.9581  0.8932 -1.4303
19732TIP3    H280612   1.110   2.372   0.419  0.8185  0.6806 -1.2322
19733TIP3   OH280613   6.355   4.671   3.836 -0.5521 -0.1645  0.0829
19733TIP3    H180614   6.406   4.595   3.863  0.9411  0.6209 -0.5094
19733TIP3    H280615   6.281   4.673   3.897  0.6516 -0.7059  1.5795
19734TIP3   OH280616   5.379   3.107  13.427  0.4108  0.2300  0.3193
19734TIP3    H180617   5.366   3.201  13.440  0.1485  0.3370 -0.6605
19734TIP3    H280618   5.322   3.065  13.491 -0.7262  0.7421 -0.3415
19735TIP3   OH280619   6.436   5.017   0.742 -0.4241  0.7089 -0.0221
19735TIP3    H180620   6.363   4.970   0.783 -1.5140  0.3066 -2.3415
19735TIP3    H280621   6.399   5.053   0.662  1.5779  1.7444 -0.5057
19736TIP3   OH280622   0.263   6.336  16.965 -0.0046 -0.2012 -0.3561
19736TIP3    H180623   0.227   6.251  16.990 -0.5533  0.0836 -0.1687
19736TIP3    H280624   0.284   6.326  16.872 -0.3973 -0.4319 -0.4203
19737TIP3   OH280625   4.552   6.672  13.995 -0.2268 -0.6054  0.4340
19737TIP3    H180626   4.589   6.760  13.991 -0.7873 -0.3551  0.7631
19737TIP3    H280627   4.572   6.641  14.083  0.1661 -0.9012  0.2479
19738TIP3   OH280628   4.298   5.673   1.732 -0.5410  0.9426  0.1589
19738TIP3    H180629   4.312   5.669   1.637 -0.4499  0.4208  0.1909
19738TIP3    H280630   4.275   5.583   1.756  0.6530  0.7990  0.8166
19739TIP3   OH280631   0.558   4.968  17.177 -0.5623 -0.0518 -0.9212
19739TIP3    H180632   0.578   5.046  17.228  2.0420 -0.6147 -1.0281
19739TIP3    H280633   0.488   4.924  17.226 -0.9079  1.4785 -0.0084
19740TIP3   OH280634   6.612   4.837  16.068  0.2704  0.2561 -0.2892
19740TIP3    H180635   6.654   4.887  16.138  1.4393 -1.1335  0.0331
19740TIP3    H280636   6.685   4.803  16.016 -0.5691  0.7388 -1.8194
19741TIP3   OH280637   3.365   2.510  14.977 -0.0111 -0.1493  0.3634
19741TIP3    H180638   3.379   2.601  14.948  0.7397 -0.9405 -1.8527
19741TIP3    H280639   3.417   2.458  14.917 -1.0897 -2.1274  1.1197
19742TIP3   OH280640   4.333   2.544  10.458  0.2348  0.4608  0.4854
19742TIP3    H180641   4.381   2.462  10.473 -0.1657  0.2291  0.5092
19742TIP3    H280642   4.241   2.519  10.466  0.1114  0.9006  0.4164
19743TIP3   OH280643   6.112   2.372  15.024 -0.2118 -0.0803 -0.3536
19743TIP3    H180644   6.083   2.363  15.114 -0.2823  1.4262 -0.2002
19743TIP3    H280645   6.056   2.313  14.974 -0.4246 -0.6334  0.5405
19744TIP3   OH280646   5.482   0.896  16.042 -0.3240  0.5876  0.2070
19744TIP3    H180647   5.426   0.910  16.118 -0.5840  1.7186 -0.1963
19744TIP3    H280648   5.559   0.851  16.078 -0.4633  1.0745  1.1304
19745TIP3   OH280649   5.274   2.260   3.472  0.4119 -0.1877  0.1839
19745TIP3    H180650   5.317   2.211   3.543 -1.0382  0.9994  1.9109
19745TIP3    H280651   5.309   2.349   3.481 -1.0373  0.3605  0.4873
19746TIP3   OH280652   4.037   0.805   3.437  0.4745  0.3694  0.1696
19746TIP3    H180653   3.988   0.817   3.518 -1.8693 -0.8113 -1.0246
19746TIP3    H280654   4.054   0.711   3.432  1.7741  0.6028 -0.0640
19747TIP3   OH280655   3.398   1.716   2.782 -0.1508  0.5256 -0.1050
19747TIP3    H180656   3.337   1.680   2.718  1.4515  0.8359 -1.8555
19747TIP3    H280657   3.444   1.785   2.735  2.5788 -0.6762  0.7110
19748TIP3   OH280658   0.660   4.043  15.550  0.3243  0.2362  0.1686
19748TIP3    H180659   0.684   4.048  15.643  0.6831  1.7850  0.0074
19748TIP3    H280660   0.565   4.028  15.551  0.6526 -2.0033  0.7830
19749TIP3   OH280661   2.245   4.861  11.310 -0.5362  0.4778  0.0925
19749TIP3    H180662   2.250   4.847  11.404 -0.6370  0.5962  0.1145
19749TIP3    H280663   2.233   4.773  11.273  0.8756  0.2611  0.0894
19750TIP3   OH280664   5.570   4.460   0.165  0.6605 -0.2964 -0.5346
19750TIP3    H180665   5.598   4.512   0.241  1.4315 -0.9951 -0.3384
19750TIP3    H280666   5.583   4.519   0.090  1.0424 -0.0273 -0.2581
19751TIP3   OH280667   2.483   5.628  13.289 -0.0885 -0.1058  0.4583
19751TIP3    H180668   2.554   5.670  13.338 -1.7082  0.1799  2.6308
19751TIP3    H280669   2.510   5.537  13.282  0.0991 -0.1884  2.0520
19752TIP3   OH280670   0.334   3.028  13.379  0.2487 -0.1458 -0.2766
19752TIP3    H180671   0.263   2.974  13.343 -0.4636  0.5181  0.1198
19752TIP3    H280672   0.331   3.012  13.473 -0.0674  0.6850 -0.1383
19753TIP3   OH280673   5.598   6.586  16.929  0.0859  0.1968 -0.2779
19753TIP3    H180674   5.689   6.600  16.955  0.6059  0.5278 -2.1628
19753TIP3    H280675   5.549   6.587  17.011  1.4733  2.4063  0.5887
19754TIP3   OH280676   0.480   3.049  13.136 -0.8133  0.1662  0.1700
19754TIP3    H180677   0.435   3.045  13.220  0.7608 -0.8240  0.9943
19754TIP3    H280678   0.559   2.997  13.148 -1.5152 -1.6369 -2.5201
19755TIP3   OH280679   1.173   3.939  16.473  0.8823  0.1057 -0.1550
19755TIP3    H180680   1.150   3.969  16.561  2.3871  1.3093 -0.1479
19755TIP3    H280681   1.198   3.848  16.485  1.0921  0.2614  0.6817
19756TIP3   OH280682   1.869   2.977   3.989  0.0646 -0.5148  0.4046
19756TIP3    H180683   1.924   2.955   3.914  0.0666  0.2758  0.1608
19756TIP3    H280684   1.781   2.986   3.952 -0.2517 -1.8599  0.8073
19757TIP3   OH280685   3.613   0.463   5.199  0.1272  0.0681 -0.1397
19757TIP3    H180686   3.626   0.545   5.247  2.7249  0.2680 -1.0518
19757TIP3    H280687   3.523   0.468   5.168 -0.3752  1.6918  1.4357
19758TIP3   OH280688   0.759   1.924   5.683  0.3245  0.6013 -0.6003
19758TIP3    H180689   0.728   1.943   5.772  0.3284 -2.1636  0.0573
19758TIP3    H280690   0.705   1.978   5.626 -0.4804  1.5441  1.0238
19759TIP3   OH280691   5.459   5.825   3.243 -0.1234 -0.4352 -0.1416
19759TIP3    H180692   5.487   5.907   3.284  1.2633 -1.6490  1.4004
19759TIP3    H280693   5.372   5.843   3.209  0.4622  1.9071 -0.4698
19760TIP3   OH280694   3.699   2.341   0.000  0.0850  0.4372  0.1957
19760TIP3    H180695   3.767   2.399  -0.034  0.9046  0.3294  1.6006
19760TIP3    H280696   3.732   2.253  -0.015 -0.3656  0.3579 -0.3467
19761TIP3   OH280697   0.453   5.945  15.982  0.1882  0.0158  0.0900
19761TIP3    H180698   0.455   5.976  16.073  2.7996  0.2222 -0.0237
19761TIP3    H280699   0.404   6.013  15.935  2.2051  1.8937  0.6340
19762TIP3   OH280700   3.290   5.559   2.814 -0.0815 -0.4552 -0.2484
19762TIP3    H180701   3.236   5.603   2.748  0.7469  0.2532 -0.4665
19762TIP3    H280702   3.361   5.621   2.832 -0.2020 -0.7022  1.1935
19763TIP3   OH280703   3.802   6.357  16.892  0.4786 -0.3416 -0.5265
19763TIP3    H180704   3.893   6.363  16.921  0.3633  0.0365 -0.2328
19763TIP3    H280705   3.760   6.302  16.958  0.4932 -0.5230 -0.6657
19764TIP3   OH280706   5.530   5.800   5.695 -0.0987  0.3372 -0.5897
19764TIP3    H180707   5.512   5.727   5.754 -0.1579 -0.9779 -2.1861
19764TIP3    H280708   5.625   5.809   5.696 -0.2806  2.4816  2.2020
19765TIP3   OH280709   5.413   5.331  16.847  0.0825  0.3667  0.4581
19765TIP3    H180710   5.466   5.257  16.817 -0.1609  0.3605  0.0364
19765TIP3    H280711   5.415   5.393  16.774 -0.1177  0.5612  0.6190
19766TIP3   OH280712   1.343   1.262  14.271 -0.8704 -0.1745 -0.4432
19766TIP3    H180713   1.263   1.274  14.324 -1.2857  0.6489 -1.2468
19766TIP3    H280714   1.320   1.296  14.185  0.2853 -0.1418 -0.7456
19767TIP3   OH280715   6.181   0.992  11.804 -0.2898 -0.0850 -0.1947
19767TIP3    H180716   6.159   0.903  11.776 -4.5047  0.9735 -0.5053
19767TIP3    H280717   6.135   1.003  11.887  0.0470  1.8855 -0.2549
19768TIP3   OH280718   4.783   2.617  11.248 -0.3077  0.0674 -0.2254
19768TIP3    H180719   4.851   2.684  11.256 -0.6297  0.7810 -3.0971
19768TIP3    H280720   4.723   2.635  11.321 -1.0173  3.6638 -1.5958
19769TIP3   OH280721   3.483   4.557   5.582  0.7441 -0.3341  0.3522
19769TIP3    H180722   3.516   4.564   5.672 -0.7835  1.0043  0.8207
19769TIP3    H280723   3.528   4.479   5.547  3.8675  0.9933  1.1823
19770TIP3   OH280724   3.861   4.688   4.212 -0.4060  0.1915  0.3477
19770TIP3    H180725   3.899   4.724   4.293 -1.5726 -0.1096  1.0438
19770TIP3    H280726   3.794   4.627   4.243  0.9284 -1.9351 -0.8221
19771TIP3   OH280727   5.266   2.333  11.838 -0.0704  0.4695  0.0478
19771TIP3    H180728   5.239   2.349  11.748  0.1657  0.4123 -0.0337
19771TIP3    H280729   5.199   2.274  11.873 -0.9696  1.6316  0.3563
19772TIP3   OH280730   3.253   3.794   2.398  0.2120 -0.2714 -0.0197
19772TIP3    H180731   3.325   3.748   2.353 -0.8372  0.0421 -2.0975
19772TIP3    H280732   3.279   3.794   2.490  2.3738 -1.0939 -0.5792
19773TIP3   OH280733   6.551   6.600   2.318 -0.2470 -0.1091  0.2159
19773TIP3    H180734   6.560   6.609   2.413 -0.1073  0.3394  0.1646
19773TIP3    H280735   6.461   6.570   2.304 -0.0400 -0.8909  0.5304
19774TIP3   OH280736   1.953   0.866  12.961 -0.4241 -0.0802 -1.3277
19774TIP3    H180737   2.026   0.821  12.918 -1.1918 -1.2690 -1.3874
19774TIP3    H280738   1.926   0.806  13.031 -0.7811  0.7488 -0.7490
19775TIP3   OH280739   1.103   4.500  15.766 -0.2825  0.2196  0.4458
19775TIP3    H180740   1.127   4.464  15.681  1.1427 -0.7610  1.2251
19775TIP3    H280741   1.012   4.526  15.757  0.5136  2.2936 -2.0675
19776TIP3   OH280742   6.120   0.082  12.008 -0.6078 -0.7608 -0.0714
19776TIP3    H180743   6.127   0.152  12.072  1.1773 -1.6974  0.7998
19776TIP3    H280744   6.090   0.006  12.058 -2.0719 -0.7609 -0.9217
19777TIP3   OH280745   3.804   0.244  14.601  0.0822  0.4619 -0.0613
19777TIP3    H180746   3.749   0.246  14.523  1.2313 -1.7766 -0.9668
19777TIP3    H280747   3.770   0.314  14.656 -1.6694  1.1290 -1.9427
19778TIP3   OH280748   6.609   0.053  14.553 -0.1164 -0.6681  0.1306
19778TIP3    H180749   6.550   0.019  14.486 -0.9756 -0.3194  0.7003
19778TIP3    H280750   6.680   0.095  14.504  0.3310 -2.2210 -0.5753
19779TIP3   OH280751   6.432   0.952   0.574 -0.3055 -0.5836  0.0292
19779TIP3    H180752   6.428   1.042   0.543  1.3134 -0.3636  0.4510
19779TIP3    H280753   6.456   0.901   0.496  1.5922 -0.2964  0.4127
19780TIP3   OH280754   4.612   5.534   5.442  0.5099 -0.0896 -0.0306
19780TIP3    H180755   4.664   5.462   5.405 -0.2535 -1.0192  0.6643
19780TIP3    H280756   4.549   5.554   5.373  0.9830  0.1848 -0.3843
19781TIP3   OH280757   1.423   6.677   4.561 -0.1660  0.4368  0.4616
19781TIP3    H180758   1.486   6.605   4.558  0.2535  0.7384  1.7350
19781TIP3    H280759   1.340   6.635   4.585 -0.4768  0.0220 -1.3329
19782TIP3   OH280760   4.589   4.171  13.223  0.0428  0.0162 -0.4838
19782TIP3    H180761   4.601   4.255  13.267 -0.6968 -0.1147 -0.0317
19782TIP3    H280762   4.570   4.109  13.293 -0.1187 -0.3883 -0.8825
19783TIP3   OH280763   4.576   3.389   2.809  0.0710  0.2387  0.3665
19783TIP3    H180764   4.617   3.417   2.727 -0.8981  0.4815 -0.0386
19783TIP3    H280765   4.609   3.300   2.823  0.1542  0.1566 -0.3418
19784TIP3   OH280766   1.432   1.310   1.713 -0.5329  1.0387 -0.6513
19784TIP3    H180767   1.369   1.258   1.763  0.3161  0.9118  0.2987
19784TIP3    H280768   1.488   1.246   1.669 -0.9799  1.1533 -1.4087
19785TIP3   OH280769   5.912   3.002  16.479  0.1254  0.3970 -0.4136
19785TIP3    H180770   5.923   3.066  16.550 -1.9381 -0.6801  0.9576
19785TIP3    H280771   5.848   3.042  16.420 -2.4666 -0.9859  1.3164
19786TIP3   OH280772   0.140   0.808  14.889 -0.3468 -0.4183  0.0622
19786TIP3    H180773   0.201   0.748  14.846 -0.5217 -0.2190 -0.4736
19786TIP3    H280774   0.071   0.751  14.923  1.1950 -0.8654  2.5247
19787TIP3   OH280775   3.100   3.026  12.709  0.1377  0.0073 -0.3456
19787TIP3    H180776   3.020   2.986  12.676  0.5173  1.0405 -2.6332
19787TIP3    H280777   3.070   3.101  12.760 -0.3985 -0.4211 -0.0245
19788TIP3   OH280778   3.128   1.459   0.185  0.5214  0.1611 -0.3355
19788TIP3    H180779   3.211   1.475   0.140  1.2531  0.6052  1.1443
19788TIP3    H280780   3.116   1.364   0.182  0.1700  0.2520 -2.1439
19789TIP3   OH280781   5.947   3.011  13.046 -0.2966 -0.2133 -0.2908
19789TIP3    H180782   6.042   3.001  13.052 -0.3035  0.5118  1.2366
19789TIP3    H280783   5.914   2.978  13.130 -1.4736 -1.2247 -1.1158
19790TIP3   OH280784   6.310   4.583  13.334 -0.0262 -0.2661  0.1443
19790TIP3    H180785   6.323   4.525  13.259 -0.9432 -0.7493  0.3475
19790TIP3    H280786   6.246   4.648  13.304 -0.9974 -0.9235  0.7337
19791TIP3   OH280787   6.288   5.375   5.377 -0.5604 -0.1805  0.2995
19791TIP3    H180788   6.229   5.450   5.375 -1.9835 -1.2947 -0.1015
19791TIP3    H280789   6.282   5.337   5.289 -1.2455 -1.8104  1.0255
19792TIP3   OH280790   2.573   3.859  13.470 -0.3868  0.2318 -0.4126
19792TIP3    H180791   2.515   3.922  13.428 -0.5569 -0.2022 -0.8342
19792TIP3    H280792   2.640   3.840  13.405 -1.0370 -0.9610 -0.7564
19793TIP3   OH280793   6.135   2.732   4.229  0.5438  0.2115 -0.4909
19793TIP3    H180794   6.136   2.637   4.240 -0.4250  0.2835  0.3071
19793TIP3    H280795   6.226   2.759   4.244  0.5130 -0.4224  0.9842
19794TIP3   OH280796   0.549   3.789  16.494 -0.4017  0.1751  0.4567
19794TIP3    H180797   0.535   3.694  16.502 -0.1972  0.1156  0.1322
19794TIP3    H280798   0.519   3.825  16.578 -1.7492 -0.0263  0.0737
19795TIP3   OH280799   2.226   0.873  14.039  0.0636  0.2618  0.2726
19795TIP3    H180800   2.165   0.882  14.113  1.0980 -0.1017  1.1791
19795TIP3    H280801   2.293   0.939  14.056  0.0664  0.4805 -0.5944
19796TIP3   OH280802   4.999   3.345  12.718 -0.4825  0.1439  0.3276
19796TIP3    H180803   5.021   3.385  12.802  1.4157  0.4774 -0.3191
19796TIP3    H280804   5.083   3.322  12.679 -1.3128  0.6349 -1.8083
19797TIP3   OH280805   2.226   0.093   0.164  0.4741  0.5232  0.0551
19797TIP3    H180806   2.222   0.001   0.138 -0.0884  0.2143  1.2147
19797TIP3    H280807   2.138   0.113   0.197  0.5512  1.5158 -0.3324
19798TIP3   OH280808   4.097   5.857  15.161 -0.2608 -0.2337  0.1344
19798TIP3    H180809   4.114   5.763  15.167 -0.4164 -0.2633  0.0997
19798TIP3    H280810   4.180   5.898  15.187  0.0139 -0.3849 -0.5175
19799TIP3   OH280811   0.563   4.527  13.742 -0.4171 -0.4101  0.2894
19799TIP3    H180812   0.536   4.443  13.705 -0.0227 -0.8907  1.0641
19799TIP3    H280813   0.659   4.523  13.743 -0.3563  0.6780 -1.0780
19800TIP3   OH280814   0.733   0.071  12.358 -0.1270  0.1199 -0.2515
19800TIP3    H180815   0.730  -0.003  12.419  2.9821 -0.5920 -0.8979
19800TIP3    H280816   0.690   0.040  12.279 -2.4387  0.4018  0.8479
19801TIP3   OH280817   1.193   3.925  13.851  0.3279  0.2437  0.4330
19801TIP3    H180818   1.230   3.935  13.763  0.4292 -0.7872  0.3532
19801TIP3    H280819   1.213   3.835  13.875  1.0341  0.7620  1.8546
19802TIP3   OH280820   0.115   3.564   4.328 -0.3296 -0.0969 -0.0856
19802TIP3    H180821   0.174   3.630   4.365  0.5020 -0.2226 -1.1392
19802TIP3    H280822   0.028   3.591   4.354 -0.0669  1.8824 -1.1772
19803TIP3   OH280823   3.585   2.974  17.032  0.1110 -0.1784 -0.3249
19803TIP3    H180824   3.676   2.945  17.042 -0.1411 -0.5813  0.8287
19803TIP3    H280825   3.533   2.894  17.040 -0.3659  0.0836 -0.7681
19804TIP3   OH280826   0.371   2.426  10.867  0.6761  0.8094 -0.0787
19804TIP3    H180827   0.325   2.452  10.788 -1.0031  0.4831  0.7640
19804TIP3    H280828   0.430   2.499  10.886  0.0121  1.5413 -0.8149
19805TIP3   OH280829   6.577   1.639   1.043  0.5712 -0.2921 -0.2020
19805TIP3    H180830   6.627   1.583   1.103 -2.6254  0.1543  3.0563
19805TIP3    H280831   6.509   1.582   1.009 -1.1660  0.9228  1.1772
19806TIP3   OH280832   4.561   0.072   4.073  0.2008  0.3546 -0.0727
19806TIP3    H180833   4.473   0.041   4.094  0.9174 -1.0602  0.9248
19806TIP3    H280834   4.554   0.104   3.983 -2.1125  3.4282  1.1319
19807TIP3   OH280835   5.838   5.735  16.784 -0.1192 -0.3962 -0.1911
19807TIP3    H180836   5.849   5.722  16.690 -0.5794 -0.4535 -0.2390
19807TIP3    H280837   5.927   5.735  16.819  0.1564  1.4669 -0.8502
19808TIP3   OH280838   6.507   0.098   0.406  0.2625  0.1947  0.0421
19808TIP3    H180839   6.566   0.165   0.440 -1.4559  2.2872 -0.9424
19808TIP3    H280840   6.564   0.035   0.362  1.9003  1.1218  0.7981
19809TIP3   OH280841   5.652   5.363  11.997  0.0879  0.8133  0.3964
19809TIP3    H180842   5.636   5.454  12.021 -1.5650  0.5466  0.3413
19809TIP3    H280843   5.591   5.312  12.051 -0.5744 -0.0957 -1.1682
19810TIP3   OH280844   0.950   5.991  17.013 -0.1435  0.0414  0.5241
19810TIP3    H180845   0.883   5.978  16.946 -0.7648  2.6527  0.5939
19810TIP3    H280846   0.980   6.081  16.999  1.0637 -0.0292  2.5569
19811TIP3   OH280847   3.715   6.228  16.384  0.1040  0.1092 -0.3407
19811TIP3    H180848   3.751   6.157  16.331  0.7554  0.9407 -1.0232
19811TIP3    H280849   3.770   6.230  16.462  0.7506  0.5577 -0.8101
19812TIP3   OH280850   5.650   1.985  14.484  0.3331  0.3857  0.0137
19812TIP3    H180851   5.657   1.980  14.579 -1.0058  1.4475  0.1751
19812TIP3    H280852   5.558   2.004  14.467  0.9509  2.2469 -1.4075
19813TIP3   OH280853   0.532   5.329   2.819 -0.1250 -0.0979 -0.2538
19813TIP3    H180854   0.575   5.327   2.905 -0.8867  0.7575  0.1414
19813TIP3    H280855   0.564   5.409   2.778  0.1001 -0.4167 -0.7030
19814TIP3   OH280856   3.750   4.265  13.883 -0.3005  0.4597 -1.0462
19814TIP3    H180857   3.816   4.198  13.867 -1.3201 -0.9777  0.5963
19814TIP3    H280858   3.670   4.230  13.845 -0.5189  1.4082 -1.4740
19815TIP3   OH280859   5.716   2.199  15.036  0.1407 -0.1534  0.1200
19815TIP3    H180860   5.776   2.149  15.091 -1.0087 -0.8634  0.7440
19815TIP3    H280861   5.737   2.172  14.947  0.1926 -1.0290  0.3925
19816TIP3   OH280862   3.576   1.674   0.834 -0.4744  0.3013  0.3038
19816TIP3    H180863   3.666   1.671   0.866 -0.0657  1.7598 -0.6675
19816TIP3    H280864   3.547   1.583   0.834  1.6749 -0.4189 -1.2249
19817TIP3   OH280865   2.900   1.043   5.701 -0.0444 -0.1945 -0.7507
19817TIP3    H180866   2.811   1.065   5.674  0.4706 -0.0914 -2.4678
19817TIP3    H280867   2.925   0.971   5.643  0.6915 -0.7770  0.2734
19818TIP3   OH280868   3.670   6.539  15.654  0.3265  0.2076 -0.3797
19818TIP3    H180869   3.628   6.473  15.599 -1.5066  1.7843 -0.9172
19818TIP3    H280870   3.645   6.516  15.743 -1.8341  1.2159 -0.7063
19819TIP3   OH280871   6.341   1.917  12.081  1.2297 -0.2164 -0.0585
19819TIP3    H180872   6.409   1.856  12.052  1.0415  0.6132 -2.3551
19819TIP3    H280873   6.367   2.001  12.043  0.6322  0.8031  1.7391
19820TIP3   OH280874   5.856   2.920  12.719 -0.3956 -0.0030  0.2865
19820TIP3    H180875   5.854   2.929  12.815  3.0232  0.4008  0.3910
19820TIP3    H280876   5.871   3.009  12.687  0.8644 -0.4668 -0.4608
19821TIP3   OH280877   2.100   2.384   1.882 -0.3214 -0.1352  0.8390
19821TIP3    H180878   2.088   2.292   1.862  0.6348 -0.4872  1.8411
19821TIP3    H280879   2.049   2.399   1.961 -0.7409  0.2801  0.4965
19822TIP3   OH280880   5.044   4.719   0.382 -0.2888  0.3177 -0.3672
19822TIP3    H180881   4.949   4.725   0.393 -0.2250 -0.9843  1.0106
19822TIP3    H280882   5.058   4.638   0.333  0.1546  0.0701  0.1629
19823TIP3   OH280883   6.761   3.827  16.956  0.1559  0.0170  0.1576
19823TIP3    H180884   6.750   3.811  16.862  0.8147 -0.7409  0.1979
19823TIP3    H280885   6.749   3.921  16.966 -0.0679  0.0836 -0.6694
19824TIP3   OH280886   4.021   5.898  13.624 -0.8247 -0.0844  0.4832
19824TIP3    H180887   3.959   5.838  13.665 -0.7617 -0.6435 -0.2359
19824TIP3    H280888   3.979   5.923  13.542 -0.5278  0.2827  0.4444
19825TIP3   OH280889   4.004   1.451  11.775  0.5435  0.2107  0.1507
19825TIP3    H180890   3.943   1.520  11.800 -1.0290 -0.4461 -1.7722
19825TIP3    H280891   4.009   1.457  11.680 -0.0706 -2.6903 -0.1086
19826TIP3   OH280892   6.271   6.437  14.311 -0.3044 -0.3606  0.3202
19826TIP3    H180893   6.274   6.433  14.406  1.4414  1.7408  0.3964
19826TIP3    H280894   6.280   6.530  14.290  1.8636 -0.9943 -1.9126
19827TIP3   OH280895   3.679   6.356  12.800 -0.5663 -0.0313 -0.6840
19827TIP3    H180896   3.599   6.404  12.780 -0.0353  1.0297 -0.2818
19827TIP3    H280897   3.747   6.398  12.747  0.7890  2.5956  2.9004
19828TIP3   OH280898   1.510   1.993   2.154  0.4175 -0.0725 -0.3505
19828TIP3    H180899   1.556   1.911   2.140 -0.6214 -0.9860  1.2953
19828TIP3    H280900   1.425   1.966   2.191  0.5740  1.7763  1.4409
19829TIP3   OH280901   4.875   0.629   0.379 -0.3255 -0.4476  0.2036
19829TIP3    H180902   4.849   0.692   0.313  1.0209  1.4063  1.3922
19829TIP3    H280903   4.938   0.572   0.334 -0.4047 -0.0059 -0.4712
19830TIP3   OH280904   3.791   1.944   6.135 -0.0950  0.2174 -0.6282
19830TIP3    H180905   3.703   1.980   6.145 -0.0142  0.1276  0.5093
19830TIP3    H280906   3.847   2.003   6.184  0.3820 -0.1124 -0.7688
19831TIP3   OH280907   6.508   1.840   2.434 -0.2632  0.2874  0.4077
19831TIP3    H180908   6.531   1.921   2.387  1.4483  0.3419  1.2846
19831TIP3    H280909   6.426   1.861   2.478 -0.0818  1.4063  0.2522
19832TIP3   OH280910   6.512   6.654   2.051 -0.1342  0.4268  0.0213
19832TIP3    H180911   6.520   6.749   2.039 -1.9235  0.9795  2.8654
19832TIP3    H280912   6.543   6.638   2.140 -1.7844 -1.3836  0.2933
19833TIP3   OH280913   5.944   3.199   4.451  0.3191  0.2639  0.3504
19833TIP3    H180914   5.954   3.290   4.478  0.4452  1.2728 -2.8011
19833TIP3    H280915   6.026   3.157   4.475  0.8940  1.3864  0.3857
19834TIP3   OH280916   4.911   4.090   5.087 -0.0626  0.1147 -0.1015
19834TIP3    H180917   4.838   4.132   5.041 -0.1464  0.7651  0.6052
19834TIP3    H280918   4.897   3.996   5.073 -0.4678  0.2749 -0.8175
19835TIP3   OH280919   5.400   1.291  13.711  0.4133 -0.4016 -0.3046
19835TIP3    H180920   5.495   1.284  13.704  0.4074  0.2800 -1.0711
19835TIP3    H280921   5.375   1.353  13.643 -0.2490  1.8441  1.8996
19836TIP3   OH280922   0.620   4.867   4.663  0.4772 -0.1919  0.2934
19836TIP3    H180923   0.681   4.912   4.604  0.6567 -1.3050 -0.3876
19836TIP3    H280924   0.650   4.891   4.750  0.9403  0.5221 -0.0537
19837TIP3   OH280925   5.340   4.725  16.771  0.1353  0.1572 -0.1195
19837TIP3    H180926   5.393   4.717  16.851 -1.3255  0.9334  0.9505
19837TIP3    H280927   5.261   4.674  16.789  0.2181 -0.4677 -1.4603
19838TIP3   OH280928   2.467   5.354   4.348 -0.0695 -0.7619  0.4144
19838TIP3    H180929   2.515   5.338   4.267  1.8379  0.7815  1.2097
19838TIP3    H280930   2.503   5.291   4.410  0.4148 -0.1041  0.8068
19839TIP3   OH280931   6.092   4.576   1.076  0.0122  0.0992 -0.3459
19839TIP3    H180932   6.012   4.603   1.120 -0.4726  0.1411 -1.2390
19839TIP3    H280933   6.063   4.516   1.008  0.9350 -1.4564  0.5975
19840TIP3   OH280934   3.832   4.054  16.300 -0.1879 -0.4095 -0.1703
19840TIP3    H180935   3.819   3.965  16.333  0.4249 -0.0265  1.1539
19840TIP3    H280936   3.743   4.085  16.282 -0.5003 -0.8620  0.5343
19841TIP3   OH280937   0.775   6.311  12.899 -0.3743  0.3852  0.5376
19841TIP3    H180938   0.816   6.365  12.967 -0.6399  1.2842 -0.0074
19841TIP3    H280939   0.696   6.359  12.874 -1.1755 -0.7777  0.7820
19842TIP3   OH280940   2.356   1.648  16.003 -0.7681  0.5713  0.3712
19842TIP3    H180941   2.318   1.636  15.916  0.9571  1.3259 -0.5003
19842TIP3    H280942   2.320   1.576  16.055 -1.9597  0.2175 -0.8986
19843TIP3   OH280943   3.879   1.671   5.227  0.3046 -0.0639 -0.5216
19843TIP3    H180944   3.943   1.722   5.276 -1.4829  1.8510 -0.1077
19843TIP3    H280945   3.861   1.724   5.149 -1.0628 -0.3663 -0.4254
19844TIP3   OH280946   5.859   4.806  16.812  0.5777  0.3830 -0.2221
19844TIP3    H180947   5.879   4.862  16.887  1.7313  2.0448 -1.7326
19844TIP3    H280948   5.874   4.861  16.736  1.9500 -2.0421 -1.7874
19845TIP3   OH280949   3.756   6.046  16.180  0.1508 -0.4372 -0.8100
19845TIP3    H180950   3.789   6.036  16.090 -0.7045 -1.9954 -0.9707
19845TIP3    H280951   3.662   6.061  16.169  0.2801  0.9206 -0.2172
19846TIP3   OH280952   0.857   2.978  12.620 -0.1538  0.2902  0.1841
19846TIP3    H180953   0.903   3.060  12.635  0.3341 -0.1346  1.0316
19846TIP3    H280954   0.926   2.915  12.598 -0.5351  0.1306 -0.5786
19847TIP3   OH280955   3.096   3.026  15.664 -0.1431  0.2748 -0.8709
19847TIP3    H180956   3.060   3.114  15.649  3.2659  1.9402  0.2067
19847TIP3    H280957   3.164   3.017  15.597  0.4973 -0.9826 -0.0597
19848TIP3   OH280958   4.758   3.958   3.957  0.2957  0.0517 -0.4218
19848TIP3    H180959   4.850   3.982   3.967  0.9102 -2.3927  0.1739
19848TIP3    H280960   4.741   3.969   3.863  0.8839  1.5090 -0.3714
19849TIP3   OH280961   1.221   2.588   2.163  0.2163  0.3188 -0.3825
19849TIP3    H180962   1.194   2.653   2.228 -0.1061 -0.2966  0.1083
19849TIP3    H280963   1.165   2.604   2.087 -1.0339 -0.4612  0.3536
19850TIP3   OH280964   4.879   3.053   0.714 -0.0187 -0.0350 -0.3437
19850TIP3    H180965   4.814   3.115   0.746 -0.9737 -1.2141  0.0335
19850TIP3    H280966   4.953   3.107   0.686 -0.1447  1.1497  1.5974
19851TIP3   OH280967   4.552   4.161  14.391 -0.1903 -0.1013  0.0520
19851TIP3    H180968   4.526   4.215  14.466 -1.3343 -0.6702  0.0615
19851TIP3    H280969   4.630   4.114  14.422 -0.9785 -0.7435  1.0739
19852TIP3   OH280970   2.436   2.812  15.827 -0.2520 -0.2431 -0.0316
19852TIP3    H180971   2.381   2.875  15.779  0.6928  0.2890 -0.4401
19852TIP3    H280972   2.400   2.811  15.915 -0.4193  0.7238 -0.0813
19853TIP3   OH280973   1.008   2.128   1.991  0.2135  0.1843 -0.2687
19853TIP3    H180974   0.962   2.190   1.934  0.3789  0.1813 -0.4058
19853TIP3    H280975   1.086   2.175   2.019 -0.5034  0.6545  0.9875
19854TIP3   OH280976   5.531   4.769   5.387  0.4460  0.2511  0.0213
19854TIP3    H180977   5.483   4.851   5.396  0.9932  0.8774 -2.3049
19854TIP3    H280978   5.478   4.717   5.326  1.2344 -0.2112 -0.2754
19855TIP3   OH280979   1.706   3.051   5.551  0.3538  0.3920 -0.4816
19855TIP3    H180980   1.792   3.027   5.518 -0.1895 -0.5904 -1.2010
19855TIP3    H280981   1.645   2.991   5.508 -0.8906  2.1796 -1.3015
19856TIP3   OH280982   5.951   5.453   5.494  0.0705 -0.1682 -0.3941
19856TIP3    H180983   5.918   5.392   5.560  1.5879 -1.3663 -0.7010
19856TIP3    H280984   5.872   5.485   5.449 -0.8852 -0.2522  1.1904
19857TIP3   OH280985   4.534   4.807   3.596  0.1322 -0.4468  0.0816
19857TIP3    H180986   4.544   4.900   3.577  0.0944 -0.5260 -0.3269
19857TIP3    H280987   4.591   4.792   3.672 -1.6373  0.4045  1.6223
19858TIP3   OH280988   6.466   0.059  11.650 -0.1493 -0.2339  0.5348
19858TIP3    H180989   6.502   0.139  11.690  0.6616 -0.6950  0.7359
19858TIP3    H280990   6.386   0.042  11.699  0.1069 -0.0044  1.0384
19859TIP3   OH280991   5.600   0.414   1.650 -0.1333  0.2567 -0.0344
19859TIP3    H180992   5.649   0.491   1.620 -0.9422 -0.1970 -2.6462
19859TIP3    H280993   5.664   0.343   1.650 -0.1429  0.2499 -0.7260
19860TIP3   OH280994   0.643   5.217   1.916 -0.1387 -0.0114  0.0812
19860TIP3    H180995   0.554   5.195   1.888  0.0457 -1.8682  0.8586
19860TIP3    H280996   0.687   5.244   1.835 -1.5111  1.3210 -0.2409
19861TIP3   OH280997   1.429   2.795   0.243 -0.3922  0.0046  0.3283
19861TIP3    H180998   1.427   2.890   0.258 -1.1732  0.0172  0.1670
19861TIP3    H280999   1.416   2.785   0.149  0.3337 -0.2429  0.2498
19862TIP3   OH281000   1.014   3.027  15.806  0.1019  0.6456  0.0879
19862TIP3    H181001   1.063   2.949  15.778 -0.1890  0.9184 -1.2190
19862TIP3    H281002   1.012   3.083  15.729  0.0638  1.8397  0.9353
19863TIP3   OH281003   2.161   2.891   4.189  0.0397 -0.3689  0.1134
19863TIP3    H181004   2.143   2.834   4.264 -0.1005  0.3035  0.5984
19863TIP3    H281005   2.107   2.856   4.118  0.1937 -1.0266  0.3196
19864TIP3   OH281006   3.050   1.662  12.808 -0.1164  0.1682  0.2906
19864TIP3    H181007   3.020   1.581  12.767 -2.3483  1.7315 -1.2886
19864TIP3    H281008   3.020   1.657  12.898 -0.1140 -0.8122  0.2376
19865TIP3   OH281009   2.312   1.726  14.876 -0.8130  0.1542 -0.1012
19865TIP3    H181010   2.289   1.760  14.790  0.9451 -1.6679 -1.3389
19865TIP3    H281011   2.240   1.667  14.899 -1.9475  1.6698  0.3105
19866TIP3   OH281012   2.983   4.893  12.782 -0.1745 -0.0595  0.4081
19866TIP3    H181013   2.957   4.971  12.830 -0.4077 -0.0346  0.2408
19866TIP3    H281014   2.979   4.919  12.690  0.8136  0.0646  0.3874
19867TIP3   OH281015   5.924   3.867  16.902  0.4782  1.0507 -0.4655
19867TIP3    H181016   5.883   3.884  16.987 -0.7511  0.0054 -0.8377
19867TIP3    H281017   6.016   3.854  16.922  0.0781  0.1262  0.8040
19868TIP3   OH281018   5.791   1.314   4.508 -0.2035  0.5672  0.2621
19868TIP3    H181019   5.846   1.315   4.430 -1.5735  1.6542 -0.7113
19868TIP3    H281020   5.788   1.222   4.534  1.3143  0.3623 -0.1879
19869TIP3   OH281021   3.768   4.881   3.989 -0.7346 -0.2087 -0.6805
19869TIP3    H181022   3.764   4.879   4.085  1.4632 -0.5798 -0.5728
19869TIP3    H281023   3.707   4.950   3.964 -1.6577 -0.3891  0.9609
19870TIP3   OH281024   4.489   1.541   0.570  0.5261 -0.4414  0.5131
19870TIP3    H181025   4.441   1.624   0.578  0.6714 -0.1141 -1.8536
19870TIP3    H281026   4.423   1.477   0.547  0.9388 -0.3295 -1.0048
19871TIP3   OH281027   5.157   3.870   4.828 -0.4805 -0.1561 -0.2676
19871TIP3    H181028   5.200   3.883   4.913 -0.5011 -0.0319 -0.2752
19871TIP3    H281029   5.067   3.900   4.842 -0.7481 -1.0169 -0.0715
19872TIP3   OH281030   1.518   3.007   2.480 -0.3460  0.0420 -0.2154
19872TIP3    H181031   1.427   3.027   2.457 -0.6725  2.7865  3.0878
19872TIP3    H281032   1.512   2.937   2.545 -0.1881  1.0775  0.9252
19873TIP3   OH281033   3.243   2.132  10.730 -0.0139  0.3609  0.0905
19873TIP3    H181034   3.292   2.176  10.799  0.3111  0.0516  0.0626
19873TIP3    H281035   3.203   2.202  10.680  1.1407  0.6670 -0.4236
19874TIP3   OH281036   0.573   2.802   1.741 -0.2377  0.0701  0.1956
19874TIP3    H181037   0.500   2.747   1.712 -0.4683  1.5469 -2.2588
19874TIP3    H281038   0.651   2.754   1.716 -0.3311 -1.4139  2.6270
19875TIP3   OH281039   2.749   5.834  15.125  0.1856 -0.1523 -0.3620
19875TIP3    H181040   2.737   5.923  15.092  2.0379  0.1875 -0.2083
19875TIP3    H281041   2.663   5.808  15.158 -0.8627  0.8148 -2.2595
19876TIP3   OH281042   3.205   3.430   3.778  0.3610 -0.1719 -0.4849
19876TIP3    H181043   3.175   3.488   3.848  0.7755 -1.5155  0.8582
19876TIP3    H281044   3.301   3.430   3.787  0.3304 -1.5844 -0.0132
19877TIP3   OH281045   4.824   3.000  13.811  0.5692  0.6245  0.6777
19877TIP3    H181046   4.739   2.993  13.856 -0.0088  1.8576 -0.1731
19877TIP3    H281047   4.807   2.964  13.724  0.5450  2.0924  0.0593
19878TIP3   OH281048   0.907   0.551   5.111  0.3127 -0.1430 -0.1697
19878TIP3    H181049   0.947   0.470   5.080  1.1107  1.1415 -2.6610
19878TIP3    H281050   0.817   0.548   5.079 -0.3363 -1.0695  1.7114
19879TIP3   OH281051   6.075   3.651   3.459 -0.2232 -0.2345  0.2105
19879TIP3    H181052   6.052   3.564   3.491 -1.5466 -0.2475 -0.7177
19879TIP3    H281053   6.134   3.635   3.386  1.2478 -0.2721  1.3999
19880TIP3   OH281054   0.675   6.565   4.155 -0.0867 -0.3658 -0.1104
19880TIP3    H181055   0.684   6.553   4.060  2.6050 -0.4677  0.1036
19880TIP3    H281056   0.695   6.658   4.169 -1.1292 -0.1985  0.3023
19881TIP3   OH281057   1.610   5.596  12.841 -0.6317 -0.2449  0.3877
19881TIP3    H181058   1.602   5.653  12.918  0.5031  0.4467  0.0026
19881TIP3    H281059   1.524   5.554  12.834 -1.0094  0.2923  1.5568
19882TIP3   OH281060   3.381   2.520   3.640  0.1826  0.1889 -0.7360
19882TIP3    H181061   3.367   2.498   3.732 -0.0693  1.5175 -0.4399
19882TIP3    H281062   3.347   2.445   3.591  0.7361 -0.7203  0.2694
19883TIP3   OH281063   3.707   1.959  15.461  0.3353 -0.1752 -0.0724
19883TIP3    H181064   3.705   1.950  15.556  2.8673 -0.2491 -0.0193
19883TIP3    H281065   3.748   2.044  15.445 -3.2994  1.5259 -1.0747
19884TIP3   OH281066   3.165   6.299  14.989  0.1959  0.7967  0.2074
19884TIP3    H181067   3.133   6.303  15.080 -0.0326  0.2242  0.1564
19884TIP3    H281068   3.103   6.242  14.945  0.0674  1.4223 -0.4191
19885TIP3   OH281069   2.419   0.510  13.680 -0.3631  0.1759  0.1993
19885TIP3    H181070   2.386   0.434  13.631  0.3198 -0.8413  1.2977
19885TIP3    H281071   2.484   0.474  13.740  1.2794  1.8868 -0.5084
19886TIP3   OH281072   1.869   3.496   4.945  0.2855 -0.2010 -0.0356
19886TIP3    H181073   1.933   3.442   4.991  0.0684 -1.8368 -1.5927
19886TIP3    H281074   1.914   3.525   4.866 -1.0831 -1.9530 -1.5035
19887TIP3   OH281075   0.002   4.639   2.291 -0.6218  0.3358  0.4932
19887TIP3    H181076   0.005   4.618   2.384  2.0588 -1.8514  0.0046
19887TIP3    H281077   0.028   4.732   2.286  0.0994  0.2176  1.8705
19888TIP3   OH281078   2.427   5.855  14.845 -0.2568  0.3788  0.1528
19888TIP3    H181079   2.369   5.923  14.813 -0.2026  0.4488  0.2037
19888TIP3    H281080   2.369   5.787  14.879 -0.3044  0.9293  1.2211
19889TIP3   OH281081   3.868   3.235  11.688 -0.4748 -0.1765 -0.0988
19889TIP3    H181082   3.805   3.214  11.618 -0.8887  0.4731  0.0764
19889TIP3    H281083   3.844   3.323  11.716  1.0946  0.4471 -0.6645
19890TIP3   OH281084   4.533   4.545   4.334  0.1184 -0.0763  0.7406
19890TIP3    H181085   4.626   4.545   4.314 -0.0914  0.8487 -0.2510
19890TIP3    H281086   4.499   4.624   4.292 -1.3032 -0.9628  0.1819
19891TIP3   OH281087   5.138   0.202   0.296 -0.3852  0.1713 -0.8137
19891TIP3    H181088   5.206   0.135   0.304 -0.3821  0.0122 -2.0415
19891TIP3    H281089   5.056   0.155   0.314 -0.0989  0.6820  2.2011
19892TIP3   OH281090   6.505   1.706  10.574 -0.3088  0.0901 -0.7418
19892TIP3    H181091   6.441   1.671  10.635  1.2700 -2.6878 -0.6107
19892TIP3    H281092   6.491   1.657  10.493  0.6641  0.5052 -1.1653
19893TIP3   OH281093   0.452   1.029  12.121 -0.2845  0.0699  1.2803
19893TIP3    H181094   0.542   1.052  12.145  0.4719 -1.2221 -0.2459
19893TIP3    H281095   0.452   1.028  12.025 -1.6689 -0.9144  1.2696
19894TIP3   OH281096   5.981   0.459   1.690 -0.4611 -0.5080  0.1715
19894TIP3    H181097   5.921   0.531   1.671 -1.6260 -1.4407  0.2683
19894TIP3    H281098   5.991   0.461   1.785 -0.7960 -0.7222  0.2096
19895TIP3   OH281099   5.562   5.577  12.120  0.4955  0.3327  0.2992
19895TIP3    H181100   5.484   5.569  12.175 -0.5534 -0.3371 -1.2560
19895TIP3    H281101   5.617   5.641  12.165 -1.3076  1.4151  1.0058
19896TIP3   OH281102   5.226   0.037   2.419  0.3981 -0.3862 -0.0372
19896TIP3    H181103   5.198  -0.027   2.354 -1.4561 -0.8556  1.1947
19896TIP3    H281104   5.145   0.076   2.451  1.2425 -0.4003  2.2181
19897TIP3   OH281105   3.781   5.260   5.425 -0.3389  0.7431 -0.1703
19897TIP3    H181106   3.848   5.294   5.484 -0.1055  1.5576 -0.8923
19897TIP3    H281107   3.824   5.188   5.378 -0.6178 -0.1052  0.8567
19898TIP3   OH281108   5.352   5.141  15.359  0.8477 -0.1195  0.1289
19898TIP3    H181109   5.300   5.221  15.349 -0.0314 -0.6974  0.0003
19898TIP3    H281110   5.337   5.114  15.450  1.2962 -0.0286  0.2289
19899TIP3   OH281111   2.210   4.114   0.542 -0.0450  0.1439  0.2270
19899TIP3    H181112   2.212   4.142   0.633  0.1321  0.9721 -0.0191
19899TIP3    H281113   2.290   4.151   0.503 -0.0741 -0.2722 -0.2344
19900TIP3   OH281114   0.819   3.645   4.159  0.4832 -0.4459 -0.0528
19900TIP3    H181115   0.820   3.740   4.152  0.9080 -0.5227 -1.1499
19900TIP3    H281116   0.733   3.625   4.197  0.6250  0.3973  0.7391
19901TIP3   OH281117   1.243   3.432   4.148  0.4974 -0.2068 -0.7285
19901TIP3    H181118   1.260   3.369   4.078  0.2396 -1.8388  0.6320
19901TIP3    H281119   1.168   3.482   4.118  0.1897 -1.1039 -1.4924
19902TIP3   OH281120   1.684   4.035  16.094  0.0688  0.0376 -0.1841
19902TIP3    H181121   1.702   4.118  16.049  2.8486  0.2879  1.2883
19902TIP3    H281122   1.665   3.973  16.024  0.6406  1.2979 -1.4774
19903TIP3   OH281123   5.038   4.073  16.927 -0.3712  0.2569  0.0288
19903TIP3    H181124   4.948   4.064  16.960  0.5890  0.5600  2.8407
19903TIP3    H281125   5.082   4.128  16.992  2.4938 -1.8390 -0.0267
19904TIP3   OH281126   5.906   6.354  12.553  0.0209 -0.1904 -0.3690
19904TIP3    H181127   5.929   6.381  12.464  2.4403 -0.3635  0.1586
19904TIP3    H281128   5.976   6.390  12.608 -2.8633  2.3187  1.8932
19905TIP3   OH281129   1.116   4.817   4.812  0.0662 -0.6071 -0.3260
19905TIP3    H181130   1.154   4.789   4.728  0.5291 -0.1736 -0.2640
19905TIP3    H281131   1.026   4.786   4.808  0.1553 -0.8158 -0.8809
19906TIP3   OH281132   6.784   2.701  16.144  0.2386 -0.1598 -0.6052
19906TIP3    H181133   6.765   2.667  16.231  0.3373  0.1711 -0.4567
19906TIP3    H281134   6.851   2.642  16.110  1.4780  0.7484  0.2262
19907TIP3   OH281135   5.339   2.340   2.090 -0.0756  0.1639  0.2581
19907TIP3    H181136   5.341   2.347   1.995  1.7428  0.7488  0.3137
19907TIP3    H281137   5.314   2.427   2.121 -0.3383  0.0665  0.3172
19908TIP3   OH281138   5.700   2.795   1.647  0.3522 -0.4271  0.1238
19908TIP3    H181139   5.750   2.799   1.565 -0.0663 -0.4207 -0.1356
19908TIP3    H281140   5.636   2.726   1.631 -0.3298  0.2077  0.1121
19909TIP3   OH281141   4.868   4.905   5.566 -0.9600 -0.2795  0.1555
19909TIP3    H181142   4.863   4.903   5.662  0.3013 -2.5568  0.2171
19909TIP3    H281143   4.946   4.957   5.547 -0.2590 -1.2351  0.4139
19910TIP3   OH281144   4.884   0.401   2.330 -0.4701  0.5093 -0.3129
19910TIP3    H181145   4.926   0.456   2.263  0.4354  0.4786  0.2290
19910TIP3    H281146   4.814   0.456   2.365  0.4914  1.3580  0.2938
19911TIP3   OH281147   3.514   5.942   5.470  0.6225 -0.4095  0.2513
19911TIP3    H181148   3.497   5.899   5.554  1.7245 -2.3485 -0.4985
19911TIP3    H281149   3.432   5.989   5.451  0.4783  0.3593  2.5411
19912TIP3   OH281150   2.208   1.213  12.047  0.3960  0.2234 -1.0201
19912TIP3    H181151   2.301   1.194  12.036  0.4130  0.4133 -1.2044
19912TIP3    H281152   2.164   1.161  11.979  0.2828 -0.6311 -0.3079
19913TIP3   OH281153   5.866   2.748   0.146  0.2301 -0.4587  0.4044
19913TIP3    H181154   5.914   2.723   0.067 -1.1065  0.3393 -0.6696
19913TIP3    H281155   5.801   2.678   0.158 -1.2096  0.6666 -0.6315
19914TIP3   OH281156   5.835   0.736  13.285 -0.5833 -0.2234 -0.3732
19914TIP3    H181157   5.860   0.798  13.353 -0.1543 -1.3202  0.4981
19914TIP3    H281158   5.812   0.790  13.210  0.6180  0.9606  0.0820
19915TIP3   OH281159   6.418   0.046  10.917  0.0957 -0.0418  0.4176
19915TIP3    H181160   6.502   0.017  10.881 -0.7626 -1.7812 -0.2331
19915TIP3    H281161   6.441   0.114  10.979  2.0917 -1.2828  1.0788
19916TIP3   OH281162   5.983   1.228  15.345 -0.1797 -0.2508 -0.4051
19916TIP3    H181163   5.997   1.171  15.270  0.1314  0.2591 -0.7328
19916TIP3    H281164   6.064   1.278  15.353  0.4766 -1.5157  1.3107
19917TIP3   OH281165   1.565   2.102  15.650  0.3850 -0.4794  0.2702
19917TIP3    H181166   1.473   2.095  15.625  0.1358 -0.2373  1.1036
19917TIP3    H281167   1.611   2.045  15.589  0.1798  2.5224 -2.8098
19918TIP3   OH281168   2.730   3.831  12.131 -0.0866 -0.3386  0.0926
19918TIP3    H181169   2.710   3.925  12.134 -2.0103 -0.7605  0.5912
19918TIP3    H281170   2.645   3.788  12.124  0.8586 -1.9944 -1.7082
19919TIP3   OH281171   1.141   5.648   3.072 -0.3501  0.1268 -0.0270
19919TIP3    H181172   1.059   5.684   3.105 -1.1241 -2.0873  0.5337
19919TIP3    H281173   1.182   5.721   3.025 -2.0714  1.5830  0.6783
19920TIP3   OH281174   2.466   5.461   0.259  0.2854  0.0645  0.5548
19920TIP3    H181175   2.550   5.466   0.215 -0.0773 -0.1938 -0.1807
19920TIP3    H281176   2.403   5.448   0.188 -0.5224  1.6258  0.9733
19921TIP3   OH281177   3.338   1.416  15.575  0.0931  0.2172  0.2646
19921TIP3    H181178   3.334   1.485  15.642  0.8219 -0.0047  0.5393
19921TIP3    H281179   3.327   1.462  15.492 -0.2337  0.5673  0.5007
19922TIP3   OH281180   1.112   2.476  17.239 -0.0127 -0.2721  0.4970
19922TIP3    H181181   1.142   2.503  17.326 -0.8572 -1.2364  1.0944
19922TIP3    H281182   1.125   2.382  17.238 -0.0863 -0.2692 -0.4007
19923TIP3   OH281183   3.005   4.374  14.704 -0.2149 -0.5651 -0.1800
19923TIP3    H181184   2.944   4.439  14.669 -1.1634 -0.8904  0.8638
19923TIP3    H281185   3.084   4.424  14.723 -0.1621 -0.1311 -1.4922
19924TIP3   OH281186   3.293   3.665   5.178  0.1786  0.7512 -0.3271
19924TIP3    H181187   3.267   3.575   5.198  0.2054  0.7443 -0.3241
19924TIP3    H281188   3.212   3.716   5.184  0.0166  0.6007 -1.0938
19925TIP3   OH281189   2.809   0.914   5.340  0.3867 -0.6461 -0.4415
19925TIP3    H181190   2.897   0.938   5.369 -0.1681 -0.4110  1.1087
19925TIP3    H281191   2.820   0.886   5.249  1.6189  1.8991 -1.1027
19926TIP3   OH281192   1.117   2.558   1.688 -0.1842  0.5931  0.0629
19926TIP3    H181193   1.041   2.611   1.666 -0.2786  0.7364  0.7337
19926TIP3    H281194   1.151   2.529   1.603  0.0736  2.0197 -0.3365
19927TIP3   OH281195   0.681   3.784  12.067  0.5201 -0.0611  0.1952
19927TIP3    H181196   0.641   3.757  12.149  1.5300  1.3289  1.1607
19927TIP3    H281197   0.740   3.855  12.091 -0.4775  1.5542 -1.9841
19928TIP3   OH281198   2.838   5.229   1.389 -0.0093 -0.4431  0.6878
19928TIP3    H181199   2.918   5.176   1.389  0.2874 -0.0311 -1.2207
19928TIP3    H281200   2.858   5.304   1.446  1.3624  0.2324 -0.6657
19929TIP3   OH281201   5.823   4.053  10.582 -0.0790  0.3121 -0.4849
19929TIP3    H181202   5.792   4.060  10.491 -1.7544 -0.0136  0.0452
19929TIP3    H281203   5.811   4.140  10.618 -3.9971 -0.6884  0.8224
19930TIP3   OH281204   2.266   5.216   3.150  0.4190  0.5843 -0.3581
19930TIP3    H181205   2.277   5.266   3.231 -1.0935  0.8088 -0.2816
19930TIP3    H281206   2.318   5.137   3.163  0.5592  0.8421  0.6535
19931TIP3   OH281207   4.714   0.341   4.560 -1.0173 -0.0279  0.8363
19931TIP3    H181208   4.670   0.415   4.603  0.4631  0.2242  1.9916
19931TIP3    H281209   4.786   0.381   4.512 -0.6198 -0.6413  0.9128
19932TIP3   OH281210   3.158   5.884  13.048  0.2858  0.4312  0.0771
19932TIP3    H181211   3.251   5.905  13.036  0.1352  0.7214 -0.6191
19932TIP3    H281212   3.150   5.792  13.022  0.7981 -0.2667  2.3502
19933TIP3   OH281213   2.754   0.927  15.540  0.0849  0.3300  0.3300
19933TIP3    H181214   2.814   0.982  15.491  0.0622 -0.3175 -0.4314
19933TIP3    H281215   2.806   0.851  15.567 -0.2790 -0.0190  0.0512
19934TIP3   OH281216   3.090   5.961   1.491 -0.4104  0.3001 -0.4314
19934TIP3    H181217   3.113   5.937   1.402  0.0974 -0.2468 -0.1554
19934TIP3    H281218   3.154   5.916   1.546 -1.2758 -0.1305  0.2603
19935TIP3   OH281219   6.155   0.858   1.541  0.1311 -0.3576 -0.1245
19935TIP3    H181220   6.222   0.831   1.603 -0.9825 -0.7690  0.9266
19935TIP3    H281221   6.189   0.937   1.500  0.1685  0.8551  2.2192
19936TIP3   OH281222   2.263   0.047   4.065 -0.0342 -0.7364 -0.7741
19936TIP3    H181223   2.349   0.087   4.078 -0.3331 -0.6867  1.1946
19936TIP3    H281224   2.204   0.121   4.050 -0.1434 -0.6106  0.2747
19937TIP3   OH281225   0.575   6.085  14.384 -0.2888  0.2634 -0.0329
19937TIP3    H181226   0.666   6.056  14.386  0.1038  1.5584  1.4674
19937TIP3    H281227   0.563   6.124  14.298  0.8828  1.0952  0.1892
19938TIP3   OH281228   6.716   2.239   2.106 -0.1954  0.3177 -0.1637
19938TIP3    H181229   6.690   2.197   2.189  0.7957 -0.0000 -0.0068
19938TIP3    H281230   6.659   2.315   2.099 -1.8893 -0.9335 -0.3412
19939TIP3   OH281231   1.497   2.784  10.911  0.5995 -0.4404 -0.2057
19939TIP3    H181232   1.481   2.741  10.995  2.1505 -0.7010 -0.0318
19939TIP3    H281233   1.442   2.862  10.913 -1.2578 -1.7121  0.0150
19940TIP3   OH281234   3.126   0.546  10.900 -0.1871 -0.5080  0.2073
19940TIP3    H181235   3.188   0.500  10.844  0.9539  0.6365  0.5182
19940TIP3    H281236   3.068   0.591  10.839  0.2775 -0.2820 -0.0697
19941TIP3   OH281237   1.608   4.319   0.046 -0.0063  0.0502  0.3170
19941TIP3    H181238   1.687   4.372   0.034  1.2604 -1.6833  0.7789
19941TIP3    H281239   1.578   4.341   0.134  1.4658 -1.2047  1.1567
19942TIP3   OH281240   5.354   3.553  14.828  0.5023  0.5337  0.4944
19942TIP3    H181241   5.330   3.582  14.916  0.5876  0.4896  0.5319
19942TIP3    H281242   5.370   3.635  14.781  1.6921  0.5298  0.8715
19943TIP3   OH281243   1.017   4.808   6.413 -0.6240  0.1997  0.2987
19943TIP3    H181244   1.103   4.846   6.393 -0.4273 -0.2944  0.2075
19943TIP3    H281245   0.956   4.882   6.407 -0.1500  0.6311  0.7679
19944LIG      S81246   3.276   3.503  16.311  0.0591  0.0632  0.6268
19944LIG     O181247   3.087   3.249  16.442 -0.0352 -0.3720  0.2095
19944LIG     O281248   3.950   3.340  16.728  0.3549 -0.0721  0.3103
19944LIG     O381249   3.758   3.294  16.649 -0.1112 -0.0522 -0.8923
19944LIG     N181250   3.083   2.930  16.420 -0.5321  0.7359 -0.1992
19944LIG     N281251   3.655   3.491  16.466  0.1212  0.9830 -0.5490
19944LIG     N381252   3.827   3.531  16.308 -0.0322  0.1517  0.6558
19944LIG     N481253   3.863   3.350  16.640 -0.5968 -0.0859  0.2717
19944LIG     N581254   3.952   3.510  16.263 -0.1042 -0.0785  0.4209
19944LIG     C181255   2.992   3.026  16.471 -0.2873 -0.0379 -0.6530
19944LIG     C281256   3.064   3.149  16.532 -0.2017  0.0322  0.2220
19944LIG     C381257   3.139   3.350  16.516  0.1352  0.1553 -0.1171
19944LIG     C481258   3.153   3.483  16.444  0.4528  0.1241 -0.4849
19944LIG     C581259   3.102   3.186  16.658 -0.0382  0.2415  0.4859
19944LIG     C681260   3.426   3.435  16.387 -0.0822  0.5813  0.7760
19944LIG     C781261   3.152   3.313  16.647  1.0218 -0.2738  0.0885
19944LIG     C881262   3.540   3.539  16.378  0.6918  0.0876  0.1535
19944LIG     C981263   3.178   2.867  16.518  0.3212  0.4195 -0.2493
19944LIG    C1081264   3.156   2.966  16.296  0.0768 -0.7927  0.2290
19944LIG    C1181265   3.787   3.480  16.431 -0.1781 -0.3118 -0.5520
19944LIG    C1281266   3.892   3.423  16.520 -0.4144 -0.4249 -0.2684
19944LIG    C1381267   4.020   3.402  16.462  0.0962 -0.0690 -0.7038
19944LIG    C1481268   4.051   3.452  16.336  0.2820  0.4186 -0.0437
19944LIG     H181269   2.919   2.985  16.545  0.5167  1.7761  1.1983
19944LIG     H281270   2.928   3.062  16.388 -3.0381 -1.0508  0.9195
19944LIG     H381271   3.053   3.518  16.411 -0.0841 -2.7402 -2.0705
19944LIG     H481272   3.189   3.557  16.517 -1.3705  2.8380 -2.2607
19944LIG     H581273   3.090   3.132  16.751 -0.3687 -3.4020 -1.5612
19944LIG     H681274   3.468   3.356  16.322  0.4730  3.2722 -2.2633
19944LIG     H781275   3.403   3.409  16.493 -1.2696  2.7384  1.0730
19944LIG     H881276   3.193   3.373  16.727 -0.2564 -1.6668  1.8261
19944LIG     H981277   3.564   3.557  16.271 -0.1506  2.1448  0.3085
19944LIG    H1081278   3.502   3.634  16.421 -0.7728 -1.1788  1.7206
19944LIG    H1181279   3.151   2.890  16.623  2.1438  1.1504  0.0764
19944LIG    H1281280   3.281   2.909  16.510  0.0014  1.9921  3.1802
19944LIG    H1381281   3.182   2.757  16.499 -0.6286  0.2074  0.7559
19944LIG    H1481282   3.167   3.077  16.299  2.7379 -0.9502 -1.6946
19944LIG    H1581283   3.099   2.958  16.202  0.3118  2.7344 -0.3163
19944LIG    H1681284   3.254   2.919  16.271  0.2479 -1.1121  1.4674
19944LIG    H1781285   3.630   3.460  16.559 -2.5785  2.6348 -0.6822
19944LIG    H1881286   4.101   3.355  16.515  0.6458  2.4934  0.8404
19944LIG    H1981287   4.151   3.439  16.298  0.1790  0.7708 -0.4417
   6.78697   6.78697  17.23950
